152
 energy: -209.176648095968 gnorm: 0.099424648414 xtb: 6.7.1 (43a0e4e5b5d943adc66b4aa6563d39c792f6153b)
C           -3.09490000000000        1.90790000000000       -2.54350000000000
C           -2.89290000000000        0.74670000000000       -1.80140000000000
C           -1.84750000000000        0.74050000000000       -0.81940000000000
C           -0.85720000000000        1.75820000000000       -0.88380000000000
C           -1.09380000000000        2.87510000000000       -1.70640000000000
C           -2.22430000000000        2.99180000000000       -2.48590000000000
C           -1.70600000000000       -0.25730000000000        0.19550000000000
C           -0.44030000000000       -0.38430000000000        0.77820000000000
C            0.53140000000000        0.63170000000000        0.58440000000000
N            0.30210000000000        1.71700000000000       -0.18350000000000
C           -2.72280000000000       -1.12880000000000        0.70490000000000
C           -2.30220000000000       -2.31880000000000        1.35630000000000
N           -1.01950000000000       -2.54040000000000        1.73590000000000
C           -0.14480000000000       -1.52280000000000        1.57430000000000
C            1.11130000000000       -1.58640000000000        2.19210000000000
C            2.04360000000000       -0.56660000000000        2.08420000000000
C            1.75120000000000        0.51300000000000        1.26450000000000
C           -4.11620000000000       -0.80000000000000        0.69990000000000
C           -5.02780000000000       -1.78030000000000        1.08300000000000
C           -4.62670000000000       -3.02680000000000        1.55930000000000
C           -3.27910000000000       -3.26620000000000        1.70970000000000
O           -4.48680000000000        0.50990000000000        0.40910000000000
O           -3.69130000000000       -0.37300000000000       -2.10880000000000
C           -2.52210000000000        4.24630000000000       -3.31900000000000
C           -5.63410000000000       -4.09010000000000        2.01930000000000
C            3.39130000000000       -0.65820000000000        2.81400000000000
C           -7.08410000000000       -3.68250000000000        1.69520000000000
C           -5.33670000000000       -5.42130000000000        1.30430000000000
C           -5.50410000000000       -4.27580000000000        3.54220000000000
C            4.40490000000000       -1.37030000000000        1.90510000000000
C            3.91620000000000        0.74960000000000        3.15920000000000
C            3.24320000000000       -1.44760000000000        4.13130000000000
C           -3.91100000000000        4.78920000000000       -2.93440000000000
C           -2.50060000000000        3.88170000000000       -4.81390000000000
C           -1.48360000000000        5.35690000000000       -3.06950000000000
H           -0.35650000000000        3.65520000000000       -1.69740000000000
H           -3.92920000000000        1.92650000000000       -3.21930000000000
H            2.46740000000000        1.30040000000000        1.12790000000000
H            1.32770000000000       -2.45790000000000        2.77980000000000
H           -2.94380000000000       -4.18650000000000        2.15090000000000
H           -6.07350000000000       -1.54800000000000        1.05080000000000
C           -5.85890000000000        0.69970000000000        0.15960000000000
C           -2.95380000000000       -1.54280000000000       -2.40410000000000
H           -1.45590000000000        5.63770000000000       -2.01700000000000
H           -1.72800000000000        6.25020000000000       -3.64370000000000
H           -0.48610000000000        5.03780000000000       -3.36950000000000
H           -3.25750000000000        3.13490000000000       -5.04970000000000
H           -1.53010000000000        3.47500000000000       -5.09640000000000
H           -2.69260000000000        4.75820000000000       -5.43200000000000
H           -4.69290000000000        4.05930000000000       -3.13880000000000
H           -4.14520000000000        5.69400000000000       -3.49460000000000
H           -3.94830000000000        5.03030000000000       -1.87240000000000
H            4.53930000000000       -0.82310000000000        0.97260000000000
H            4.06300000000000       -2.37460000000000        1.65680000000000
H            5.37580000000000       -1.45340000000000        2.39270000000000
H            3.03360000000000       -2.50010000000000        3.94770000000000
H            2.43380000000000       -1.04060000000000        4.73520000000000
H            4.15810000000000       -1.39920000000000        4.72010000000000
H            4.18900000000000        1.30680000000000        2.26450000000000
H            4.80610000000000        0.68890000000000        3.78400000000000
H            3.16090000000000        1.31960000000000        3.69840000000000
H           -5.68920000000000       -3.33570000000000        4.06120000000000
H           -4.50540000000000       -4.61410000000000        3.81490000000000
H           -6.21860000000000       -5.01210000000000        3.90880000000000
H           -5.39160000000000       -5.29710000000000        0.22320000000000
H           -6.05540000000000       -6.18780000000000        1.59290000000000
H           -4.34220000000000       -5.79150000000000        1.54870000000000
H           -7.21110000000000       -3.50590000000000        0.62740000000000
H           -7.36920000000000       -2.77890000000000        2.23300000000000
H           -7.78040000000000       -4.46870000000000        1.98620000000000
H           -3.65040000000000       -2.34740000000000       -2.64030000000000
H           -2.34280000000000       -1.83840000000000       -1.55320000000000
H           -2.31090000000000       -1.35560000000000       -3.26450000000000
H           -6.00690000000000        1.71580000000000       -0.20760000000000
H           -6.42940000000000        0.56910000000000        1.07970000000000
H           -6.19150000000000       -0.00260000000000       -0.60600000000000
C           -2.28690000000000        1.28230000000000        3.44320000000000
C           -1.82770000000000        0.34390000000000        4.36520000000000
C           -0.68590000000000        0.68570000000000        5.16790000000000
C            0.13980000000000        1.76190000000000        4.73610000000000
C           -0.37820000000000        2.65720000000000        3.78280000000000
C           -1.60210000000000        2.46730000000000        3.17740000000000
C           -0.28130000000000       -0.00910000000000        6.35460000000000
C            1.06610000000000        0.10550000000000        6.71750000000000
C            1.87860000000000        1.09900000000000        6.10940000000000
N            1.39840000000000        1.96750000000000        5.19420000000000
C           -1.10790000000000       -0.78300000000000        7.22950000000000
C           -0.46820000000000       -1.70040000000000        8.10480000000000
N            0.87180000000000       -1.72170000000000        8.30740000000000
C            1.60840000000000       -0.76640000000000        7.69950000000000
C            2.96680000000000       -0.63470000000000        8.02200000000000
C            3.77480000000000        0.33690000000000        7.45070000000000
C            3.21620000000000        1.19710000000000        6.51890000000000
C           -2.52740000000000       -0.61590000000000        7.31910000000000
C           -3.25770000000000       -1.54740000000000        8.05210000000000
C           -2.64700000000000       -2.56430000000000        8.78300000000000
C           -1.27040000000000       -2.59910000000000        8.82990000000000
O           -3.10340000000000        0.51040000000000        6.73730000000000
O           -2.49620000000000       -0.88950000000000        4.39900000000000
C           -2.21440000000000        3.58040000000000        2.31250000000000
C           -3.45910000000000       -3.58970000000000        9.58820000000000
C            5.24850000000000        0.51150000000000        7.84880000000000
C           -4.97150000000000       -3.45630000000000        9.32330000000000
C           -3.02580000000000       -5.01260000000000        9.18840000000000
C           -3.20240000000000       -3.37060000000000       11.08950000000000
C            6.13700000000000        0.45060000000000        6.59240000000000
C            5.42270000000000        1.87630000000000        8.53840000000000
C            5.71200000000000       -0.59160000000000        8.81950000000000
C           -2.82790000000000        4.63820000000000        3.24540000000000
C           -3.31970000000000        3.03400000000000        1.39080000000000
C           -1.13140000000000        4.24260000000000        1.43880000000000
H            0.20800000000000        3.52770000000000        3.55630000000000
H           -3.16950000000000        1.02880000000000        2.88680000000000
H            3.81530000000000        1.97570000000000        6.08520000000000
H            3.36300000000000       -1.31010000000000        8.75590000000000
H           -0.77270000000000       -3.32030000000000        9.45110000000000
H           -4.32460000000000       -1.45150000000000        8.08320000000000
C           -4.50060000000000        0.45250000000000        6.57590000000000
C           -1.66620000000000       -2.01520000000000        4.61580000000000
H           -0.43090000000000        4.82150000000000        2.03850000000000
H           -1.57710000000000        4.92190000000000        0.71270000000000
H           -0.56410000000000        3.48990000000000        0.89630000000000
H           -4.17170000000000        2.67200000000000        1.96460000000000
H           -2.95020000000000        2.21080000000000        0.78360000000000
H           -3.68550000000000        3.80790000000000        0.71680000000000
H           -3.59910000000000        4.19550000000000        3.87510000000000
H           -3.27870000000000        5.44940000000000        2.67450000000000
H           -2.06870000000000        5.06540000000000        3.89980000000000
H            5.89880000000000        1.25430000000000        5.89760000000000
H            6.00530000000000       -0.49720000000000        6.07180000000000
H            7.19000000000000        0.54480000000000        6.85630000000000
H            5.59190000000000       -1.57930000000000        8.37520000000000
H            5.14760000000000       -0.55880000000000        9.75080000000000
H            6.76520000000000       -0.46780000000000        9.07040000000000
H            5.14870000000000        2.69260000000000        7.87130000000000
H            6.45650000000000        2.02900000000000        8.84710000000000
H            4.79170000000000        1.94290000000000        9.42410000000000
H           -3.48900000000000       -2.36190000000000       11.38530000000000
H           -2.14910000000000       -3.50320000000000       11.33290000000000
H           -3.77620000000000       -4.07520000000000       11.69080000000000
H           -3.17310000000000       -5.17330000000000        8.12080000000000
H           -3.60620000000000       -5.76200000000000        9.72580000000000
H           -1.97410000000000       -5.18610000000000        9.41120000000000
H           -5.19460000000000       -3.57370000000000        8.26310000000000
H           -5.34550000000000       -2.48710000000000        9.65160000000000
H           -5.52730000000000       -4.22080000000000        9.86560000000000
H           -1.94550000000000       -2.79700000000000        3.91150000000000
H           -1.81070000000000       -2.39390000000000        5.62660000000000
H           -0.61940000000000       -1.75520000000000        4.45770000000000
H           -4.81300000000000        1.30440000000000        5.97120000000000
H           -4.99410000000000        0.50740000000000        7.54670000000000
H           -4.77000000000000       -0.46700000000000        6.05430000000000
152
 energy: -209.190406997040 gnorm: 0.042574657787 xtb: 6.7.1 (43a0e4e5b5d943adc66b4aa6563d39c792f6153b)
C           -3.08689507306645        1.89678201687436       -2.55105445207926
C           -2.88494105791671        0.75010247750464       -1.80546129077241
C           -1.85629874690756        0.72940889521832       -0.82936513151872
C           -0.86182273359913        1.74863051180896       -0.88980985790991
C           -1.08995990639713        2.87708366825964       -1.70576687925116
C           -2.22061446317794        2.99694836080508       -2.47977666680220
C           -1.71655055512781       -0.25421627997805        0.19499597440010
C           -0.45085078542895       -0.38239856784338        0.77696491716176
C            0.52822169675662        0.62635376325889        0.57384990275198
N            0.28475874103946        1.70362483093467       -0.18528124642508
C           -2.73443827363020       -1.11755649742751        0.70833263706054
C           -2.30573142575101       -2.30910652368412        1.35961652345155
N           -1.02737817510115       -2.52547864071956        1.72395911901870
C           -0.15340117653529       -1.51808309874357        1.57659558190376
C            1.11035435302388       -1.59110273381125        2.19128922878769
C            2.04587265447379       -0.56820599523830        2.08020624507632
C            1.75287735213262        0.51538995082935        1.25952228708467
C           -4.12032124981826       -0.82041771598908        0.68952479979390
C           -5.02636662667910       -1.78707740772208        1.08780669556512
C           -4.61929056796078       -3.03653962351467        1.56678330844984
C           -3.27164594369707       -3.27422411200254        1.71097179422019
O           -4.48940401064112        0.46663745682783        0.37983701134191
O           -3.68204710821080       -0.35598261971719       -2.09334495922368
C           -2.51807563984849        4.24377646961923       -3.31312138029301
C           -5.63194875726753       -4.08951007470019        2.01660232070157
C            3.38580718482667       -0.65496549127761        2.81323286208691
C           -7.07806917592718       -3.68487278938052        1.69595615298855
C           -5.33500927641240       -5.41715743277146        1.30392735177462
C           -5.50133347751272       -4.27317107008005        3.53641886475365
C            4.39492957839513       -1.36872784969884        1.90253543082789
C            3.91283867268347        0.74696112990605        3.15349401981936
C            3.24213227816976       -1.44705515747347        4.12286405706028
C           -3.90598384912579        4.78158185515556       -2.93150473019854
C           -2.49932850059420        3.87803238255063       -4.80531860614065
C           -1.48659822187591        5.35352125247817       -3.07020474184589
H           -0.33788649015889        3.64546622979230       -1.69536277844166
H           -3.92530785493454        1.90785445891282       -3.22861338250201
H            2.46174685181164        1.31307621797550        1.12442594613600
H            1.32036608383025       -2.46939214590336        2.77712194910258
H           -2.92214474637857       -4.19104217867328        2.15560509386388
H           -6.07458538561795       -1.55644757425452        1.05332542209552
C           -5.85903745029274        0.69186568387483        0.15020834457803
C           -2.95201972729335       -1.52795891862165       -2.40350729146465
H           -1.46040850235044        5.63519991756231       -2.01948032543385
H           -1.74570962973599        6.23817311425595       -3.64940493437320
H           -0.49150980483803        5.03699504891813       -3.37534549713453
H           -3.25650351702350        3.13372215296222       -5.04161800285876
H           -1.52792574393979        3.47484352987385       -5.08582339261853
H           -2.69198120505380        4.75921931486374       -5.41515395490518
H           -4.68697861598765        4.05334662994808       -3.13740412545961
H           -4.13101747990734        5.68484317198479       -3.49631168196735
H           -3.93955675438596        5.02506087831420       -1.87112053336483
H            4.53026994003620       -0.81921210728888        0.97265500044384
H            4.05354607298746       -2.37315168750951        1.65759601946268
H            5.36150439526915       -1.44691280841495        2.39770502390429
H            3.04285331181131       -2.50071467721306        3.94092334718772
H            2.43484528614321       -1.04129112028662        4.72757462174616
H            4.15946582116487       -1.38533586531822        4.70432218669836
H            4.19569357615389        1.29760340337500        2.25958469992054
H            4.79842128396397        0.66814902996346        3.78068291548889
H            3.15805518159272        1.31778508003887        3.68986573791338
H           -5.68738113914929       -3.33199104612249        4.05119513086698
H           -4.50443282680163       -4.61274953992520        3.80755789537901
H           -6.22016396511990       -5.00882903242852        3.89368972664809
H           -5.39237303522298       -5.28978704540278        0.22442334288710
H           -6.05855633521249       -6.17551528662534        1.59825535895230
H           -4.34260407982850       -5.78652102954242        1.54965792792301
H           -7.20611537305388       -3.51113615841501        0.62886907156273
H           -7.36632102701488       -2.78676448246150        2.23930812969867
H           -7.76202533150928       -4.47910709571454        1.98977250277039
H           -3.67384666213776       -2.31062489603537       -2.63501176099908
H           -2.33579120433990       -1.85839233225076       -1.56523555442001
H           -2.31181957116042       -1.35854212987418       -3.27489252842487
H           -5.96405988748589        1.71617696473307       -0.20839740218256
H           -6.43737520831050        0.58005031483494        1.07262565293663
H           -6.22577906711350        0.00463110667356       -0.61607469091246
C           -2.27772191313300        1.27918844894748        3.44087853139986
C           -1.81462724457905        0.35156860853738        4.36012226866569
C           -0.69169354540246        0.67531384681137        5.16393782003185
C            0.13554585382651        1.75736590183802        4.73706167466741
C           -0.37770196886337        2.66752645420623        3.79004963142414
C           -1.60662134895398        2.48506826593292        3.19498431901215
C           -0.29100669524073       -0.00519607553572        6.35480520241905
C            1.05590762997302        0.10996791042756        6.72099089317484
C            1.87406387831440        1.09668081713281        6.10631357392631
N            1.38143983515855        1.95975754483477        5.20453968424203
C           -1.11853886225148       -0.76807473908069        7.23384808050815
C           -0.47137951781952       -1.68740831095203        8.11076588599175
N            0.86090702654024       -1.70830465504068        8.30008020591162
C            1.59819952889083       -0.75647195883875        7.70902870581723
C            2.96458953738995       -0.63631019803893        8.02849719012267
C            3.77294511918704        0.33878602178236        7.45680500113972
C            3.21570970835701        1.20322004363399        6.52016155750268
C           -2.52792352835700       -0.62377431894671        7.32667586474577
C           -3.25442111041071       -1.54406369972531        8.06144348998443
C           -2.63831049372860       -2.56897352706223        8.78981899977738
C           -1.26288322269431       -2.60273162416560        8.83522756416671
O           -3.09785713044559        0.47837541795651        6.73216545108104
O           -2.46953172510567       -0.86788170552455        4.39905921056530
C           -2.20928456472987        3.58217500747208        2.31542742722695
C           -3.45723943618912       -3.58764622216223        9.58446974129444
C            5.24278148737521        0.50711845657933        7.85001602103257
C           -4.96508673446188       -3.45674480591096        9.32379930242694
C           -3.02449748815263       -5.00683597314255        9.18619155095944
C           -3.20023118892103       -3.36856484623806       11.08268699591581
C            6.12890168315832        0.44990856955476        6.59588747554306
C            5.41568961622976        1.87139385217264        8.53491447015292
C            5.71015406958436       -0.58879363124720        8.81716395030875
C           -2.82274138116818        4.63301143403388        3.25263219162079
C           -3.31357981991132        3.04539510735513        1.39838865432248
C           -1.13012225617078        4.24665990417617        1.44839938756142
H            0.22933538440522        3.52391463397653        3.55382212021106
H           -3.16628004639218        1.02081604656918        2.89022720754987
H            3.80946529635060        1.98757626234448        6.08155800834110
H            3.35415463914282       -1.32284814137965        8.75893185665520
H           -0.75170839649007       -3.31707979224560        9.45774279879832
H           -4.32401795521895       -1.45285525901515        8.08872843459658
C           -4.49606759403868        0.44924642264337        6.57360071271023
C           -1.66731117081741       -2.01286088635184        4.62512956430812
H           -0.43996977557935        4.83411382429109        2.04837511140678
H           -1.59009668265902        4.91580504560978        0.72319411509775
H           -0.55808611473957        3.49718317550882        0.91028455202343
H           -4.16735972089884        2.68951687689675        1.97075796843104
H           -2.94540808069016        2.22807188922660        0.78786479570618
H           -3.66880585826846        3.82669465776155        0.72921186674568
H           -3.59605243328776        4.18848523591643        3.87704016136846
H           -3.27062832869538        5.43779423280880        2.67170534974557
H           -2.06343169083875        5.06029636136173        3.90463533899028
H            5.89214797085146        1.25409224333910        5.90333206567269
H            5.99793092616726       -0.49933185956659        6.07922377882134
H            7.17856318537965        0.54423533618616        6.86965358374931
H            5.59302079657987       -1.57517321952554        8.37219202817782
H            5.15096752481705       -0.55226778826906        9.74979245784946
H            6.76330928849243       -0.45154743109989        9.05654000839692
H            5.14324005370088        2.68602838642818        7.86751836786118
H            6.45116790019182        2.01494695239097        8.83951858823782
H            4.78696961310027        1.93476188393573        9.42121225202531
H           -3.48900350959130       -2.36070442576496       11.37606260185244
H           -2.14846726239065       -3.50228479837223       11.32432835105781
H           -3.77796157423608       -4.07621427843115       11.67514542756853
H           -3.17442938262903       -5.16491136826426        8.11965992514259
H           -3.61046821482294       -5.74748622398169        9.72796493187010
H           -1.97499996084887       -5.17939875025426        9.41060242313439
H           -5.18869849252276       -3.57715339399422        8.26504258448388
H           -5.34145030936851       -2.49209013518731        9.65952764477153
H           -5.50653492972251       -4.22721640948364        9.86983146579020
H           -1.96518703537156       -2.77911875970048        3.91035580676810
H           -1.81127696566317       -2.40019860786305        5.63577910792245
H           -0.61273917510273       -1.78461331249538        4.46758654167467
H           -4.77141777114460        1.31269308810423        5.96798490082587
H           -5.00482985624746        0.51875813772427        7.53984672165363
H           -4.79505600489379       -0.46280960438453        6.04998014303870
152
 energy: -209.194759125813 gnorm: 0.010801761088 xtb: 6.7.1 (43a0e4e5b5d943adc66b4aa6563d39c792f6153b)
C           -3.07571026945575        1.88806640890269       -2.56220174704987
C           -2.87833095747336        0.75168309656799       -1.81195507922165
C           -1.86324673209670        0.72161836820133       -0.83564177057535
C           -0.86465352631491        1.74225600477062       -0.89178023542184
C           -1.08347371476016        2.87568339357945       -1.70815663646258
C           -2.21070228038615        2.99735939918847       -2.48120201968914
C           -1.72416128416635       -0.25364673388397        0.19376836640562
C           -0.45966557619310       -0.38117280466647        0.77674303560665
C            0.52362291875798        0.62364714750289        0.56781406787727
N            0.27248459104360        1.69333326712270       -0.18760898411596
C           -2.74416200305116       -1.11089791991213        0.70782626448238
C           -2.30829299989942       -2.30336147959226        1.36043950150633
N           -1.03554858851080       -2.51374343552281        1.71923326240911
C           -0.16077884027222       -1.51573967526961        1.57776680965283
C            1.10701170397037       -1.59347953080813        2.18944642226675
C            2.04143152696714       -0.56816150071416        2.07679205136602
C            1.75009157915630        0.51677361536974        1.25628543159064
C           -4.12637589796284       -0.83582169066200        0.68079096972705
C           -5.02686616202885       -1.79792951381185        1.08668187590086
C           -4.61249661591775       -3.04758517776091        1.56961819251473
C           -3.26535215958022       -3.28077049198529        1.71198783144384
O           -4.49369043815058        0.43077962605184        0.34641564831596
O           -3.67457597843378       -0.34421926863766       -2.08623114892394
C           -2.51393333152391        4.23850999015992       -3.30860460638164
C           -5.62599736038895       -4.09220429317368        2.01577382357186
C            3.37715427881634       -0.65447027850000        2.80642521925079
C           -7.07058694003998       -3.69242219312070        1.69779942883323
C           -5.33263691154380       -5.41812657079765        1.30359701583610
C           -5.49836528916914       -4.27460065253321        3.53441896774678
C            4.38511633138102       -1.36836595828297        1.89459126988420
C            3.91009815146312        0.74180673793717        3.14606610017009
C            3.24169757371565       -1.44486770120670        4.11383896690941
C           -3.90107091191852        4.77271213274449       -2.92599394469115
C           -2.49644405264493        3.87297475010084       -4.79918688509656
C           -1.49047303002176        5.35169967821561       -3.07193883771513
H           -0.31990613474128        3.63362160562231       -1.68926602255809
H           -3.90971796085301        1.89023118787372       -3.24783911412151
H            2.45151984506879        1.32206052350987        1.12021116231667
H            1.31067344878938       -2.47696490959456        2.77192848175798
H           -2.89883340873104       -4.19326168744592        2.15548576580035
H           -6.07653327084051       -1.57143901810656        1.05160568369396
C           -5.85908369369656        0.69245376425351        0.13535548084017
C           -2.96001505937314       -1.52002789157755       -2.41164498830824
H           -1.46142582449081        5.63475340715060       -2.02271743929152
H           -1.76335773934694        6.23013614030099       -3.65349716262108
H           -0.49651559470150        5.04087932219536       -3.38285968242462
H           -3.25336212155132        3.12998676290870       -5.03486943407363
H           -1.52439988442856        3.47229872050264       -5.07834107633796
H           -2.69034506136603        4.75790869313292       -5.40225861950541
H           -4.67963657165969        4.04358731935701       -3.13168369656809
H           -4.12271511264472        5.67447708429440       -3.49368820845087
H           -3.93232956050458        5.01753651455946       -1.86656920993958
H            4.51939375291097       -0.81768477298261        0.96626946710638
H            4.04209062642058       -2.37190666328757        1.65252118391377
H            5.34918316368005       -1.44401599121294        2.39423160847997
H            3.05503036764864       -2.49996486844491        3.93243223064895
H            2.43365068239751       -1.04591382682013        4.72086530222822
H            4.16122649646614       -1.37029160092702        4.68987974087600
H            4.20530621481659        1.28562730865708        2.25305667926948
H            4.79014922778551        0.65031557078876        3.77867597758915
H            3.15688576429737        1.31871315282331        3.67637047657427
H           -5.68400400110465       -3.33115467738218        4.04384499151643
H           -4.50276519501347       -4.61444779425064        3.80487873051150
H           -6.22088391551485       -5.00800271275721        3.88735975114882
H           -5.39261420936470       -5.28743976896268        0.22526904775769
H           -6.05911173348433       -6.17161185775433        1.60098082248125
H           -4.34111404861353       -5.78654435287984        1.54801994323225
H           -7.20233366731736       -3.51862811819211        0.63196222740641
H           -7.36451497737402       -2.80000197845052        2.24610627001104
H           -7.74362572733450       -4.49498063665348        1.99267381821837
H           -3.70692721392477       -2.27994753533861       -2.64136218471279
H           -2.33738521644373       -1.87846432983832       -1.58641893993768
H           -2.32322284782775       -1.35820353391313       -3.28931683441001
H           -5.91840302101430        1.72309075885920       -0.21724386262819
H           -6.43939169978549        0.60014934977142        1.06150524827273
H           -6.26597915375832        0.02044293177592       -0.62779212327572