152
 energy: -209.176643966802 gnorm: 0.099443010585 xtb: 6.7.1 (edcfbbe)
C           -3.09500000000000        1.90790000000000       -2.54350000000000
C           -2.89290000000000        0.74660000000000       -1.80140000000000
C           -1.84750000000000        0.74050000000000       -0.81940000000000
C           -0.85730000000000        1.75820000000000       -0.88380000000000
C           -1.09390000000000        2.87510000000000       -1.70640000000000
C           -2.22440000000000        2.99180000000000       -2.48590000000000
C           -1.70600000000000       -0.25730000000000        0.19550000000000
C           -0.44030000000000       -0.38430000000000        0.77820000000000
C            0.53140000000000        0.63170000000000        0.58440000000000
N            0.30210000000000        1.71710000000000       -0.18350000000000
C           -2.72280000000000       -1.12890000000000        0.70490000000000
C           -2.30210000000000       -2.31880000000000        1.35630000000000
N           -1.01940000000000       -2.54040000000000        1.73590000000000
C           -0.14480000000000       -1.52280000000000        1.57430000000000
C            1.11130000000000       -1.58630000000000        2.19210000000000
C            2.04360000000000       -0.56650000000000        2.08410000000000
C            1.75120000000000        0.51310000000000        1.26450000000000
C           -4.11620000000000       -0.80010000000000        0.69990000000000
C           -5.02780000000000       -1.78030000000000        1.08300000000000
C           -4.62660000000000       -3.02680000000000        1.55940000000000
C           -3.27900000000000       -3.26630000000000        1.70970000000000
O           -4.48680000000000        0.50980000000000        0.40920000000000
O           -3.69130000000000       -0.37300000000000       -2.10880000000000
C           -2.52220000000000        4.24630000000000       -3.31900000000000
C           -5.63400000000000       -4.09020000000000        2.01940000000000
C            3.39130000000000       -0.65810000000000        2.81400000000000
C           -7.08400000000000       -3.68260000000000        1.69530000000000
C           -5.33660000000000       -5.42140000000000        1.30440000000000
C           -5.50400000000000       -4.27580000000000        3.54230000000000
C            4.40500000000000       -1.37020000000000        1.90510000000000
C            3.91620000000000        0.74970000000000        3.15920000000000
C            3.24330000000000       -1.44750000000000        4.13130000000000
C           -3.91110000000000        4.78920000000000       -2.93440000000000
C           -2.50080000000000        3.88170000000000       -4.81390000000000
C           -1.48370000000000        5.35690000000000       -3.06950000000000
H           -0.35660000000000        3.65520000000000       -1.69740000000000
H           -3.92930000000000        1.92640000000000       -3.21930000000000
H            2.46740000000000        1.30050000000000        1.12780000000000
H            1.32780000000000       -2.45790000000000        2.77980000000000
H           -2.94370000000000       -4.18650000000000        2.15090000000000
H           -6.07340000000000       -1.54810000000000        1.05090000000000
C           -5.85890000000000        0.69970000000000        0.15970000000000
C           -2.95380000000000       -1.54280000000000       -2.40400000000000
H           -1.45610000000000        5.63770000000000       -2.01710000000000
H           -1.72810000000000        6.25020000000000       -3.64370000000000
H           -0.48620000000000        5.03780000000000       -3.36950000000000
H           -3.25760000000000        3.13490000000000       -5.04970000000000
H           -1.53020000000000        3.47500000000000       -5.09640000000000
H           -2.69280000000000        4.75820000000000       -5.43200000000000
H           -4.69300000000000        4.05930000000000       -3.13880000000000
H           -4.14530000000000        5.69390000000000       -3.49460000000000
H           -3.94850000000000        5.03020000000000       -1.87240000000000
H            4.53940000000000       -0.82290000000000        0.97250000000000
H            4.06310000000000       -2.37440000000000        1.65670000000000
H            5.37590000000000       -1.45310000000000        2.39260000000000
H            3.03370000000000       -2.50000000000000        3.94760000000000
H            2.43390000000000       -1.04060000000000        4.73510000000000
H            4.15830000000000       -1.39920000000000        4.72000000000000
H            4.18900000000000        1.30700000000000        2.26450000000000
H            4.80610000000000        0.68900000000000        3.78400000000000
H            3.16080000000000        1.31970000000000        3.69840000000000
H           -5.68900000000000       -3.33570000000000        4.06130000000000
H           -4.50520000000000       -4.61420000000000        3.81490000000000
H           -6.21850000000000       -5.01220000000000        3.90890000000000
H           -5.39150000000000       -5.29720000000000        0.22330000000000
H           -6.05530000000000       -6.18780000000000        1.59300000000000
H           -4.34210000000000       -5.79160000000000        1.54870000000000
H           -7.21100000000000       -3.50600000000000        0.62760000000000
H           -7.36910000000000       -2.77900000000000        2.23310000000000
H           -7.78030000000000       -4.46870000000000        1.98630000000000
H           -3.65030000000000       -2.34750000000000       -2.64030000000000
H           -2.34270000000000       -1.83840000000000       -1.55320000000000
H           -2.31090000000000       -1.35560000000000       -3.26450000000000
H           -6.00690000000000        1.71570000000000       -0.20750000000000
H           -6.42930000000000        0.56910000000000        1.07980000000000
H           -6.19150000000000       -0.00260000000000       -0.60580000000000
C           -2.28680000000000        1.28230000000000        3.44310000000000
C           -1.82760000000000        0.34390000000000        4.36510000000000
C           -0.68590000000000        0.68570000000000        5.16790000000000
C            0.13980000000000        1.76190000000000        4.73610000000000
C           -0.37810000000000        2.65720000000000        3.78280000000000
C           -1.60200000000000        2.46730000000000        3.17740000000000
C           -0.28130000000000       -0.00910000000000        6.35460000000000
C            1.06610000000000        0.10550000000000        6.71750000000000
C            1.87860000000000        1.09900000000000        6.10940000000000
N            1.39850000000000        1.96750000000000        5.19420000000000
C           -1.10790000000000       -0.78300000000000        7.22950000000000
C           -0.46820000000000       -1.70040000000000        8.10480000000000
N            0.87170000000000       -1.72170000000000        8.30740000000000
C            1.60830000000000       -0.76640000000000        7.69950000000000
C            2.96670000000000       -0.63470000000000        8.02210000000000
C            3.77480000000000        0.33680000000000        7.45080000000000
C            3.21620000000000        1.19710000000000        6.51900000000000
C           -2.52750000000000       -0.61590000000000        7.31900000000000
C           -3.25780000000000       -1.54740000000000        8.05200000000000
C           -2.64710000000000       -2.56430000000000        8.78300000000000
C           -1.27050000000000       -2.59910000000000        8.82990000000000
O           -3.10340000000000        0.51040000000000        6.73720000000000
O           -2.49620000000000       -0.88950000000000        4.39890000000000
C           -2.21430000000000        3.58040000000000        2.31250000000000
C           -3.45920000000000       -3.58970000000000        9.58810000000000
C            5.24850000000000        0.51150000000000        7.84890000000000
C           -4.97160000000000       -3.45620000000000        9.32320000000000
C           -3.02590000000000       -5.01260000000000        9.18840000000000
C           -3.20250000000000       -3.37060000000000       11.08940000000000
C            6.13690000000000        0.45050000000000        6.59250000000000
C            5.42270000000000        1.87630000000000        8.53840000000000
C            5.71190000000000       -0.59160000000000        8.81960000000000
C           -2.82790000000000        4.63820000000000        3.24540000000000
C           -3.31970000000000        3.03400000000000        1.39080000000000
C           -1.13140000000000        4.24260000000000        1.43880000000000
H            0.20810000000000        3.52770000000000        3.55630000000000
H           -3.16950000000000        1.02880000000000        2.88670000000000
H            3.81530000000000        1.97560000000000        6.08520000000000
H            3.36290000000000       -1.31010000000000        8.75590000000000
H           -0.77280000000000       -3.32030000000000        9.45110000000000
H           -4.32460000000000       -1.45150000000000        8.08310000000000
C           -4.50060000000000        0.45250000000000        6.57580000000000
C           -1.66620000000000       -2.01520000000000        4.61580000000000
H           -0.43080000000000        4.82140000000000        2.03850000000000
H           -1.57700000000000        4.92200000000000        0.71270000000000
H           -0.56400000000000        3.49000000000000        0.89620000000000
H           -4.17160000000000        2.67200000000000        1.96450000000000
H           -2.95020000000000        2.21080000000000        0.78360000000000
H           -3.68540000000000        3.80790000000000        0.71670000000000
H           -3.59910000000000        4.19550000000000        3.87500000000000
H           -3.27870000000000        5.44940000000000        2.67450000000000
H           -2.06870000000000        5.06540000000000        3.89980000000000
H            5.89880000000000        1.25410000000000        5.89760000000000
H            6.00530000000000       -0.49740000000000        6.07200000000000
H            7.19000000000000        0.54470000000000        6.85630000000000
H            5.59180000000000       -1.57930000000000        8.37540000000000
H            5.14750000000000       -0.55880000000000        9.75090000000000
H            6.76510000000000       -0.46780000000000        9.07050000000000
H            5.14870000000000        2.69260000000000        7.87120000000000
H            6.45650000000000        2.02900000000000        8.84710000000000
H            4.79170000000000        1.94300000000000        9.42410000000000
H           -3.48920000000000       -2.36180000000000       11.38520000000000
H           -2.14920000000000       -3.50310000000000       11.33290000000000
H           -3.77630000000000       -4.07520000000000       11.69080000000000
H           -3.17320000000000       -5.17330000000000        8.12080000000000
H           -3.60630000000000       -5.76190000000000        9.72590000000000
H           -1.97420000000000       -5.18610000000000        9.41120000000000
H           -5.19460000000000       -3.57370000000000        8.26310000000000
H           -5.34560000000000       -2.48700000000000        9.65150000000000
H           -5.52750000000000       -4.22070000000000        9.86550000000000
H           -1.94550000000000       -2.79700000000000        3.91150000000000
H           -1.81070000000000       -2.39390000000000        5.62660000000000
H           -0.61940000000000       -1.75520000000000        4.45760000000000
H           -4.81300000000000        1.30440000000000        5.97110000000000
H           -4.99420000000000        0.50740000000000        7.54650000000000
H           -4.77000000000000       -0.46700000000000        6.05410000000000
152
 energy: -209.190405358003 gnorm: 0.042590760990 xtb: 6.7.1 (edcfbbe)
C           -3.08696991335070        1.89675709896760       -2.55105085329467
C           -2.88497105293631        0.75004512886799       -1.80544648095921
C           -1.85631563220717        0.72940608257410       -0.82936311558815
C           -0.86189897540705        1.74863426999230       -0.88981251768762
C           -1.09004749453492        2.87708356375246       -1.70576787017248
C           -2.22070727418371        2.99692947202255       -2.47978163114461
C           -1.71654099182361       -0.25422745808907        0.19499228415137
C           -0.45084312596340       -0.38238104163134        0.77696335707131
C            0.52820948203404        0.62638203606225        0.57384862222356
N            0.28472934463958        1.70369157433864       -0.18527922726189
C           -2.73441055760191       -1.11762143194516        0.70833873910018
C           -2.30565243449131       -2.30912023096573        1.35960931410731
N           -1.02729690578949       -2.52548073871362        1.72395818256492
C           -0.15337020115277       -1.51807290176851        1.57659159024972
C            1.11039777846038       -1.59102663379606        2.19127695480606
C            2.04589879939306       -0.56811395552783        2.08015750979210
C            1.75288373405969        0.51547398550907        1.25950004151526
C           -4.12029875966614       -0.82048202423629        0.68955906464614
C           -5.02633969355061       -1.78711321551819        1.08783745585699
C           -4.61919081282538       -3.03657809276617        1.56682699134229
C           -3.27155976797751       -3.27429119489401        1.71097855841837
O           -4.48937122287543        0.46658043904537        0.37991215865753
O           -3.68203744344607       -0.35600593183704       -2.09335333635224
C           -2.51819316655534        4.24375888423380       -3.31312136063057
C           -5.63184661998166       -4.08957613471582        2.01669127544126
C            3.38585133126459       -0.65485257142163        2.81319643018716
C           -7.07797511449756       -3.68495212891746        1.69605442322664
C           -5.33491653853422       -5.41722989412390        1.30402455934039
C           -5.50119583726969       -4.27321608315430        3.53650138712475
C            4.39501993198378       -1.36857913537157        1.90248197355225
C            3.91282963558369        0.74708080588832        3.15348891486013
C            3.24221254786513       -1.44697948613313        4.12280903935956
C           -3.90610441270345        4.78156047399377       -2.93150032038783
C           -2.49948196693719        3.87802462861907       -4.80531978689643
C           -1.48672027186407        5.35351472065398       -3.07021094039408
H           -0.33798568008969        3.64547575934325       -1.69536244148197
H           -3.92540117652840        1.90776423446334       -3.22858514990565
H            2.46173155069001        1.31317365385631        1.12434676356272
H            1.32045811257664       -2.46933750639384        2.77711040066044
H           -2.92204524378009       -4.19107615954706        2.15560374865735
H           -6.07454111944115       -1.55655275957688        1.05342949554219
C           -5.85902131649505        0.69183914607054        0.15031784113840
C           -2.95199730723867       -1.52797083648431       -2.40346264158518
H           -1.46057609980274        5.63520343359333       -2.01951765609083
H           -1.74582190002699        6.23815806905331       -3.64943544504026
H           -0.49162947185017        5.03698821771153       -3.37534398454072
H           -3.25661199184163        3.13369786821379       -5.04160867171962
H           -1.52804339943662        3.47486200057369       -5.08584533141622
H           -2.69215276553907        4.75921208955808       -5.41514736250892
H           -4.68709017571957        4.05331237931975       -3.13741862246669
H           -4.13113087282371        5.68479707791041       -3.49630206052473
H           -3.93972059363745        5.02498750519588       -1.87110897355825
H            4.53033597530708       -0.81901258158974        0.97257547099838
H            4.05366262953268       -2.37297429611332        1.65750265055686
H            5.36159583116574       -1.44665192164373        2.39761884338053
H            3.04294893802509       -2.50064457351886        3.94082446892853
H            2.43494820677724       -1.04126658449177        4.72753095224925
H            4.15959587381894       -1.38530373088021        4.70420164347770
H            4.19567348673467        1.29778318265849        2.25959664072590
H            4.79840595635639        0.66828094381739        3.78068127297071
H            3.15800104274288        1.31787987140309        3.68986233599988
H           -5.68717940061627       -3.33203868397215        4.05127880359022
H           -4.50427179163127       -4.61284649708330        3.80760012594131
H           -6.22002434519529       -5.00888549070587        3.89380474223037
H           -5.39229368465399       -5.28985866349781        0.22451764424314
H           -6.05846330597361       -6.17555232443633        1.59836662018367
H           -4.34250454731458       -5.78659642609247        1.54970326513952
H           -7.20602425602841       -3.51121582076259        0.62899449412384
H           -7.36621023369722       -2.78683984113330        2.23941799982138
H           -7.76192799771767       -4.47915803143858        1.98989547296206
H           -3.67376541936549       -2.31070250382961       -2.63498344025487
H           -2.33572067431745       -1.85837146256107       -1.56522898925516
H           -2.31180503350019       -1.35856170808826       -3.27489409628186
H           -5.96404576851138        1.71611411563467       -0.20830940477484
H           -6.43729282056770        0.58004148714153        1.07276509794233
H           -6.22578449509890        0.00458308435667       -0.61591028412936
C           -2.27765326476747        1.27919909852249        3.44080064303877
C           -1.81457493212561        0.35158213904230        4.36006035057465
C           -0.69168936495000        0.67531276177931        5.16392163624285
C            0.13555006506948        1.75736049426145        4.73704965537788
C           -0.37763370563932        2.66752647245155        3.79003835191825
C           -1.60655202848486        2.48507150633385        3.19494636825023
C           -0.29102311707974       -0.00520407532554        6.35480015600309
C            1.05589222489045        0.10996047321856        6.72099904076198
C            1.87405542351496        1.09667172345714        6.10632183932145
N            1.38148977457871        1.95975059977518        5.20454875921182
C           -1.11856186371158       -0.76807293282388        7.23383303251191
C           -0.47141137462679       -1.68739579691848        8.11077023721186
N            0.86082695602751       -1.70829655137749        8.30009948361408
C            1.59813110954797       -0.75647346728308        7.70903750235868
C            2.96451695167892       -0.63631616432127        8.02856370111262
C            3.77291135894889        0.33874403803364        7.45688679107150
C            3.21570146675753        1.20319569424301        6.52021641693514
C           -2.52799124150832       -0.62377064549931        7.32660561372451
C           -3.25449198713175       -1.54406052445766        8.06134914491255
C           -2.63838979739723       -2.56897666677238        8.78977616306877
C           -1.26297751871414       -2.60272839771839        8.83521150816656
O           -3.09787030812806        0.47836677228725        6.73207413401037
O           -2.46951865145273       -0.86787765589589        4.39897715147266
C           -2.20921540528311        3.58218237284343        2.31539068164722
C           -3.45733168450842       -3.58761337802585        9.58442066062307
C            5.24275509131279        0.50708934283076        7.85009165345250
C           -4.96517556403820       -3.45668390365529        9.32370504950120
C           -3.02461786584994       -5.00681882255701        9.18618791984071
C           -3.20034715883564       -3.36851980299650       11.08263477625227
C            6.12884738172507        0.44978461702455        6.59597822703439
C            5.41568485908078        1.87138322087738        8.53490787853698
C            5.71008652460219       -0.58878876430879        8.81728370454529
C           -2.82271852404507        4.63300601715934        3.25261447712203
C           -3.31354515731231        3.04538696461084        1.39835268812772
C           -1.13008187505060        4.24667407303026        1.44839774401985
H            0.22941060661210        3.52391132180392        3.55382040975089
H           -3.16622482762825        1.02080938719421        2.89014166804536
H            3.80946340908692        1.98751016584771        6.08157302495595
H            3.35408021229655       -1.32285174953647        8.75897666136549
H           -0.75180803587169       -3.31707419197535        9.45773655882539
H           -4.32406409497517       -1.45285763147635        8.08862006996119
C           -4.49607544728873        0.44924780193427        6.57347240026186
C           -1.66730622585973       -2.01286148485015        4.62509739303402
H           -0.43986799494573        4.83405819947249        2.04838704399607
H           -1.59001421126034        4.91589386772506        0.72322382248872
H           -0.55803295119557        3.49724325929683        0.91020302005387
H           -4.16730039186959        2.68953778890808        1.97069894819205
H           -2.94537066365405        2.22805427196705        0.78783576069270
H           -3.66870170352036        3.82669420339261        0.72913575888008
H           -3.59604061033697        4.18846152518275        3.87696451746665
H           -3.27059534684088        5.43779136779283        2.67168188647571
H           -2.06342641343491        5.06029289521804        3.90463702313902
H            5.89211962617525        1.25389171185212        5.90334029703682
H            5.99791794021490       -0.49952259347400        6.07940755073075
H            7.17855068436659        0.54413474884461        6.86969310873206
H            5.59293362791913       -1.57517753864237        8.37236241664500
H            5.15088019015114       -0.55222950121638        9.74990217252846
H            6.76324221813158       -0.45156133883143        9.05667652097149
H            5.14325637911396        2.68599714053675        7.86744931484880
H            6.45116294099272        2.01494542201528        8.83950969891504
H            4.78696254772016        1.93484954298232        9.42119904361669
H           -3.48918592829369       -2.36063942988433       11.37600136498258
H           -2.14858425733555       -3.50217191341171       11.32431856361847
H           -3.77806315142065       -4.07617718891098       11.67512550579860
H           -3.17454860552066       -5.16493933015200        8.11966309607513
H           -3.61058101664106       -5.74741783230177        9.72802343855123
H           -1.97511863071580       -5.17937979076698        9.41059656468380
H           -5.18874090815123       -3.57713982902888        8.26497568335799
H           -5.34151795225328       -2.49201793112669        9.65941801930583
H           -5.50668621803330       -4.22712347402441        9.86975929310923
H           -1.96519656141683       -2.77913949630419        3.91034928552117
H           -1.81126623071752       -2.40016568279803        5.63575652346416
H           -0.61273508326738       -1.78462420242775        4.46751059926457
H           -4.77141795783875        1.31270393724500        5.96785968700931
H           -5.00489104426054        0.51873456577561        7.53967378257685
H           -4.79504582777171       -0.46280042072134        6.04979573317823
152
 energy: -209.194758831331 gnorm: 0.010802090341 xtb: 6.7.1 (edcfbbe)
C           -3.07577411703167        1.88803181798393       -2.56218645872918
C           -2.87836250631409        0.75164848799070       -1.81195024379621
C           -1.86326869788767        0.72160754257003       -0.83564506283510
C           -0.86470735900897        1.74226767147165       -0.89178493276067
C           -1.08355493180834        2.87569033626739       -1.70815803038387
C           -2.21079609491771        2.99734191254913       -2.48119674912621
C           -1.72414919340725       -0.25366068577466        0.19376326750893
C           -0.45965081501511       -0.38114739475747        0.77673121567949
C            0.52360733947449        0.62369493592463        0.56779671236089
N            0.27243889043806        1.69337342748125       -0.18761902208062
C           -2.74412038620216       -1.11093870745506        0.70782919172379
C           -2.30822512746914       -2.30338868346224        1.36042820652565
N           -1.03547312031219       -2.51374528455843        1.71921787636872
C           -0.16072787270446       -1.51571558047629        1.57775163083340
C            1.10707390344966       -1.59341853877658        2.18941859227399
C            2.04146903583106       -0.56808056015347        2.07675660625699
C            1.75009569839915        0.51684763007029        1.25624486165418
C           -4.12634231186167       -0.83587388654202        0.68082275718923
C           -5.02681540982910       -1.79798699098390        1.08674449467850
C           -4.61240700768129       -3.04764043003682        1.56966591165850
C           -3.26526701433046       -3.28081317923187        1.71200338545681
O           -4.49365336707781        0.43073678533095        0.34646306332178
O           -3.67457417590270       -0.34426780814407       -2.08623113504233
C           -2.51405219496796        4.23848650515062       -3.30860424860244
C           -5.62588952667129       -4.09226532625666        2.01585390922721
C            3.37720205816005       -0.65435571620194        2.80637453535946
C           -7.07049084955491       -3.69249179131615        1.69791648973114
C           -5.33254448116328       -5.41819148525839        1.30367545181225
C           -5.49821356239092       -4.27465502705251        3.53449434289188
C            4.38519304753022       -1.36817446848971        1.89451748975718
C            3.91008329958922        0.74193097159389        3.14605806851762
C            3.24179854627103       -1.44480322983842        4.11376584278000
C           -3.90119795511072        4.77266821361802       -2.92598888615295
C           -2.49657213894894        3.87295815778610       -4.79918767442568
C           -1.49060173666624        5.35169023934017       -3.07194836140384
H           -0.32000367156882        3.63364292102969       -1.68927267199134
H           -3.90979973241724        1.89015984005781       -3.24780184780980
H            2.45149812430660        1.32215163790077        1.12014879638801
H            1.31075447563809       -2.47688877255579        2.77190102745975
H           -2.89872385970584       -4.19330658968216        2.15548881463642
H           -6.07649881998712       -1.57152532884522        1.05170922315675
C           -5.85906191911917        0.69241055730631        0.13546881689452
C           -2.95998254691809       -1.52005813137562       -2.41163039613071
H           -1.46157011351465        5.63476559579395       -2.02272419645164
H           -1.76348161945363        6.23011349060903       -3.65353101588839
H           -0.49663757671604        5.04087147975476       -3.38284929301639
H           -3.25347870133831        3.12994726264431       -5.03485978754609
H           -1.52452840090002        3.47231613206159       -5.07836366192295
H           -2.69051170694698        4.75789006052420       -5.40225055604147
H           -4.67975607862855        4.04354002650250       -3.13170311329402
H           -4.12284000845383        5.67444892488009       -3.49366954746870
H           -3.93246719435732        5.01747581544572       -1.86655880858059
H            4.51943051737167       -0.81747935530131        0.96621019969485
H            4.04222154387678       -2.37173587410202        1.65244297306188
H            5.34926819921640       -1.44378155632372        2.39415590831126
H            3.05513556712730       -2.49989605245041        3.93233204128880
H            2.43376729306854       -1.04587362077653        4.72084025329264
H            4.16134272738552       -1.37023810272311        4.68978226801873
H            4.20527193237277        1.28578552364997        2.25306783838843
H            4.79013273546397        0.65046128554651        3.77867278866327
H            3.15684913549248        1.31879048026175        3.67636987633720
H           -5.68381250316197       -3.33120361022231        4.04392662145242
H           -4.50262202258798       -4.61452506013758        3.80492359724237
H           -6.22073632386503       -5.00803135913125        3.88746424934148
H           -5.39254526554577       -5.28751365739857        0.22534648317319
H           -6.05901498580699       -6.17167851867858        1.60108344323050
H           -4.34101622640754       -5.78661244540324        1.54808205560868
H           -7.20225645634913       -3.51870419396887        0.63207295092653
H           -7.36441515523864       -2.80007139573189        2.24622771700053
H           -7.74352284765113       -4.49505946177465        1.99280784674927
H           -3.70686893838915       -2.28001469419829       -2.64131427904464
H           -2.33732572926603       -1.87845087317143       -1.58640887172791
H           -2.32321054845528       -1.35822996455614       -3.28931389143553
H           -5.91838909803805        1.72304693994588       -0.21715404862458
H           -6.43931944326067        0.60013135026436        1.06165756261471
H           -6.26599876612749        0.02037836396118       -0.62764629633613
C           -2.26613972878687        1.27713300183935        3.43672230886177