      -----------------------------------------------------------      
     |                   =====================                   |     
     |                           x T B                           |     
     |                   =====================                   |     
     |                         S. Grimme                         |     
     |          Mulliken Center for Theoretical Chemistry        |     
     |                    University of Bonn                     |     
      -----------------------------------------------------------      

   * xtb version 6.6.1 (8d0f1dd) compiled by 'runner@Mac-1690902418499.local' on 2023-08-01

   xtb is free software: you can redistribute it and/or modify it under
   the terms of the GNU Lesser General Public License as published by
   the Free Software Foundation, either version 3 of the License, or
   (at your option) any later version.
   
   xtb is distributed in the hope that it will be useful,
   but WITHOUT ANY WARRANTY; without even the implied warranty of
   MERCHANTABILITY or FITNESS FOR A PARTICULAR PURPOSE.  See the
   GNU Lesser General Public License for more details.
   
   Cite this work as:
   * C. Bannwarth, E. Caldeweyher, S. Ehlert, A. Hansen, P. Pracht,
     J. Seibert, S. Spicher, S. Grimme, WIREs Comput. Mol. Sci., 2020, 11,
     e01493. DOI: 10.1002/wcms.1493
   
   for GFN2-xTB:
   * C. Bannwarth, S. Ehlert and S. Grimme., J. Chem. Theory Comput., 2019,
     15, 1652-1671. DOI: 10.1021/acs.jctc.8b01176
   for GFN1-xTB:
   * S. Grimme, C. Bannwarth, P. Shushkov, J. Chem. Theory Comput., 2017,
     13, 1989-2009. DOI: 10.1021/acs.jctc.7b00118
   for GFN0-xTB:
   * P. Pracht, E. Caldeweyher, S. Ehlert, S. Grimme, ChemRxiv, 2019, preprint.
     DOI: 10.26434/chemrxiv.8326202.v1
   for GFN-FF:
   * S. Spicher and S. Grimme, Angew. Chem. Int. Ed., 2020, 59, 15665-15673.
     DOI: 10.1002/anie.202004239
   
   for ALPB and GBSA implicit solvation:
   * S. Ehlert, M. Stahn, S. Spicher, S. Grimme, J. Chem. Theory Comput.,
     2021, 17, 4250-4261. DOI: 10.1021/acs.jctc.1c00471
   
   for DFT-D4:
   * E. Caldeweyher, C. Bannwarth and S. Grimme, J. Chem. Phys., 2017,
     147, 034112. DOI: 10.1063/1.4993215
   * E. Caldeweyher, S. Ehlert, A. Hansen, H. Neugebauer, S. Spicher,
     C. Bannwarth and S. Grimme, J. Chem. Phys., 2019, 150, 154122.
     DOI: 10.1063/1.5090222
   * E. Caldeweyher, J.-M. Mewes, S. Ehlert and S. Grimme, Phys. Chem. Chem. Phys.
     2020, 22, 8499-8512. DOI: 10.1039/D0CP00502A
   
   for sTDA-xTB:
   * S. Grimme and C. Bannwarth, J. Chem. Phys., 2016, 145, 054103.
     DOI: 10.1063/1.4959605
   
   in the mass-spec context:
   * V. Asgeirsson, C. Bauer and S. Grimme, Chem. Sci., 2017, 8, 4879.
     DOI: 10.1039/c7sc00601b
   * J. Koopman and S. Grimme, ACS Omega 2019, 4, 12, 15120-15133.
     DOI: 10.1021/acsomega.9b02011
   
   for metadynamics refer to:
   * S. Grimme, J. Chem. Theory Comput., 2019, 155, 2847-2862
     DOI: 10.1021/acs.jctc.9b00143
   
   for SPH calculations refer to:
   * S. Spicher and S. Grimme, J. Chem. Theory Comput., 2021, 17, 1701-1714
     DOI: 10.1021/acs.jctc.0c01306
   
   with help from (in alphabetical order)
   P. Atkinson, C. Bannwarth, F. Bohle, G. Brandenburg, E. Caldeweyher
   M. Checinski, S. Dohm, S. Ehlert, S. Ehrlich, I. Gerasimov, C. Hölzer
   A. Katbashev, J. Koopman, C. Lavigne, S. Lehtola, F. März, M. Müller,
   F. Musil, H. Neugebauer, J. Pisarek, C. Plett, P. Pracht, F. Pultar,
   J. Seibert, P. Shushkov, S. Spicher, M. Stahn, M. Steiner, T. Strunk,
   J. Stückrath, T. Rose, and J. Unsleber
   
 * started run on 2025/03/14 at 12:40:12.102     

           -------------------------------------------------
          |                Calculation Setup                |
           -------------------------------------------------

          program call               : xtb scoord.19 --md --gfnff --input md_settings.inp
          coordinate file            : scoord.19
          omp threads                :                     8

   ID    Z sym.   atoms
    1    6 C      1-9, 11, 12, 14-21, 24, 25, 34, 35, 38, 41-43, 59-67, 69,
                  70, 72-79, 82, 83, 92, 93, 96, 99-101
    2    7 N      10, 13, 68, 71
    3    8 O      22, 23, 32, 33, 36, 37, 39, 40, 80, 81, 90, 91, 94, 95, 97,
                  98
    4    1 H      26-31, 44-58, 84-89, 102-116

molecular fragmentation (1/2 indicates fragments):
111111111111111111111111111111111111111111111111111111111122222222222222
22222222222222222222222222222222222222222222
# atoms in fragment 1/2:    58    58
 fragment masses (1/2) :      501.47      501.47
CMA distance (Bohr)    :   8.902
constraining FC (au)   :  0.0500

          ==================== Thresholds ====================
          CN  :   150.00000
          rep :   500.00000
          disp:  2500.00000
          HB1 :   250.00000
          HB2 :   450.00000

          Pauling EN used:
          Z : 1  EN :  2.20
          Z : 6  EN :  2.55
          Z : 7  EN :  3.04
          Z : 8  EN :  3.44
          electric field strengths (au): 0.000

           ------------------------------------------------- 
          |           Force Field Initialization            |
           ------------------------------------------------- 

          distances ...
          ----------------------------------------
          generating topology and atomic info file ...
          pair mat ...
          computing topology distances matrix with Floyd-Warshall algo ...
          making topology EEQ charges ...
          #fragments for EEQ constrain: 2
          ----------------------------------------
          generating topology and atomic info file ...
          pair mat ...
          computing topology distances matrix with Floyd-Warshall algo ...
          making topology EEQ charges ...
          rings ...
          # BATM   1140
          # H in HB   42
          doing iterative Hueckel for 2 subsystem(s) ...

  atom   neighbors  erfCN metchar sp-hybrid imet pi  qest     coordinates
    1  C       3    2.82   0.00         2    0    1  -0.013   -5.518103    2.103010   -0.689793
    2  C       3    2.83   0.00         2    0    1   0.104   -4.640833   -0.218494    0.253507
    3  C       3    2.81   0.00         2    0    1   0.014   -2.906083   -0.248612    2.197890
    4  C       3    2.86   0.00         2    0    1   0.068   -1.572981    2.095008    2.998313
    5  C       3    2.81   0.00         2    0    1  -0.010   -2.559530    4.350432    2.161224
    6  C       3    2.84   0.00         2    0    1   0.024   -4.559315    4.244956    0.510590
    7  C       3    2.83   0.00         2    0    1   0.003   -2.092282   -2.493164    3.498936
    8  C       3    2.84   0.00         2    0    1   0.018    0.568118   -2.532232    4.395135
    9  C       3    2.86   0.00         2    0    1   0.069    1.817469   -0.124303    4.708567
   10  N       2    1.95   0.00         2    0    1  -0.182    0.677557    2.191144    4.293821
   11  C       3    2.83   0.00         2    0    1   0.014   -3.441723   -4.669732    3.908299
   12  C       3    2.94   0.00         2    0    1   0.068   -1.968336   -6.886201    4.326428
   13  N       2    1.99   0.00         2    0    1  -0.182    0.535475   -7.181239    4.502027
   14  C       3    2.90   0.00         2    0    1   0.069    1.708751   -4.900971    4.721865
   15  C       3    2.83   0.00         2    0    1  -0.009    4.184299   -4.749831    5.696756
   16  C       3    2.82   0.00         2    0    1   0.024    5.380769   -2.393178    5.981018
   17  C       3    2.82   0.00         2    0    1  -0.009    4.238961   -0.134560    5.653189
   18  C       3    2.87   0.00         2    0    1   0.104   -6.162795   -4.961395    3.459691
   19  C       3    2.84   0.00         2    0    1  -0.013   -7.131102   -7.290228    3.415984
   20  C       3    2.85   0.00         2    0    1   0.024   -5.662498   -9.310973    3.953437
   21  C       3    2.88   0.00         2    0    1  -0.010   -3.194924   -9.134609    4.368912
   22  O       2    1.92   0.00         3    0    1  -0.326   -7.836909   -2.859960    3.175094
   23  O       2    1.91   0.00         3    0    1  -0.326   -5.531118   -2.421873   -0.744899
   24  C       3    2.96   0.00         2    0    1   0.224   -5.798664    6.567289   -0.316976
   25  C       3    2.85   0.00         2    0    1   0.224   -6.972180  -11.782468    3.542027
   26  H       1    0.97   0.01         0    0    0   0.083   -1.976671    6.118574    3.147148
   27  H       1    0.98   0.00         0    0    0   0.084   -6.862132    2.456056   -2.142283
   28  H       1    0.98   0.00         0    0    0   0.084    5.132473    1.455745    6.236590
   29  H       1    0.97   0.00         0    0    0   0.084    5.158917   -6.472066    6.223455
   30  H       1    0.98   0.00         0    0    0   0.083   -2.159521  -10.826375    4.536917
   31  H       1    0.98   0.00         0    0    0   0.084   -9.031258   -7.358016    2.918249
   32  O       1    0.98   0.00         2    0    1  -0.364   -8.092453    6.459839   -0.839408
   33  O       2    1.92   0.00         3    0    1  -0.315   -4.492212    8.736034   -0.348384
   34  C       4    3.59   0.00         3    0    0   0.037   -6.264413   10.622207   -0.707609
   35  C       3    2.86   0.00         2    0    1   0.223    8.147949   -2.442763    6.806234
   36  O       1    0.98   0.00         2    0    1  -0.365    9.186361   -0.446781    7.424709
   37  O       2    1.91   0.00         3    0    1  -0.315    9.467907   -4.712157    6.634264
   38  C       4    3.52   0.00         3    0    0   0.039   11.966997   -4.198877    7.542290
   39  O       1    0.98   0.00         2    0    1  -0.364   -7.864824  -12.875249    5.305172
   40  O       2    1.91   0.00         3    0    1  -0.315   -7.331074  -12.652648    1.115012
   41  C       4    3.52   0.00         3    0    0   0.037   -7.949490  -15.302112    1.165807
   42  C       4    3.53   0.00         3    0    0   0.033  -10.129693   -3.394804    4.244268
   43  C       4    3.49   0.00         3    0    0   0.033   -7.788618   -2.205777   -2.331643
   44  H       1    0.98   0.00         0    0    0   0.079   -6.333195  -16.268726    1.794581
   45  H       1    0.97   0.00         0    0    0   0.079   -8.650982  -15.650206   -0.717872
   46  H       1    0.98   0.00         0    0    0   0.079   -9.405400  -15.363943    2.553058
   47  H       1    0.98   0.00         0    0    0   0.078   12.732095   -6.023800    7.494534
   48  H       1    0.97   0.01         0    0    0   0.078   11.959395   -3.464585    9.495561
   49  H       1    0.95   0.02         0    0    0   0.078   13.090218   -2.868370    6.138200
   50  H       1    0.98   0.00         0    0    0   0.076   -8.115730   -4.083298   -3.002669
   51  H       1    0.96   0.01         0    0    0   0.076   -7.440448   -0.851127   -3.958857
   52  H       1    0.98   0.00         0    0    0   0.076   -9.288246   -1.621183   -1.172387
   53  H       1    0.98   0.00         0    0    0   0.076   -9.549763   -3.953287    6.025534
   54  H       1    0.98   0.00         0    0    0   0.076  -11.368339   -4.758932    3.549504
   55  H       1    0.98   0.00         0    0    0   0.076  -11.182271   -1.664745    4.368369
   56  H       1    0.97   0.00         0    0    0   0.079   -5.724814   12.462601   -0.015806
   57  H       1    0.97   0.00         0    0    0   0.079   -7.741061   10.267059    0.660994
   58  H       1    0.97   0.00         0    0    0   0.079   -7.038265   10.370534   -2.611692
   59  C       3    2.79   0.00         2    0    1  -0.013   -5.590958    8.205644    6.266808
   60  C       3    2.83   0.00         2    0    1   0.104   -4.834069    5.780294    7.197278
   61  C       3    2.82   0.00         2    0    1   0.014   -2.568673    5.572169    8.739387
   62  C       3    2.87   0.00         2    0    1   0.068   -0.845661    7.497929    8.889232
   63  C       3    2.82   0.00         2    0    1  -0.010   -1.581784    9.962377    7.986106
   64  C       3    2.80   0.00         2    0    1   0.024   -3.989420   10.301041    6.817680
   65  C       3    2.87   0.00         2    0    1   0.003   -1.745375    3.204644    9.847363
   66  C       3    2.85   0.00         2    0    1   0.018    0.834665    2.843669   10.318496
   67  C       3    2.88   0.00         2    0    1   0.069    2.347787    5.048407   10.409316
   68  N       2    1.96   0.00         2    0    1  -0.182    1.545919    7.369656    9.849998
   69  C       3    2.84   0.00         2    0    1   0.014   -3.529137    1.382356   10.243810
   70  C       3    2.87   0.00         2    0    1   0.068   -2.474716   -1.082487   10.583119
   71  N       2    1.96   0.00         2    0    1  -0.182   -0.045015   -1.489242   11.098664
   72  C       3    2.84   0.00         2    0    1   0.069    1.632709    0.457750   11.243048
   73  C       3    2.82   0.00         2    0    1  -0.009    4.117991    0.278584   11.922289
   74  C       3    2.82   0.00         2    0    1   0.024    5.721069    2.389224   11.776706
   75  C       3    2.84   0.00         2    0    1  -0.009    4.830564    4.791924   11.183237
   76  C       3    2.82   0.00         2    0    1   0.104   -6.245984    1.697943   10.668929
   77  C       3    2.83   0.00         2    0    1  -0.013   -7.561491   -0.515785   10.152146
   78  C       3    2.81   0.00         2    0    1   0.024   -6.572929   -2.927950   10.298879
   79  C       3    2.85   0.00         2    0    1  -0.010   -4.035477   -3.178841   10.624566
   80  O       2    1.91   0.00         3    0    1  -0.326   -7.640192    3.756877   11.648092
   81  O       2    1.92   0.00         3    0    1  -0.326   -5.988950    3.564669    6.412799
   82  C       3    2.84   0.00         2    0    1   0.224   -4.385792   12.946395    5.637446
   83  C       3    2.85   0.00         2    0    1   0.224   -8.187852   -5.319814   10.401173
   84  H       1    0.98   0.00         0    0    0   0.083   -0.057645   11.199050    7.748119
   85  H       1    0.96   0.01         0    0    0   0.084   -7.254120    8.511073    4.947319
   86  H       1    0.98   0.00         0    0    0   0.084    6.157579    6.284121   11.404384
   87  H       1    0.97   0.00         0    0    0   0.084    4.778051   -1.514890   12.632057
   88  H       1    0.98   0.00         0    0    0   0.083   -3.116238   -4.907842   10.842144
   89  H       1    0.97   0.01         0    0    0   0.084   -9.621256   -0.392169   10.497576
   90  O       1    0.98   0.00         2    0    1  -0.364   -5.808221   13.224662    3.960382
   91  O       2    1.91   0.00         3    0    1  -0.315   -2.786206   14.686523    6.563750
   92  C       4    3.50   0.00         3    0    0   0.037   -3.171348   17.090320    5.342051
   93  C       3    2.84   0.00         2    0    1   0.223    8.272831    2.217513   12.691358
   94  O       1    0.99   0.00         2    0    1  -0.365    8.855589    0.579400   14.091057
   95  O       2    1.92   0.00         3    0    1  -0.315    9.926266    4.114509   11.855111
   96  C       4    3.51   0.00         3    0    0   0.039   12.362230    3.795542   12.611494
   97  O       1    0.98   0.00         2    0    1  -0.364  -10.381547   -5.134611    9.947537
   98  O       2    1.92   0.00         3    0    1  -0.315   -6.819398   -7.453267   11.039615
   99  C       4    3.53   0.00         3    0    0   0.037   -8.526341   -9.479390   11.371458
  100  C       4    3.51   0.00         3    0    0   0.033   -6.425577    4.975076   13.639990
  101  C       4    3.51   0.00         3    0    0   0.033   -8.260886    3.976958    5.097467
  102  H       1    0.97   0.00         0    0    0   0.079   -9.915876   -9.298482    9.882361
  103  H       1    0.97   0.01         0    0    0   0.079   -9.412114   -9.247946   13.233674
  104  H       1    0.97   0.00         0    0    0   0.079   -7.411342  -11.203147   11.486062
  105  H       1    0.98   0.00         0    0    0   0.078   13.556881    5.316755   12.092478
  106  H       1    0.98   0.00         0    0    0   0.078   12.805627    1.977225   11.819822
  107  H       1    0.96   0.01         0    0    0   0.078   12.510086    3.835141   14.786773
  108  H       1    0.98   0.00         0    0    0   0.076   -9.764102    4.870296    6.098058
  109  H       1    0.97   0.01         0    0    0   0.076   -9.203787    2.130552    4.886717
  110  H       1    0.98   0.00         0    0    0   0.076   -7.958707    4.695696    3.255125
  111  H       1    0.97   0.01         0    0    0   0.076   -6.136685    3.403886   14.966597
  112  H       1    0.98   0.00         0    0    0   0.076   -7.753367    6.232725   14.464591
  113  H       1    0.98   0.00         0    0    0   0.076   -4.567149    5.546616   13.071248
  114  H       1    0.95   0.02         0    0    0   0.079   -2.852660   16.635903    3.178063
  115  H       1    0.97   0.01         0    0    0   0.079   -1.981421   18.538809    6.286029
  116  H       1    0.97   0.00         0    0    0   0.079   -5.183137   17.466891    5.547307

          #atoms :   116
          #bonds :   124
          #angl  :   206
          #tors  :   302
          #nmol  :   2
          #optfrag :   2
           ------------------------------------------------- 
          |                   G F N - F F                   |
          |          A general generic force-field          |
          |                  Version 1.0.3                  | 
           ------------------------------------------------- 
          Number of HB bonds (bound hydrogen)     18905
          Number of HB bonds (unbound hydrogen)   511
          Number of XB bonds                      0

 E+G (total)                   0 d,  0 h,  0 min,  0.002 sec
 distance/D3 list               ...        0 min,  0.000 sec (  0.445%)
 non bonded repulsion           ...        0 min,  0.000 sec (  4.424%)
 dCN                            ...        0 min,  0.000 sec (  4.840%)
 EEQ energy and q               ...        0 min,  0.000 sec (  9.331%)
 D3                             ...        0 min,  0.000 sec ( 15.952%)
 EEQ gradient                   ...        0 min,  0.000 sec (  3.039%)
 bonds                          ...        0 min,  0.000 sec (  5.237%)
 bend and torsion               ...        0 min,  0.000 sec (  3.610%)
 bonded ATM                     ...        0 min,  0.000 sec (  2.062%)
 HB/XB (incl list setup)        ...        0 min,  0.001 sec ( 50.634%)

         :::::::::::::::::::::::::::::::::::::::::::::::::::::
         ::                     SUMMARY                     ::
         :::::::::::::::::::::::::::::::::::::::::::::::::::::
         :: total energy             -22.901508507702 Eh    ::
         :: gradient norm              0.380743967041 Eh/a0 ::
         ::.................................................::
         :: bond energy              -23.642231384705 Eh    ::
         :: angle energy               0.101114158405 Eh    ::
         :: torsion energy             0.067801657193 Eh    ::
         :: repulsion energy           1.720459909491 Eh    ::
         :: electrostat energy        -0.954899296017 Eh    ::
         :: dispersion energy         -0.155798913858 Eh    ::
         :: HB energy                 -0.007840460524 Eh    ::
         :: XB energy                  0.000000000000 Eh    ::
         :: bonded atm energy         -0.030114177687 Eh    ::
         :: external energy            0.000000000000 Eh    ::
         :: add. restraining           0.000000000000 Eh    ::
         :: total charge               0.000000000000 e     ::
         :::::::::::::::::::::::::::::::::::::::::::::::::::::

           -------------------------------------------------
          |                Property Printout                |
           -------------------------------------------------

           -------------------------------------------------
          | TOTAL ENERGY              -22.901508507702 Eh   |
          | GRADIENT NORM               0.380743967041 Eh/α |
           -------------------------------------------------
           ------------------------------------------------- 
          |               Molecular Dynamics                |
           ------------------------------------------------- 
 trajectories on xtb.trj or xtb.trj.<n>

 MD time /ps        :   20.00
 dt /fs             :    2.00
 SCC accuracy       :    2.00
 temperature /K     :  450.00
 max steps          : 10000
 block length (av.) :  2500
 dumpstep(trj) /fs  :  500.00   250
 dumpstep(coords)/fs: 1000.00   500
 H atoms mass (amu) :     4
 # deg. of freedom  :   348
 SHAKE off
 Berendsen THERMOSTAT on
         time (ps)    <Epot>      Ekin   <T>   T     Etot
      0    0.00      0.00000   0.5173    0.    0.   -22.38421
est. speed in wall clock h for 100 ps :  0.02
    200    0.40    -22.65434   0.3176  622.  576.   -22.47330
    400    0.80    -22.72550   0.2993  593.  543.   -22.49443
    600    1.20    -22.75627   0.2869  571.  521.   -22.54624
    800    1.60    -22.77473   0.2567  552.  466.   -22.57164
   1000    2.00    -22.78506   0.2779  535.  504.   -22.57640
   1200    2.40    -22.79396   0.2610  525.  474.   -22.58463
   1400    2.80    -22.80077   0.2564  516.  465.   -22.58385
   1600    3.20    -22.80584   0.2529  508.  459.   -22.58011
   1800    3.60    -22.81042   0.2697  503.  489.   -22.58983
   2000    4.00    -22.81375   0.2476  498.  449.   -22.60101
   2200    4.40    -22.81730   0.2421  494.  439.   -22.59240
   2400    4.80    -22.82041   0.2621  491.  476.   -22.59143
block <Epot> / <T> :     -22.83078  490.     drift:  0.99D+02   Tbath : 450.
   2600    5.20    -22.82254   0.2409  488.  437.   -22.59822
   2800    5.60    -22.82403   0.2512  484.  456.   -22.59884
   3000    6.00    -22.82555   0.2358  482.  428.   -22.61150
   3200    6.40    -22.82652   0.2395  480.  435.   -22.59548
   3400    6.80    -22.82737   0.2445  478.  444.   -22.60512
   3600    7.20    -22.82821   0.2552  476.  463.   -22.59414
   3800    7.60    -22.82918   0.2295  475.  416.   -22.60052
   4000    8.00    -22.82985   0.2537  474.  460.   -22.59923
   4200    8.40    -22.83054   0.2501  473.  454.   -22.59828
   4400    8.80    -22.83109   0.2329  472.  423.   -22.60774
   4600    9.20    -22.83145   0.2131  470.  387.   -22.60185
   4800    9.60    -22.83154   0.2550  469.  463.   -22.59422
   5000   10.00    -22.83190   0.2740  469.  497.   -22.57525
block <Epot> / <T> :     -22.84214  448.     drift:  0.99D+02   Tbath : 450.
   5200   10.40    -22.83234   0.2461  468.  447.   -22.58893
   5400   10.80    -22.83285   0.2620  468.  475.   -22.59807
   5600   11.20    -22.83328   0.2657  467.  482.   -22.60903
   5800   11.60    -22.83391   0.2479  467.  450.   -22.60520
   6000   12.00    -22.83438   0.2263  466.  411.   -22.60198
   6200   12.40    -22.83438   0.2510  465.  456.   -22.60290
   6400   12.80    -22.83463   0.2849  465.  517.   -22.58132
   6600   13.20    -22.83483   0.2596  464.  471.   -22.60044
   6800   13.60    -22.83503   0.2511  464.  456.   -22.59912
   7000   14.00    -22.83499   0.2522  463.  458.   -22.59315
   7200   14.40    -22.83504   0.2536  463.  460.   -22.59609
   7400   14.80    -22.83541   0.2521  463.  458.   -22.60125
block <Epot> / <T> :     -22.84239  450.     drift:  0.99D+02   Tbath : 450.
   7600   15.20    -22.83541   0.2601  462.  472.   -22.57342
   7800   15.60    -22.83571   0.2363  462.  429.   -22.58757
   8000   16.00    -22.83589   0.2632  462.  478.   -22.59034
   8200   16.40    -22.83614   0.2640  462.  479.   -22.57146
   8400   16.80    -22.83635   0.2379  461.  432.   -22.60364
   8600   17.20    -22.83648   0.2395  461.  435.   -22.60550
   8800   17.60    -22.83666   0.2147  461.  390.   -22.59740
   9000   18.00    -22.83691   0.2714  461.  493.   -22.59562
   9200   18.40    -22.83716   0.2661  461.  483.   -22.59818
   9400   18.80    -22.83739   0.2661  460.  483.   -22.59182
   9600   19.20    -22.83758   0.2442  460.  443.   -22.60215
   9800   19.60    -22.83775   0.2771  460.  503.   -22.59390
 average properties 
 Epot               :  -22.837962646503644     
 Epot (accurate SCC):  -22.840399056425699     
 Ekin               :  0.25330918772998745     
 Etot               :  -22.584653458773658     
 T                  :   459.70569214243653     
 thermostating problem
 normal exit of md()
########################################################################
[WARNING] Runtime exception occurred
-1- gfnff_setup: Could not read topology file.
########################################################################
Note: The following floating-point exceptions are signalling: IEEE_UNDERFLOW_FLAG
normal termination of xtb

------------------------------------------------------------------------
 * finished run on 2025/03/14 at 12:40:28.057     
------------------------------------------------------------------------
 total:
 * wall-time:     0 d,  0 h,  0 min, 15.955 sec
 *  cpu-time:     0 d,  0 h,  0 min, 31.659 sec
 * ratio c/w:     1.984 speedup
 SCF:
 * wall-time:     0 d,  0 h,  0 min,  0.003 sec
 *  cpu-time:     0 d,  0 h,  0 min,  0.005 sec
 * ratio c/w:     1.753 speedup
 MD:
 * wall-time:     0 d,  0 h,  0 min, 15.938 sec
 *  cpu-time:     0 d,  0 h,  0 min, 31.643 sec
 * ratio c/w:     1.985 speedup

