      -----------------------------------------------------------      
     |                   =====================                   |     
     |                           x T B                           |     
     |                   =====================                   |     
     |                         S. Grimme                         |     
     |          Mulliken Center for Theoretical Chemistry        |     
     |                    University of Bonn                     |     
      -----------------------------------------------------------      

   * xtb version 6.6.1 (8d0f1dd) compiled by 'runner@Mac-1690902418499.local' on 2023-08-01

   xtb is free software: you can redistribute it and/or modify it under
   the terms of the GNU Lesser General Public License as published by
   the Free Software Foundation, either version 3 of the License, or
   (at your option) any later version.
   
   xtb is distributed in the hope that it will be useful,
   but WITHOUT ANY WARRANTY; without even the implied warranty of
   MERCHANTABILITY or FITNESS FOR A PARTICULAR PURPOSE.  See the
   GNU Lesser General Public License for more details.
   
   Cite this work as:
   * C. Bannwarth, E. Caldeweyher, S. Ehlert, A. Hansen, P. Pracht,
     J. Seibert, S. Spicher, S. Grimme, WIREs Comput. Mol. Sci., 2020, 11,
     e01493. DOI: 10.1002/wcms.1493
   
   for GFN2-xTB:
   * C. Bannwarth, S. Ehlert and S. Grimme., J. Chem. Theory Comput., 2019,
     15, 1652-1671. DOI: 10.1021/acs.jctc.8b01176
   for GFN1-xTB:
   * S. Grimme, C. Bannwarth, P. Shushkov, J. Chem. Theory Comput., 2017,
     13, 1989-2009. DOI: 10.1021/acs.jctc.7b00118
   for GFN0-xTB:
   * P. Pracht, E. Caldeweyher, S. Ehlert, S. Grimme, ChemRxiv, 2019, preprint.
     DOI: 10.26434/chemrxiv.8326202.v1
   for GFN-FF:
   * S. Spicher and S. Grimme, Angew. Chem. Int. Ed., 2020, 59, 15665-15673.
     DOI: 10.1002/anie.202004239
   
   for ALPB and GBSA implicit solvation:
   * S. Ehlert, M. Stahn, S. Spicher, S. Grimme, J. Chem. Theory Comput.,
     2021, 17, 4250-4261. DOI: 10.1021/acs.jctc.1c00471
   
   for DFT-D4:
   * E. Caldeweyher, C. Bannwarth and S. Grimme, J. Chem. Phys., 2017,
     147, 034112. DOI: 10.1063/1.4993215
   * E. Caldeweyher, S. Ehlert, A. Hansen, H. Neugebauer, S. Spicher,
     C. Bannwarth and S. Grimme, J. Chem. Phys., 2019, 150, 154122.
     DOI: 10.1063/1.5090222
   * E. Caldeweyher, J.-M. Mewes, S. Ehlert and S. Grimme, Phys. Chem. Chem. Phys.
     2020, 22, 8499-8512. DOI: 10.1039/D0CP00502A
   
   for sTDA-xTB:
   * S. Grimme and C. Bannwarth, J. Chem. Phys., 2016, 145, 054103.
     DOI: 10.1063/1.4959605
   
   in the mass-spec context:
   * V. Asgeirsson, C. Bauer and S. Grimme, Chem. Sci., 2017, 8, 4879.
     DOI: 10.1039/c7sc00601b
   * J. Koopman and S. Grimme, ACS Omega 2019, 4, 12, 15120-15133.
     DOI: 10.1021/acsomega.9b02011
   
   for metadynamics refer to:
   * S. Grimme, J. Chem. Theory Comput., 2019, 155, 2847-2862
     DOI: 10.1021/acs.jctc.9b00143
   
   for SPH calculations refer to:
   * S. Spicher and S. Grimme, J. Chem. Theory Comput., 2021, 17, 1701-1714
     DOI: 10.1021/acs.jctc.0c01306
   
   with help from (in alphabetical order)
   P. Atkinson, C. Bannwarth, F. Bohle, G. Brandenburg, E. Caldeweyher
   M. Checinski, S. Dohm, S. Ehlert, S. Ehrlich, I. Gerasimov, C. Hölzer
   A. Katbashev, J. Koopman, C. Lavigne, S. Lehtola, F. März, M. Müller,
   F. Musil, H. Neugebauer, J. Pisarek, C. Plett, P. Pracht, F. Pultar,
   J. Seibert, P. Shushkov, S. Spicher, M. Stahn, M. Steiner, T. Strunk,
   J. Stückrath, T. Rose, and J. Unsleber
   
 * started run on 2025/03/14 at 12:44:07.854     

           -------------------------------------------------
          |                Calculation Setup                |
           -------------------------------------------------

          program call               : xtb scoord.19 --md --gfnff --input md_settings.inp
          coordinate file            : scoord.19
          omp threads                :                     8

   ID    Z sym.   atoms
    1    6 C      1-9, 11, 12, 14-21, 24, 25, 34, 35, 38, 41-43, 59-67, 69,
                  70, 72-79, 82, 83, 92, 93, 96, 99-101
    2    7 N      10, 13, 68, 71
    3    8 O      22, 23, 32, 33, 36, 37, 39, 40, 80, 81, 90, 91, 94, 95, 97,
                  98
    4    1 H      26-31, 44-58, 84-89, 102-116

molecular fragmentation (1/2 indicates fragments):
111111111111111111111111111111111111111111111111111111111122222222222222
22222222222222222222222222222222222222222222
# atoms in fragment 1/2:    58    58
 fragment masses (1/2) :      501.47      501.47
CMA distance (Bohr)    :   8.333
constraining FC (au)   :  0.0500
          GFN-FF topology read from file successfully!
           ------------------------------------------------- 
          |                   G F N - F F                   |
          |          A general generic force-field          |
          |                  Version 1.0.3                  | 
           ------------------------------------------------- 
          Number of HB bonds (bound hydrogen)     18253
          Number of HB bonds (unbound hydrogen)   517
          Number of XB bonds                      0

 E+G (total)                   0 d,  0 h,  0 min,  0.002 sec
 distance/D3 list               ...        0 min,  0.000 sec (  0.972%)
 non bonded repulsion           ...        0 min,  0.000 sec (  4.288%)
 dCN                            ...        0 min,  0.000 sec (  6.351%)
 EEQ energy and q               ...        0 min,  0.000 sec ( 10.970%)
 D3                             ...        0 min,  0.000 sec ( 16.750%)
 EEQ gradient                   ...        0 min,  0.000 sec (  2.725%)
 bonds                          ...        0 min,  0.000 sec (  5.380%)
 bend and torsion               ...        0 min,  0.000 sec (  3.566%)
 bonded ATM                     ...        0 min,  0.000 sec (  2.314%)
 HB/XB (incl list setup)        ...        0 min,  0.001 sec ( 46.203%)

         :::::::::::::::::::::::::::::::::::::::::::::::::::::
         ::                     SUMMARY                     ::
         :::::::::::::::::::::::::::::::::::::::::::::::::::::
         :: total energy             -22.734044616298 Eh    ::
         :: gradient norm              0.444401377710 Eh/a0 ::
         ::.................................................::
         :: bond energy              -23.454746987628 Eh    ::
         :: angle energy               0.146124889508 Eh    ::
         :: torsion energy             0.116753080613 Eh    ::
         :: repulsion energy           1.591397842189 Eh    ::
         :: electrostat energy        -0.943266948966 Eh    ::
         :: dispersion energy         -0.152639913432 Eh    ::
         :: HB energy                 -0.005536470094 Eh    ::
         :: XB energy                  0.000000000000 Eh    ::
         :: bonded atm energy         -0.032130108487 Eh    ::
         :: external energy            0.000000000000 Eh    ::
         :: add. restraining           0.000000000000 Eh    ::
         :: total charge               0.000000000000 e     ::
         :::::::::::::::::::::::::::::::::::::::::::::::::::::

           -------------------------------------------------
          |                Property Printout                |
           -------------------------------------------------

           -------------------------------------------------
          | TOTAL ENERGY              -22.734044616298 Eh   |
          | GRADIENT NORM               0.444401377710 Eh/α |
           -------------------------------------------------
           ------------------------------------------------- 
          |               Molecular Dynamics                |
           ------------------------------------------------- 
 trajectories on xtb.trj or xtb.trj.<n>

 MD time /ps        :   20.00
 dt /fs             :    2.00
 SCC accuracy       :    2.00
 temperature /K     :  635.00
 max steps          : 10000
 block length (av.) :  2500
 dumpstep(trj) /fs  :  500.00   250
 dumpstep(coords)/fs: 1000.00   500
 H atoms mass (amu) :     4
 # deg. of freedom  :   348
 SHAKE off
 Berendsen THERMOSTAT on
         time (ps)    <Epot>      Ekin   <T>   T     Etot
      0    0.00      0.00000   0.7300    0.    0.   -22.00408
est. speed in wall clock h for 100 ps :  0.02
    200    0.40    -22.46927   0.4938  931.  896.   -22.12988
    400    0.80    -22.54534   0.4248  874.  771.   -22.22853
    600    1.20    -22.58089   0.3951  834.  717.   -22.26002
    800    1.60    -22.60940   0.3867  810.  702.   -22.27484
   1000    2.00    -22.62625   0.3718  784.  675.   -22.33688
   1200    2.40    -22.64047   0.4029  766.  731.   -22.32654
   1400    2.80    -22.65045   0.3742  750.  679.   -22.37560
   1600    3.20    -22.65900   0.3352  738.  608.   -22.37130
   1800    3.60    -22.66506   0.3282  726.  596.   -22.36936
   2000    4.00    -22.67064   0.3551  718.  644.   -22.39508
   2200    4.40    -22.67554   0.3678  711.  667.   -22.37457
   2400    4.80    -22.67972   0.3248  706.  590.   -22.36260
block <Epot> / <T> :     -22.69031  702.     drift:  0.99D+02   Tbath : 635.
   2600    5.20    -22.68282   0.3383  700.  614.   -22.40351
   2800    5.60    -22.68522   0.3736  695.  678.   -22.37569
   3000    6.00    -22.68795   0.3379  692.  613.   -22.35976
   3200    6.40    -22.69004   0.3385  688.  614.   -22.37266
   3400    6.80    -22.69197   0.3372  685.  612.   -22.36911
   3600    7.20    -22.69375   0.3434  682.  623.   -22.37900
   3800    7.60    -22.69515   0.3586  679.  651.   -22.36944
   4000    8.00    -22.69606   0.3650  677.  662.   -22.36493
   4200    8.40    -22.69723   0.2838  675.  515.   -22.39753
   4400    8.80    -22.69832   0.2928  673.  531.   -22.39877
   4600    9.20    -22.69929   0.3541  672.  643.   -22.38268
   4800    9.60    -22.70028   0.3741  670.  679.   -22.36239
   5000   10.00    -22.70144   0.3450  669.  626.   -22.35239
block <Epot> / <T> :     -22.72164  636.     drift:  0.99D+02   Tbath : 635.
   5200   10.40    -22.70239   0.3592  668.  652.   -22.36364
   5400   10.80    -22.70331   0.3373  667.  612.   -22.37952
   5600   11.20    -22.70436   0.3355  666.  609.   -22.38238
   5800   11.60    -22.70527   0.3529  665.  640.   -22.39327
   6000   12.00    -22.70610   0.3393  664.  616.   -22.38062
   6200   12.40    -22.70687   0.3348  663.  608.   -22.40118
   6400   12.80    -22.70765   0.3573  662.  648.   -22.39748
   6600   13.20    -22.70839   0.3550  661.  644.   -22.39230
   6800   13.60    -22.70917   0.3487  661.  633.   -22.38375
   7000   14.00    -22.70988   0.3470  660.  630.   -22.38982
   7200   14.40    -22.71036   0.3443  659.  625.   -22.38949
   7400   14.80    -22.71091   0.3908  658.  709.   -22.38280
block <Epot> / <T> :     -22.73095  636.     drift:  0.99D+02   Tbath : 635.
   7600   15.20    -22.71146   0.3412  658.  619.   -22.38115
   7800   15.60    -22.71198   0.3460  657.  628.   -22.37746
   8000   16.00    -22.71258   0.3335  657.  605.   -22.39269
   8200   16.40    -22.71307   0.3687  656.  669.   -22.38453
   8400   16.80    -22.71339   0.3463  655.  628.   -22.38129
   8600   17.20    -22.71358   0.3551  655.  644.   -22.39134
   8800   17.60    -22.71403   0.3675  655.  667.   -22.38461
   9000   18.00    -22.71446   0.3457  654.  627.   -22.38252
   9200   18.40    -22.71479   0.3320  654.  602.   -22.38257
   9400   18.80    -22.71504   0.3575  653.  649.   -22.34940
   9600   19.20    -22.71540   0.3476  653.  631.   -22.37372
   9800   19.60    -22.71570   0.3283  653.  596.   -22.39431
 average properties 
 Epot               :  -22.715991694877701     
 Epot (accurate SCC):  -22.716738283912029     
 Ekin               :  0.35940114693233122     
 Etot               :  -22.356590547945370     
 T                  :   652.24145435824312     
 thermostating problem
 normal exit of md()

------------------------------------------------------------------------
 * finished run on 2025/03/14 at 12:44:23.732     
------------------------------------------------------------------------
 total:
 * wall-time:     0 d,  0 h,  0 min, 15.878 sec
 *  cpu-time:     0 d,  0 h,  0 min, 30.802 sec
 * ratio c/w:     1.940 speedup
 SCF:
 * wall-time:     0 d,  0 h,  0 min,  0.003 sec
 *  cpu-time:     0 d,  0 h,  0 min,  0.006 sec
Note: The following floating-point exceptions are signalling: IEEE_UNDERFLOW_FLAG
normal termination of xtb
 * ratio c/w:     1.767 speedup
 MD:
 * wall-time:     0 d,  0 h,  0 min, 15.868 sec
 *  cpu-time:     0 d,  0 h,  0 min, 30.792 sec
 * ratio c/w:     1.940 speedup

