116
 energy: -22.734044616298 gnorm: 0.444401377710 xtb: 6.6.1 (8d0f1dd)
C           -3.55884993394706        3.26022150958058        1.63945926316356
C           -2.20895787586576        3.04530738787248        1.24240735846190
C           -1.37437666421092        2.51675289914372        2.31364882477530
C           -1.94371413332871        2.52500408672546        3.65490398505169
C           -3.28869726816025        2.92460933992048        3.94856138295672
C           -4.07409816089554        3.39308413318400        2.92659675260549
C           -0.07816132926347        2.02158227841344        2.12462004901615
C            0.84172355827548        2.12182985464731        3.14254508420894
C            0.37061646995572        2.69037242497144        4.29808575035110
N           -1.00942709870832        2.41379845752365        4.69420733362278
C            0.48105993659165        1.36859299562314        0.97058815417794
C            1.85543970341331        0.93364611694132        0.93447066672381
N            2.80334680192009        1.27203393504047        1.88533296949055
C            2.28877314090569        1.86566685418938        2.95266618138055
C            3.17224279741878        2.04326410503264        4.09751036186555
C            2.71698403412466        2.61059980181850        5.28020324497749
C            1.34235190469757        2.91180295122612        5.37805782095663
C           -0.36176476587803        0.89170663867501       -0.12142591539002
C            0.14584379371181        0.04852542062667       -1.10849482347780
C            1.46367011203911       -0.43621656002340       -1.17808088878717
C            2.33853514958400        0.05524345884847       -0.18341602769677
O           -1.84255671162799        0.90081371309382        0.14936119301330
O           -1.64126173193315        3.47490787084686        0.00570163823095
C           -5.42659878478439        3.98433655211097        3.31714950018889
C            1.93599727262829       -1.55998740876881       -2.05379715352474
H           -3.73132478165927        2.88767592353077        4.89902770002033
H           -4.04566372987975        3.63955833361457        0.74770783390453
H            0.99962608013475        3.01641282296314        6.43934836655623
H            4.26128040821803        1.78479752834046        3.89570968616502
H            3.24045329408675       -0.51516653397929        0.05539034333041
H           -0.56857945044177       -0.19238848667761       -1.89601694794349
O           -5.52596153718001        4.43242581450204        4.46605384815259
O           -6.30783670493231        4.19971199033501        2.36442687782645
C           -7.33970486673757        4.98212220305734        2.77290885735845
C            3.55656847852808        2.60062033235711        6.42662064408720
O            4.77950308353634        2.61944697776605        6.21752568369866
O            2.96017871729826        2.55020760233994        7.56961947898643
C            3.84140100173281        2.21901870786250        8.60082841341427
O            3.06620135066000       -1.81076041604650       -2.37969912559632
O            0.87723588597434       -2.38211100192219       -2.23165945042937
C            1.18767038517871       -3.44513542004856       -3.15325546230009
C           -2.86215887424627        0.94095447282646       -0.77725775788351
C           -1.31620719136425        4.82213112119687        0.13215143947870
H            0.71397034178078       -3.13076093023937       -4.05826404520255
H            0.62100894416175       -4.30856987782536       -2.69684911202241
H            2.28315816082515       -3.58440859216754       -3.22639613362053
H            3.29124204896124        1.59087388204494        9.30880248245369
H            4.30113530696687        3.00754166875079        9.15149059553659
H            4.64558343950537        1.67156680024780        8.05399445458174
H           -2.24413443704120        5.23714680046335       -0.04605664216038
H           -0.60579389036895        5.01524243269391       -0.64244158136921
H           -0.96396007679721        5.00049880616010        1.12553296676743
H           -3.30619579896472        1.91892560374895       -0.71469924528999
H           -3.39958868428929        0.07325403564836       -0.54420927971479
H           -2.45098849903946        0.84964463956892       -1.83582957106113
H           -7.32309724442622        6.10451280124534        2.58634826135132
H           -7.77842179911609        4.67318232820123        3.68673916653055
H           -8.00697196324004        4.63949778848074        1.94200093901104
C           -4.84328328318356       -0.60903758465770        5.99434448190189
C           -3.84643427419795       -0.58752852654617        5.09195674815511
C           -2.54904300639476       -0.78055262264610        5.61403844908483
C           -2.29919324687805       -0.49740897536092        7.02037499464866
C           -3.38355216176723       -0.29301146018260        7.85889309286921
C           -4.66142130757791       -0.42694838686188        7.37645645362235
C           -1.54749238585704       -1.26051036517968        4.66777396781637
C           -0.20955391938696       -0.80415727260785        4.94650635407377
C            0.11205296830593       -0.66374279968356        6.43617242814625
N           -0.90416335371734       -0.35190428598157        7.38390740782482
C           -1.83102949276081       -2.10359913420119        3.55744547830648
C           -0.82328078317333       -2.04400154929175        2.51101219752933
N            0.48938069549170       -1.68783807358196        2.76226985091681
C            0.74266144385418       -1.31239537973218        4.04836241823417
C            2.03283524417878       -1.11065063383461        4.56453693198106
C            2.37364091120355       -0.78319735870879        5.88414200347707
C            1.39999843281444       -0.69009077936718        6.90951653798787
C           -2.97433681369036       -2.88839368074181        3.50762639231553
C           -3.34547517186855       -3.30229250694936        2.20752141412497
C           -2.59199270167543       -2.82473811918782        1.06032578284346
C           -1.32828474320677       -2.37573590726242        1.27645040827849
O           -3.88430231361759       -3.01147570917174        4.65229411122343
O           -3.95787391963938       -0.50119816471791        3.68337041738376
C           -5.60509311100757       -0.70757978782127        8.40725904474319
C           -3.27873194569273       -2.87654005220410       -0.34423948080710
H           -3.02031146741571       -0.20577451946875        8.86671902294064
H           -5.83819540539475       -0.95778890117966        5.70188246361405
H            1.64195544356628       -0.37138272430221        7.90888391945469
H            2.88256283421984       -1.32825324537304        3.91784389915077
H           -0.91836169840391       -1.94257790210761        0.40190375309677
H           -4.04447972488072       -4.09347972051530        2.09937402944293
O           -5.23449541612603       -0.86015071649684        9.60347098261312
O           -6.82683850733728       -1.14170966976245        8.09685783464588
C           -7.32061688866300       -1.93188416355588        9.14881722326870
C            3.80156210602988       -0.48803857925208        6.04019797613978
O            4.50598601672215       -0.64022986889982        5.06563367286154
O            4.26823828272650       -0.08177295819248        7.27707831623318
C            5.70406576979646       -0.15650450591234        7.15670144523124
O           -4.40369542972322       -3.25384939567078       -0.44218235086421
O           -2.57512895687349       -2.44740343238985       -1.46040728442004
C           -3.13197187138163       -2.75566702345159       -2.69349730075521
C           -5.15589113451323       -3.04269816875107        4.29867352299250
C           -5.12645867577472        0.19809769672857        3.27722310271283
H           -2.59738518812282       -2.12294539223446       -3.62728607863786
H           -4.08787156664701       -2.28347447958820       -2.76742841264626
H           -3.08714366144802       -3.75061370366967       -3.18467618232732
H            5.98437149256114       -1.04071459032080        6.58004122602950
H            6.12542447528126        0.25015560436429        8.01513373826069
H            5.96883541551574        0.63780622470330        6.47887054151359
H           -5.62644886716167        0.55908156835553        4.21608397637633
H           -5.80988504043128       -0.47160146029193        2.78084316433791
H           -4.77293462057450        0.85044948108935        2.49476814857944
H           -5.75521756194456       -3.28005395554177        5.20131390263605
H           -5.30345359497453       -3.83906628995271        3.51631162011180
H           -5.59394533555238       -2.23217484820306        3.86443402102602
H           -8.05926083137485       -2.72606504161513        9.08964001011517
H           -7.71687320217014       -1.31083272611018        9.96965021330842
H           -6.47532093915451       -2.40030743731336        9.63413827287597
116
 energy: -22.587566912743 gnorm: 0.569148999787 xtb: 6.6.1 (8d0f1dd)
C           -3.06688237482535        4.17280685674014        1.82696291325771
C           -1.82313717656302        3.69894333726765        1.56177081281342
C           -0.95933511680644        3.46300434665437        2.59992618026487
C           -1.26593942943237        4.20814625905238        3.93129036004254
C           -2.61313299515771        4.52336899006883        4.09202450515054
C           -3.48567607592088        4.56612266910951        3.09624466917696
C            0.10680087966955        2.49362910641011        2.63723468808341
C            1.01846629346761        2.74478267849052        3.64209542644053
C            0.73697204616605        3.63094919145409        4.66405009682107
N           -0.36964259620686        4.31511363712929        4.86873808746535
C            0.47608071135801        1.55818543749714        1.72603625527560
C            1.72269133869771        0.93557380893034        1.68096888577511
N            2.57148063765529        1.46986557343981        2.53288376505625
C            2.26814768776117        2.22442009267095        3.57036919692542
C            3.11409753762707        2.57662974846627        4.58090305405207
C            2.81187887566250        3.32369253395009        5.74043298428970
C            1.52949182465575        3.74734272554189        5.86640815237404
C           -0.36352640641349        1.08355897631474        0.69284503419784
C            0.24159237015863        0.49712177683943       -0.47056795494846
C            1.49281555709097       -0.16905604193466       -0.49090041531265
C            2.13942404558687        0.03268971829740        0.72049174617698
O           -1.70534562841655        1.14027206923668        0.63165638445960
O           -1.09360933906860        3.42460454841883        0.29167822128976
C           -4.92743367677212        5.05974208919551        3.24067883430726
C            1.70313628305781       -0.70323987985133       -1.81019694293484
H           -2.95449896982575        5.06497666613397        4.97855974106937
H           -3.91840069592890        4.25947486979430        1.14041520150009
H            1.24612714431477        4.38714397708036        6.63489959936652
H            4.00971585997002        2.00841245967360        4.61840470755996
H            3.08399420108537       -0.41023005159552        0.85298881101497
H           -0.43869032171897        0.25324230377688       -1.32359869715456
O           -5.44287429793441        5.40675737081660        4.28678871323075
O           -5.78401533587556        5.04432033660125        2.10062286750760
C           -7.14972847234296        4.68946827228887        2.36915588882372
C            3.96615535207915        3.65100958365032        6.67376637275194
O            4.99742095587577        3.11912256633444        6.75156319668742
O            3.53012412810265        4.79893193870616        7.34241629140939
C            4.49887531786375        5.35376532444925        8.20091122042289
O            2.18649016232482       -1.84263148832465       -1.98963187368760
O            1.35679476512810        0.06993940358493       -2.96410077181130
C            1.78042040021213       -0.55696081454644       -4.26298714998668
C           -2.48429873541047       -0.07654212050244        0.73932710928538
C           -1.97949326997587        3.88897802301184       -0.70335934234929
H            2.82263159366869       -0.63587994680770       -4.20524565497294
H            1.49865249048734        0.04857108043241       -5.05228529367407
H            1.20313247874212       -1.46272209665716       -4.20569046393434
H            3.85247241162243        6.10216966607291        8.59892385294355
H            5.34534285668132        5.78706354464711        7.58425782632191
H            4.52298085903532        4.48029277382361        8.87334181054603
H           -1.47104284583976        3.38527086620282       -1.52931014693794
H           -2.05908433949270        5.02528858240306       -0.99171551019790
H           -2.93408482035907        3.31795846715696       -0.75024279274783
H           -2.27194542409003       -0.36574952842558        1.65008498921958
H           -2.20530739730982       -0.80373002638525        0.08440856750847
H           -3.56284170029706       -0.08603026505061        0.92150064360341
H           -7.51438461873188        4.31195826465578        1.46719749506484
H           -7.54878239985686        5.62607454852316        2.44132797032222
H           -7.12220927228165        3.93515105538013        3.16489188683744
C           -5.10412673153711       -0.78536702963269        6.31045916800394
C           -4.41509776376904       -1.14596289001388        5.15285812042983
C           -3.08174945674917       -1.73108096252565        5.19425653996755
C           -2.45317057624531       -1.47849689344441        6.51140799039019
C           -3.27461395810860       -1.21499517451756        7.65851902382816
C           -4.54766774491096       -0.66201310089720        7.54292024060220
C           -2.01684981918956       -2.35053354029222        4.24153271296295
C           -0.67965515609197       -2.24665410735214        4.52376759339630
C           -0.35272851984466       -2.10311074438441        5.87614978084885
N           -1.20241466814526       -1.67645674628958        6.86320351972035
C           -2.32311061883006       -2.83189007881356        3.00341614215071
C           -1.36002034323511       -3.02135019338854        1.99733710249623
N           -0.08761424493263       -2.52157892880248        2.23084588767323
C            0.29635534941309       -2.31163031994736        3.51021655020315
C            1.60470809464804       -2.04079660450986        3.93270641246699
C            2.04210158936241       -1.98497442718699        5.28352607235467
C            1.02441879346319       -2.08071217269079        6.17565539664352
C           -3.62585841449992       -3.35140151967277        2.74345617750657
C           -3.97103750151718       -3.81658558811333        1.54497679670101
C           -3.12348897557723       -3.93984886177148        0.47240556375299
C           -1.78320369601039       -3.56209949943364        0.67686057073195
O           -4.52324548498616       -3.74460360115389        3.74089438311557
O           -4.89855684676134       -0.79232954039807        3.81231011330486
C           -5.28379641641539       -0.28361927694394        8.85383406266296
C           -3.37166112854960       -4.27504815621026       -0.92073228025747
H           -2.77385483844192       -0.99505563362797        8.60729592236629
H           -6.16091287144668       -0.50934463208410        6.07332170523518
H            1.19481314759126       -2.22299470716103        7.24920061024822
H            2.39065587766671       -2.14100277795776        3.21360345439164
H           -1.36679684485527       -3.51738357644766       -0.20023640246777
H           -4.98308191217237       -4.27118995814547        1.40650523893210
O           -4.61091107467141       -0.46988832951752        9.83877923164605
O           -6.58214653630704        0.20582457034512        8.91609951467922
C           -7.03077303848698       -0.05798071350271       10.18480579054293
C            3.44316626948525       -2.02887632906842        5.79083988697529
O            4.38198663887843       -2.62998497983905        5.27679285054020
O            3.42023611757834       -1.24563534089614        6.97171461355749
C            4.74069533699889       -0.85373446540094        7.51784600921065
O           -4.48361535851184       -4.36127604665980       -1.41377271655651
O           -2.31416737278147       -4.26694153138904       -1.62081730628896
C           -2.52572936081290       -4.73748969406408       -3.15694113868625
C           -4.18168777815435       -5.08886162542950        4.20263599962408
C           -5.46570180628641        0.56473945328323        3.45426053203535
H           -2.25494622988650       -4.08612112164033       -3.91709899725583
H           -3.37688343968141       -5.27406867691492       -3.48254898682883
H           -1.87382339994924       -5.63461297428137       -3.20090680888634
H            4.80184095939913       -1.46885222246444        8.32650195583911
H            4.68994321477637        0.17934898479382        7.51913974816210
H            5.47668075074159       -1.20892553862811        6.65441816542118
H           -4.90718589847182        1.36158225130400        4.05363615393301
H           -6.29892483292596        0.60788953051409        4.21825244248658
H           -5.82531197799917        0.87552975736518        2.38141011115480
H           -5.17958289203408       -5.54792459706022        4.39585991127863
H           -3.55879945891439       -5.15500731330981        5.11934393877704
H           -3.85132138774097       -5.79627067549132        3.45862502415053
H           -6.30123480856825        0.46363340638621       10.90526861302560
H           -7.21790365655478       -1.15454319205658       10.19251786327553
H           -7.99367490512386        0.62026683585004        9.95346687346304
116
 energy: -22.650573265944 gnorm: 0.520047158993 xtb: 6.6.1 (8d0f1dd)
C           -3.35668047126296        4.47994320023684        1.93322668587046
C           -2.37466637441494        3.52852695043335        1.99417638835702
C           -1.77314175656282        3.01723128736739        3.24278105509686
C           -1.99715791580358        3.92685206475659        4.42679502961323
C           -2.97749419638655        4.89179383063868        4.33017448682675
C           -3.62243351528769        5.12478964311185        3.11925907321169
C           -0.59304861075522        2.27109932444016        3.16718574010252
C            0.31383371522473        2.54554773823544        4.25373251934833
C            0.02093353158259        3.29617193438088        5.44258307169412
N           -1.09769578870601        4.05208339918118        5.37735776802764
C           -0.08310779231041        1.49574213924003        2.00568502038176
C            1.39938184550733        1.42584865589868        1.87373583719052
N            2.16224296232887        1.76826204966752        2.92766057845160
C            1.63764482617459        2.34815470600028        3.94745701675656
C            2.59216712643496        2.79435813843304        4.85346115454857
C            2.21642051605232        3.44883850740527        6.01865273687983
C            0.91566686620025        3.70908706495916        6.34195764097854
C           -0.93171942229820        0.84243745920188        1.06148854966180
C           -0.45032352012981        0.49797006519089       -0.16189463058503
C            0.91953212499940        0.69453525698558       -0.41383636681605
C            1.90204160136935        1.08870170363110        0.61779215599067
O           -2.21955171826285        0.48404143982408        1.37317454802374
O           -1.68365576354961        3.17265587985406        0.87089882230100
C           -4.75554314878295        6.02018361688615        3.30197885101005
C            1.47501819080747        0.07805796863950       -1.60836900043611
H           -3.12036841196700        5.45860848994283        5.34854280176477
H           -3.80319535886688        4.65702017359529        0.97037408763160
H            0.54382231446717        4.09253873795433        7.30360541343532
H            3.65706353514881        2.84800073388475        4.56420843382275
H            2.92389465702618        0.84100583854991        0.46127071467210
H           -1.14487489272267       -0.01704597304594       -0.80600481164556
O           -5.90435602159486        5.84189453405741        3.77509177270216
O           -4.52978157301582        7.30638722275292        2.78898238951381
C           -5.65473275163819        8.14220536124139        2.88886347273881
C            3.12791483171349        3.83701856399064        7.18641325021277
O            2.89032483009114        3.26704368672039        8.31681152200239
O            4.02183911881658        4.75921181733623        6.99926032094548
C            4.56931921908112        4.92188193508870        8.25060918226426
O            2.57105114232763        0.35229561133094       -1.90068599194614
O            0.86926443551956       -0.85501759836259       -2.36173661469750
C            1.65850259225946       -1.23546040326874       -3.50603262619536
C           -2.25267498522634        0.02179699431302        2.79353591288843
C           -2.10822449958625        3.53013806008093       -0.35792760037428
H            2.75890875408688       -1.00022643664171       -3.30517928509170
H            1.36595308810470       -0.53345043231511       -4.44867470441376
H            1.32273873122021       -2.21681895772903       -3.80346129158600
H            5.07797496117266        3.98610856056501        8.65690232285887
H            3.76073235662534        5.21051646142492        8.99727554599019
H            5.15820319107264        5.80254218820280        8.20621515037182
H           -2.98472397550369        2.86863573215162       -0.47452594864784
H           -1.28969666069047        3.16488202347048       -1.00829524465343
H           -2.29648926335541        4.63921382692290       -0.41942992583804
H           -3.09555022499595       -0.45190587211920        2.84084985847992
H           -2.41863475600369        0.89615255818988        3.31351343931879
H           -1.49118295891815       -0.56507812469464        3.09815639156475
H           -5.37280168674906        8.52796847892031        3.96745778516680
H           -6.50530172804869        7.45103415930894        2.89325953653246
H           -5.61679918072105        8.86903586401232        2.18116955805672
C           -4.65783006738223       -1.12148082084132        5.62680665762318
C           -3.87242194688396       -1.78647128154025        4.68721957231556
C           -2.63637366324251       -2.18166050209023        5.09144401536211
C           -2.06291087183449       -1.51873869491451        6.22679399430702
C           -2.81403756548951       -0.53039143221682        6.97705186844555
C           -4.13743332473971       -0.49769709860298        6.72834328700884
C           -1.74270575891343       -2.73474422333849        4.17005021350139
C           -0.41972589057755       -2.28877379893966        4.25771697837561
C            0.01179461834353       -1.92579879582006        5.53865419517569
N           -0.85917658908956       -1.71496721557308        6.63718128424933
C           -1.96350220396707       -3.61204647409712        3.05825935099152
C           -1.09372531962951       -3.48163713908749        1.96180582903262
N            0.08188645417552       -2.85895343277782        1.88420003307481
C            0.51362896393251       -2.39560586606119        3.09074427276567
C            1.90206469716813       -2.20576795243709        3.23088345715670
C            2.18615408083101       -1.88284441244032        4.56672314714708
C            1.35858796740387       -1.79915346878036        5.69947064200235
C           -2.99102943715672       -4.61101932306677        3.12467948119474
C           -3.40522863246742       -5.08342234954094        1.87657887118676
C           -2.75457801380608       -4.75735255749425        0.64097919785174
C           -1.55816419745889       -4.10633766257068        0.69002373346124
O           -3.57525050883261       -5.07608972910983        4.30637817985724
O           -4.12868477783559       -1.96231614703873        3.29775160032155
C           -4.88601825276747        0.48390581879177        7.62930071963703
C           -3.43400776474863       -4.90075624989405       -0.70219129502647
H           -2.46397378656825        0.38128722269402        7.39605386166301
H           -5.76448197075490       -1.27571041282098        5.43372769126121
H            1.95889299565893       -1.72018748954538        6.63867118697366
H            2.80524677206405       -2.50843856431789        2.68405727891498
H           -0.94544500558859       -3.79222338115726       -0.24053554553991
H           -4.15760606388947       -5.87983160541709        1.92642467477618
O           -4.46712157572800        0.82633126099197        8.71359035564817
O           -6.03742893397246        1.08332761484890        7.21492651794249
C           -6.72421719962226        1.82163652027817        8.13949084067830
C            3.61076814081429       -1.69768843795491        4.81933539035735
O            4.55447278342059       -1.77486868214805        4.05215616509505
O            3.82935708344401       -1.52769227536649        6.15081632399932
C            5.21784016466317       -1.29383406382853        6.42148230620306
O           -4.28874778102476       -4.02770439012878       -1.04656360499853
O           -2.85807101750233       -5.91413910603518       -1.53202742210717
C           -3.27797351994823       -5.83230189015713       -2.84272408252388
C           -4.41335557786055       -6.22739555516496        4.35672365131305
C           -5.39171759972885       -1.76699169686786        2.71826174848527
H           -2.57184095128258       -5.05575027967708       -3.23630461510877
H           -4.40000137957276       -5.71505663850578       -2.78318537199147
H           -2.86930826863877       -6.97645588527271       -2.96000302877804
H            5.35021073854419       -1.61844507582504        7.52087382728540
H            5.62728427610417       -0.35257538555845        6.15593692795167
H            5.88975161078268       -2.10208830714945        5.74470561252680
H           -5.37056772943005       -0.74736590061526        2.99172502156544
H           -6.25593051054171       -2.33427963906149        3.09589151151685
H           -5.22590833341750       -1.80398289331660        1.70540496595300
H           -5.36547373634004       -5.83790616152982        4.77904838247993
H           -4.06561316483274       -6.89891755690703        5.20736746454975
H           -4.31322577114886       -6.77482682489625        3.50247735011073
H           -6.50377614266042        2.87291078778977        7.95915819257691
H           -6.21596301855818        1.45578920681148        9.08455056956018
H           -7.74103212401709        1.47859741411454        8.21719170004613
116
 energy: -22.697240607017 gnorm: 0.509026142886 xtb: 6.6.1 (8d0f1dd)
C           -3.22106128572899        5.18034017252652        2.19014485314046
C           -2.26607009804513        4.18035329840352        2.00661084359762
C           -1.57876829616030        3.71299800081765        3.17392702218659
C           -1.73839021548620        4.34483978603885        4.43837261712565
C           -2.55465286967377        5.45138131668031        4.34698860084599
C           -3.46984782180122        5.74879002797199        3.36921839925296
C           -0.43897398886562        2.74152600131683        3.21481494394684
C            0.57080077023992        2.66206103194242        4.31194225002809
C            0.13167337748787        3.33488128319047        5.43021888962900
N           -0.94608931110186        4.17524772766478        5.51826344110396
C           -0.08812143590889        1.95063065271877        2.11741389845802
C            1.31427006956904        1.59702814926291        1.97170585339217
N            2.28360888355596        1.85558290618498        2.85325233809865
C            1.86449193080288        2.17567591285927        4.15917833910325
C            2.73536283027136        2.26022630171648        5.28198955172518
C            2.30331243205072        2.78706941298059        6.50575904277429
C            0.99712147263922        3.43312822330326        6.54705169583211
C           -1.00548740010492        0.98999403360127        1.54236682374850
C           -0.59704060569336        0.00410083224110        0.66839175225812
C            0.71065164593157       -0.05432172350491        0.30879569010388
C            1.70752026951622        0.69192352419871        0.87888806844008
O           -2.26508309226241        1.13304896904769        2.02701499507032
O           -1.84063122309805        3.73531832925290        0.69864739497561
C           -4.73085898982958        6.54933589916287        3.33663792717076
C            1.24129084055485       -1.18635026708852       -0.40891121223596
H           -2.33490548289853        6.28500013656013        5.19267270629321
H           -3.92272111163580        5.26940714283944        1.37070558141649
H            0.78757761972190        4.04532101643853        7.49138307219317
H            3.69492281398592        1.73482157129670        5.29989911687017
H            2.68236098650975        0.32116799567071        0.75721148256297
H           -1.25968477378035       -0.59773854189487        0.10931303906287
O           -4.87577950250942        7.32074709619432        2.37883115721597