116
 energy: -22.928061455056 gnorm: 0.329736929581 xtb: 6.6.1 (8d0f1dd)
C           -3.31122850772930        0.79849766164622       -0.92477639677520
C           -2.44380812530352       -0.12270372891954       -0.27661132624697
C           -1.41337090092821        0.39579727573559        0.56335275196199
C           -0.89266158675590        1.65801491088749        0.27377586709581
C           -1.72665675402493        2.51431363229076       -0.49448366572522
C           -2.95444148494349        2.13954154133227       -1.01494489940871
C           -0.74098268209890       -0.43411532818871        1.49825021926784
C            0.56872586496315        0.03782116815119        1.86248088067890
C            1.03782416582094        1.29402317993033        1.50887470833621
N            0.31238977034758        2.07067427098208        0.65193736800696
C           -1.29695700510141       -1.39996043042223        2.41574187746061
C           -0.38243517664656       -2.18060797534842        3.13232615520648
N            0.91308504082021       -1.90366887689689        3.30325166013478
C            1.37712470144904       -0.74872102533751        2.81811050966982
C            2.52149331701875       -0.17739833758153        3.39379298866852
C            2.95849061756259        1.02681208890480        2.95105897606587
C            2.24288949469137        1.78498308775960        2.03503020483770
C           -2.74860936222260       -1.74497937691422        2.38401158947411
C           -3.09416315450955       -2.91614440870436        3.00571134491758
C           -2.16786021984049       -3.77788778654213        3.63251872101904
C           -0.85708937311598       -3.40495313382985        3.68547234358092
O           -3.71994433332149       -0.94984598373544        1.67726658385724
O           -2.55702603277562       -1.47241711578389       -0.57241635275616
C           -3.84297843593025        3.13357444054366       -1.60938954875544
C           -2.68769581069131       -5.03867041417370        4.30484659386931
H           -1.39666850744143        3.51251503834900       -0.76806311868865
H           -4.27662633836220        0.55105838579656       -1.33106614114542
H            2.66329581305412        2.73912661909249        1.72562431984580
H            3.05775395548473       -0.69369546277216        4.16536137542516
H           -0.24710966264510       -4.12034095424229        4.22946223699121
H           -4.11477991332403       -3.04712728052358        3.03244694615357
O           -4.21824883374556        4.03433712717988       -0.87713382485991
O           -4.44510595673734        2.90643496899600       -2.81853501752979
C           -5.44216520282800        3.83300025693726       -3.02488532025093
C            4.23586651889298        1.50004220933226        3.59165660008449
O            5.05927614697201        0.66079890002952        3.91714215179376
O            4.47001334453535        2.86385149488593        3.72605651435371
C            5.79457498613219        3.08584475587818        4.15829123132174
O           -3.82227255313510       -5.27347675879771        4.16636005494405
O           -1.85023202017753       -5.79767454267276        5.06656077253571
C           -2.55119635829503       -6.86252441382958        5.62930343183426
C           -5.07197156564436       -1.42399175670916        1.58830531863830
C           -1.33089900128490       -2.23622472573986       -0.99264499351172
H           -2.54510546830388       -7.76426885143998        4.99136022291012
H           -3.57194749219491       -6.44405511486021        5.74196173723541
H           -2.09133598235598       -7.02043774843818        6.64022264233588
H            5.72707967266424        3.46798026205549        5.10135971236643
H            6.34060091246885        3.78468702308830        3.50069950143490
H            6.17933064298187        2.03010500085905        4.19342358084693
H           -0.91862729772622       -2.57650129080332       -0.01361370304871
H           -0.49769766914251       -1.60651221708571       -1.34094446550576
H           -1.52632419730509       -2.94569707152159       -1.75361447637286
H           -5.11788846557077       -2.41810833635233        1.17520213188926
H           -5.67929807973498       -0.69619639428435        1.04301666067831
H           -5.57598832326623       -1.42383358739762        2.57928294206544
H           -6.13050215934830        3.76035386975488       -2.23272855695873
H           -5.86615610071888        3.45938329385866       -4.02668959924245
H           -5.13479557532099        4.87790991548477       -2.98314551356402
C           -1.38192942069774        3.73616555005018        2.91232598411686
C           -1.84821468128685        2.59982427735607        3.49755545445181
C           -1.05946531454833        2.05730632010638        4.60922730982276
C            0.19893954712228        2.69376791964407        4.86302140881997
C            0.50425395911860        3.94630308659851        4.28768785650746
C           -0.26031777722226        4.46998310053134        3.25072669343212
C           -1.20488993561782        0.74454293276906        5.14851520323437
C           -0.06287609782692        0.02744069315890        5.60930570802864
C            1.19208754369866        0.71421540266195        5.78882868583885
N            1.19428660993148        2.06344359410476        5.62744624321596
C           -2.41361422770794        0.07928500213936        5.25249410304426
C           -2.45851584031083       -1.32662100968547        5.60237876023992
N           -1.29466212405906       -1.98318595734370        5.89916817085159
C           -0.14475655767527       -1.32117560077092        5.98824682881008
C            0.97209270935794       -1.98958449505532        6.53157704134458
C            2.21982707914082       -1.36973967291181        6.68703967237737
C            2.30561929262884       -0.09745313075593        6.26436900324455
C           -3.73018485967715        0.71367583494582        5.25810242262992
C           -4.89964478833448       -0.06184623426677        5.21204641615509
C           -4.82617965800088       -1.39228978090841        5.46901303780036
C           -3.67144193418464       -1.98914944386360        5.67265433266067
O           -3.75568638935321        2.07705011038914        5.52067969627343
O           -2.94192434743730        1.91263938797883        3.01658762327703
C            0.21273512614467        5.50086066357994        2.34765104514621
C           -6.06660304520411       -2.17604633098929        5.80641622556876
H            1.41756699010566        4.38133362238595        4.66974005703471
H           -1.82880610647429        4.11982501512100        2.06992133318584
H            3.26888037378556        0.32655662585251        6.31721410015598
H            0.87146188387207       -3.08471526305024        6.57830423410869
H           -3.67716811065157       -3.05999292755990        5.83019634570050
H           -5.77379677507622        0.43595144608221        4.71017130754348
O            1.34459852619901        5.82615848916894        2.44941456579099
O           -0.74718748219123        6.07961784856304        1.59848183464284
C           -0.21473095568964        7.24015934882472        1.05753806029483
C            3.53228080814219       -2.00967610361154        7.02506769044485
O            3.64093082622715       -3.14437803815732        7.50071391725347
O            4.56565258381079       -1.22937033368332        6.69086985080897
C            5.72579357310716       -1.80692399125161        7.22246151275881
O           -7.04801223588612       -1.95726935745904        5.14194115322235
O           -6.01514389321278       -2.93743591896022        6.94765316328794
C           -7.21292732384718       -3.62681918543340        7.15115816329978
C           -4.95459780685163        2.65960679932188        5.86868674392943
C           -3.68284113682406        2.59129188358641        2.05479246020704
H           -7.43119628931628       -4.22607794725959        6.20622607140901
H           -8.06548455146707       -2.91765848248592        7.29781126410398
H           -7.07314693247270       -4.33087306029711        7.91223421050944
H            6.57332189837178       -1.29353136199234        6.78341268688262
H            5.74663761932316       -2.84282155125561        6.88089468184451
H            5.69426191474290       -1.72781984964892        8.29460302186842
H           -4.10481209541493        3.44288266176275        2.60483747673152
H           -4.49244774344916        1.87419893016926        1.82433103764650
H           -3.18901540870812        2.85154642679373        1.06781919454921
H           -5.55414326821421        2.76698137191684        4.93950725322359
H           -4.78658370641210        3.62090640967288        6.25983200635257
H           -5.43485580473958        1.97242995129449        6.65265772412460
H            0.89164886030839        7.38838561720231        1.13776105146914
H           -0.62894889903848        8.04195665205089        1.64837664327952
H           -0.59282546386754        7.45699159724320        0.03719083132488
116
 energy: -22.554620181187 gnorm: 0.590993096278 xtb: 6.6.1 (8d0f1dd)
C           -2.89529130830971        0.22442328203829       -1.88676004249534
C           -2.43700005837794       -0.45856156421697       -0.76402126514592
C           -1.76815568197390        0.21925594421313        0.31174077725233
C           -1.35816834741578        1.59042668064674        0.03138584522812
C           -2.19796828851970        2.36121092127433       -0.84821777449925
C           -2.92770559518716        1.64111889800751       -1.75050297683435
C           -1.27531438493389       -0.42149351868794        1.54836823112928
C           -0.14370532436415        0.31946791074698        2.01858989058885
C            0.19545751546232        1.55738287740958        1.68951727751641
N           -0.48388774527573        2.25332388125087        0.80717718500798
C           -1.82113375790398       -1.41652085414683        2.42345750597226
C           -0.78302722289868       -2.05707756492148        3.16086724663055
N            0.48797476248580       -1.57586112475962        3.42907678858709
C            0.71412195644097       -0.42051239961167        2.81466592985011
C            2.04881041447562        0.03925124203178        2.83236256861309
C            2.56658648209773        1.21926474155984        2.46520025883417
C            1.56677125403701        2.02874075789485        1.86536225570223
C           -3.12319371581805       -1.83160760412641        2.54095038867592
C           -3.52828090417331       -3.03274859770008        3.08325070950059
C           -2.44011078975772       -3.86636725077242        3.36838500295704
C           -1.20913396124320       -3.31870934936812        3.70565547741142
O           -4.20965560830280       -1.03035831944759        2.11205860739878
O           -2.44130051142582       -1.92012183579922       -0.89964330602633
C           -3.40273380972443        2.42075001201677       -2.97750910651977
C           -2.53361584508775       -5.23415753198708        3.81560260732980
H           -2.19717749623004        3.42733760847195       -0.73217710443668
H           -3.43687177766694       -0.25190753776118       -2.63629069084656
H            1.71308309710220        3.12632131308642        1.53552956814391
H            2.62558104361351       -0.55927925918286        3.49764829785562
H           -0.54044972687748       -3.99315578127064        4.07151929367497
H           -4.49896917888051       -3.32448118323246        3.08466005027047
O           -2.70030756709683        3.49456396621951       -3.11108241677870
O           -4.20802058503560        1.85289954614225       -3.98967796088575
C           -3.73496967469959        2.61499561992396       -5.11434603795190
C            3.90011006174772        1.55375293601068        2.77609603513476
O            4.57844519121796        0.81455103921507        3.57748277731781
O            4.42512062617388        2.61749376100051        2.08517264433910
C            5.85506661546548        2.47114437859254        1.95543658804426
O           -3.70644249440126       -5.48065336011147        4.15715064119998
O           -1.36775439871655       -6.18776875958345        4.04042281517605
C           -1.64805895059668       -7.27888920838823        4.82131451118881
C           -5.40647084314029       -1.07400045042339        2.74963670688018
C           -2.80803920085570       -2.61644576653840       -2.14934048060918
H           -1.35904615594888       -8.06037543343200        4.10283583393818
H           -2.63650232008682       -7.58685612706326        5.20798223077993
H           -0.88930024000995       -7.09811875463567        5.68455363395192
H            6.10119911015966        1.48675688648071        2.30189764993957
H            6.35258213616784        3.19391829178288        2.52891147174281
H            6.15005121385885        2.62354291662661        0.92958469844219
H           -2.84684920838622       -1.96632980359791       -3.12121250434850
H           -3.78106057228439       -2.84089612720944       -2.29804659807102
H           -2.19473721428865       -3.33709792823934       -2.28185423734988
H           -6.02935589218386       -0.38055937346550        2.03585195262859
H           -5.32634877676193       -0.36305421563362        3.66900984949619
H           -5.93080795414621       -2.12171107328424        2.99001848603109
H           -2.61537748765558        2.84566504346136       -5.13762953935448
H           -4.21260588433219        3.46716552490305       -5.59309599889929
H           -4.00216695998267        1.81301860322652       -5.85763596158271
C           -1.61919273580075        3.86163083073949        3.76044559464072
C           -1.97981896595455        2.86076768539611        4.63618885382884
C           -1.04185130225986        2.27207435467886        5.61362732142483
C            0.30830013594231        2.85164356145924        5.60664173072469
C            0.40312227097886        4.06264540619033        4.79233695414626
C           -0.50271354330483        4.58979217802579        4.04673523493873
C           -1.15106687769441        0.90139623638151        5.90491290409419
C            0.13990253772697        0.22930452188168        6.05478275190458
C            1.36359052822457        0.88342497522018        5.88024273049868
N            1.50187663765558        2.21326049971776        5.83575299710541
C           -2.37172052951007        0.19131650837027        6.02811194057967
C           -2.33821410161684       -1.22473358279884        6.41838866124759
N           -1.18791696660692       -1.85272620138414        6.58357309657806
C           -0.09197870024978       -1.09490781640331        6.48641910374183
C            1.17850460769266       -1.54343653936112        7.03103172328800
C            2.40778503913308       -1.18544061275953        6.70896626993393
C            2.53385437382861        0.10114711592156        5.97623600729506
C           -3.55573187008731        0.94186249571641        6.35291324294454
C           -4.82148780859583        0.34881194744690        6.39783867800632
C           -4.82898593186560       -1.11680806777821        6.21420209461910
C           -3.64142645434278       -1.89160748938715        6.05498188012319
O           -3.40050792188396        2.26353878897196        6.61012661371306
O           -3.18295154897582        2.48237317354131        4.03498870974729
C           -0.31149100862970        5.79152116344539        3.14453547502136
C           -6.16059549766865       -1.73819662363197        5.92229440612257
H            1.50145324897646        4.37836708361583        4.69980362694237
H           -1.95402278633501        4.21346188498560        2.66515852122511
H            3.52403190931941        0.41997969392235        5.98715616695928
H            1.24717338272020       -2.39357733055454        7.70645172988901
H           -3.44409422734076       -2.87743364833896        5.66641121336787
H           -5.68007508583765        1.01034911541408        6.11207532240681
O           -0.74558642303492        5.59749585347344        2.05274062378608
O            0.31505293345868        6.98249639775832        3.56532658382106
C            1.25130295721373        7.68887880260352        2.73029171366355
C            3.64696745779528       -1.79174391032268        7.38342552981072
O            3.51587418827906       -2.74922221621519        8.11783675815032
O            4.99410118153171       -1.39678190022031        7.12315950909382
C            5.97700488470433       -2.18267725240373        7.73841481062275
O           -7.03606792336247       -1.02703359666143        5.41879577929409
O           -6.21783898876913       -3.08714848331055        6.06508586552579
C           -7.50953138043476       -3.56203285256122        5.73894918536722
C           -4.43322574195341        2.86618044818485        7.39483623006698
C           -3.20179496628363        2.20890987116033        2.59490700339459
H           -7.65879811922653       -4.03735166497790        4.74136401014538
H           -8.05810874609401       -2.61821473897329        5.58537052177361
H           -7.89331346010028       -4.05682139606498        6.59840397302703
H            6.74917839189449       -1.72182478137407        7.26982378922176
H            5.80163218871392       -3.15819590878871        7.65400294554006
H            6.15386833885652       -2.11905947601444        8.86429869842337
H           -3.70995472431913        3.06617172236586        2.15313997031452
H           -3.90857820577354        1.29522163556195        2.53093712576436
H           -2.19857522249832        2.12854954444352        2.20271448681030
H           -4.01110448018269        3.75181769092768        7.77058626253254
H           -4.76886898204886        2.09893375982873        8.21508109114059
H           -5.25266713527905        3.27296896608116        6.71760980181483
H            2.02858567527423        8.39622719526051        3.08407141450099
H            0.76273245840283        8.33238151819329        2.08644680578925
H            1.85552079189296        7.09293604833200        2.19441013813202
116
 energy: -22.572924853038 gnorm: 0.568050754186 xtb: 6.6.1 (8d0f1dd)
C           -4.04743318714660        0.13108397300265       -1.50034127708449
C           -3.28246552853665       -0.54037212850423       -0.52460255618770
C           -1.98148939633346        0.03987220824594       -0.08791699690864
C           -1.28971106792983        1.01780280162758       -0.93588357755450
C           -1.92884400313825        1.26963918111446       -2.16501212668212
C           -3.38952880382828        1.05583470532061       -2.30338988655236
C           -1.42000849349596       -0.30989481778248        1.17308836310735
C           -0.02567358500664        0.03544293209697        1.37486483423423
C            0.45610865498941        1.19341054754613        0.71975434320904
N           -0.31120509592167        1.77721432972193       -0.29512412971214
C           -1.92754475878445       -1.20075618037253        2.12176835275369
C           -0.97649859717039       -1.99889249601956        2.94052527758514
N            0.25910570599079       -1.47376513214058        3.13693309599048
C            0.71598011620594       -0.43835395874688        2.48550844244034
C            1.88678704634962        0.12233240890884        2.85005780727660
C            2.33184511194510        1.20787395897841        2.10285911613250
C            1.66008978222736        1.65169746656245        0.96856864094835
C           -3.33167974695325       -1.37905639035451        2.47585662001552
C           -3.64649062329340       -2.71682546272396        2.87024609898349
C           -2.66710971189767       -3.51589176348191        3.43116721526174
C           -1.26613252512510       -3.25006847720387        3.45169558702549
O           -4.08378060320561       -0.21871850338283        2.51760371471300
O           -3.55715967449602       -1.69876143959078        0.01597561769361
C           -4.18999578970746        1.52727586108908       -3.60020072316525
C           -2.91845938721094       -4.90537142610042        3.96721848811452
H           -1.47892870482455        2.10148180102943       -2.70679835465550
H           -4.91507536739601       -0.55180378896176       -1.77474859465037
H            2.11227556522352        2.66487613995952        0.73838967502621
H            2.50151132213803       -0.34361064537388        3.54048327871719
H           -0.44769268937798       -3.90304932536752        3.55231407114771
H           -4.40695214338489       -3.22440483073667        2.32188304925502
O           -4.69463107230572        2.60656220361711       -3.82770969303090
O           -3.88540285525468        0.56440619809470       -4.48661794395551
C           -4.02992162593806        1.09929456962226       -5.90196472225004
C            3.34649040420010        2.19735587404081        2.83159982103307
O            2.86114828238932        3.12467056946638        3.40835512655663
O            4.61546643328146        1.98620346816801        2.81379672835202
C            5.52944250880399        2.87413949609618        3.41811998154593
O           -3.94384856303960       -5.58906047235663        3.74961937624079
O           -1.88412029080028       -5.41142017039946        4.78188977529147
C           -2.14866007063321       -6.78617550803468        5.01954068461767
C           -5.47500480711064       -0.54171561792402        2.55479124771706
C           -3.95063400172219       -2.70824419866147       -0.85968470724897
H           -2.75654546383406       -7.03005615800518        5.91945293321371
H           -1.17679411697123       -7.22650791569989        5.10206447436274
H           -2.68397446930075       -7.12458487864996        4.17468876119106
H            6.03761588295734        2.48650324465274        4.48325368651530
H            5.11144501718713        3.74797545211991        3.84489465826818
H            6.36766116800689        2.99342949932322        2.74468109521904
H           -3.31402667931262       -2.61361388926278       -1.65015552321159
H           -5.01148984078187       -2.24605417349384       -0.87141009385342
H           -3.85488766124815       -3.65323405868281       -0.16285315714020
H           -5.58600458426972       -1.40770375178147        3.36367779215909
H           -6.12070119183086       -1.02024983681485        1.64355099150899
H           -6.08911806414244        0.42556520980301        2.50344647017134
H           -3.01308045752744        0.87726116584142       -6.19702551861698
H           -4.02939227333119        2.20812763511897       -5.86731147705375
H           -4.78060826289792        0.52264983779877       -6.64750514968542
C           -1.02826600837478        4.36837881129206        4.31913069687501
C           -1.26673267235631        2.97556016891152        4.38702157427569
C           -0.39917468129660        2.25214564923256        5.30001841280458
C            0.88679098877334        2.77890912247226        5.73184065367783
C            0.95778535162694        4.19945695204070        5.57846331347506
C            0.03536914031478        4.98796630343430        4.83940608241762
C           -0.73101707687698        0.83162307445320        5.66027888810336
C            0.56143722199594        0.19498227627339        5.94375130496269
C            1.87221143123782        0.86075346683004        6.14667280356269
N            1.88868540070472        2.17666280480520        6.31647202037338
C           -1.92797986024756        0.27473491282624        6.12191950069665
C           -1.89209968991610       -1.12712471803116        6.10425895347444
N           -0.73334484350599       -1.76800253461706        6.37544917421234
C            0.45643313295061       -1.20415699993604        6.29711491985309
C            1.40828123071463       -1.90349174363723        6.84312054988096
C            2.69211158297777       -1.40899647760000        6.65310463373964
C            2.89692617956140        0.04214480124862        6.51395072635173
C           -3.14570433733069        0.97124600385597        6.03240754044556
C           -4.36098513293617        0.28135419195804        5.80600803177840
C           -4.31145329781007       -1.06175577890352        5.90825571266686
C           -3.07273824705018       -1.75906267362332        5.98032272045226
O           -3.21971654624114        2.39102481338712        6.39551135058047
O           -2.18839207305637        2.20224042732329        3.62010525656046
C            0.45192521802399        6.49202931542233        4.40146853246754
C           -5.55415550450557       -1.75021607107430        5.70737652438946
H            1.88423377393407        4.73382984335566        5.94589287401539
H           -1.88775977583494        4.92769549011510        3.84956143286421
H            3.88524649608746        0.45974964201637        6.63653512257748
H            1.27857457746868       -2.91004170174948        7.35632622434206
H           -2.91444997504061       -2.79879927504658        5.71362504968812
H           -5.35394370682071        0.70919487895043        5.86791549117286
O            1.40588236671382        6.41135335879895        3.66202315415380
O           -0.08881655346490        7.71540702994206        4.88612196118429
C            0.33112707080727        8.93115915809951        4.18818205530404
C            3.64566951010957       -2.49628640517253        7.18384982795051
O            3.30733257367808       -3.70620740451282        7.19856375341984
O            4.70824961359669       -1.90098649003833        7.64700084406619
C            5.67380602901405       -3.04968654121018        7.84915894385045
O           -6.66914399858022       -1.34618889896034        5.86861761649661
O           -5.34293567834462       -3.08891470859827        5.47415482817479
C           -6.61603402104671       -3.60223415804800        5.14296860251264
C           -4.61720734206410        2.73425351582513        6.46041487261442
C           -2.65598765243616        2.91939343877241        2.56888201939682
H           -6.81353087820677       -4.66502235802077        5.32274309135020
H           -6.62144019530004       -3.39945201736545        4.13124775920523
H           -7.21313389146059       -3.08101575057869        5.84618552202628
H            6.50073851983653       -2.62639038485649        8.23293986151386
H            5.86115044078831       -3.68606190976917        7.00173115939585
H            5.02055510697020       -3.62346107416349        8.50135499449570
H           -2.42405946449649        3.93231974282558        2.44254702098412
H           -3.80294518495175        2.74898951802018        2.42950036199500
H           -2.22113767876964        2.20992984605414        1.81519925745382
H           -4.81742586029476        3.81025152588133        6.88022852269833
H           -5.13484312658352        2.05559970994184        7.13576633570942
H           -4.93604661477372        2.75881930604776        5.44970880516686
H           -0.31045923935482        9.06197000398947        3.42468708858915
H            1.42171172624550        8.68512623194918        3.97300046517841
H            0.18593984018784        9.53844506201548        5.01309393540012
116
 energy: -22.607570974619 gnorm: 0.570483069843 xtb: 6.6.1 (8d0f1dd)
C           -3.31099204171658       -0.75432515239601       -2.60966051386337
C           -2.74120349332977       -1.29650580937538       -1.55977205302457
C           -2.12629723981262       -0.30421136685581       -0.70760140586759
C           -1.63391007853021        1.00182556263116       -1.20790762953321
C           -2.25967436098487        1.41356895877997       -2.33665424766867
C           -3.23007661332966        0.62103600242258       -2.96934275073692
C           -1.51883837494828       -0.65414320492267        0.52576693323551
C           -0.35450954685685        0.05864553158929        1.04388389504930
C            0.06661723022961        1.22991143853791        0.36295719547636
N           -0.66238422799927        1.70969801972640       -0.57360038006039
C           -2.01495630661402       -1.75050162404509        1.33011576374407
C           -1.01958570473197       -2.15612452207271        2.41781605900288
N            0.15110559155139       -1.55254263838146        2.71159561991677
C            0.44937950952055       -0.47474009651269        2.08418563781153
C            1.69873078854343        0.18101267129543        2.45493631488034
C            2.16136595509694        1.30164214805002        1.73634349516563
C            1.28480576728175        1.81606358897327        0.72721259999412
C           -3.42488852749022       -2.27452288612881        1.33373484260050
C           -3.84754369722385       -2.97693937120462        2.42355837774346
C           -2.89287779825668       -3.64159939836632        3.23157350849170
C           -1.55787156616788       -3.32116747869949        3.08599766135345
O           -4.26246193490494       -1.82482138535951        0.28620043090477
O           -2.49775471995575       -2.68336286623727       -1.38084974368723
C           -4.06008551548075        1.24357258238212       -4.00264546234921
C           -3.16669380304658       -4.73934758989591        4.14922942912476
H           -2.15657721164773        2.50752435640045       -2.64479127509571
H           -4.03184972605690       -1.12306386792857       -3.28904922617543
H            1.43663827617724        2.75236124274144        0.27559630189823
H            2.35391115834630       -0.13736426504423        3.17557184322624
H           -1.02783583631569       -3.60183203175396        4.00333604389924
H           -4.76845557657635       -3.42132194142347        2.27805721564226
O           -3.77123720315489        2.24986997577459       -4.56673669517281