Stacking distance: 3.0 Å
      -----------------------------------------------------------      
     |                   =====================                   |     
     |                           x T B                           |     
     |                   =====================                   |     
     |                         S. Grimme                         |     
     |          Mulliken Center for Theoretical Chemistry        |     
     |                    University of Bonn                     |     
      -----------------------------------------------------------      

   * xtb version 6.7.1 (edcfbbe) compiled by 'runner@Mac-1732539442253.local' on 2024-11-25

   xtb is free software: you can redistribute it and/or modify it under
   the terms of the GNU Lesser General Public License as published by
   the Free Software Foundation, either version 3 of the License, or
   (at your option) any later version.
   
   xtb is distributed in the hope that it will be useful,
   but WITHOUT ANY WARRANTY; without even the implied warranty of
   MERCHANTABILITY or FITNESS FOR A PARTICULAR PURPOSE.  See the
   GNU Lesser General Public License for more details.
   
   Cite this work as:
   * C. Bannwarth, E. Caldeweyher, S. Ehlert, A. Hansen, P. Pracht,
     J. Seibert, S. Spicher, S. Grimme, WIREs Comput. Mol. Sci., 2020, 11,
     e01493. DOI: 10.1002/wcms.1493
   
   for GFN2-xTB:
   * C. Bannwarth, S. Ehlert and S. Grimme., J. Chem. Theory Comput., 2019,
     15, 1652-1671. DOI: 10.1021/acs.jctc.8b01176
   for GFN1-xTB:
   * S. Grimme, C. Bannwarth, P. Shushkov, J. Chem. Theory Comput., 2017,
     13, 1989-2009. DOI: 10.1021/acs.jctc.7b00118
   for GFN0-xTB:
   * P. Pracht, E. Caldeweyher, S. Ehlert, S. Grimme, ChemRxiv, 2019, preprint.
     DOI: 10.26434/chemrxiv.8326202.v1
   for GFN-FF:
   * S. Spicher and S. Grimme, Angew. Chem. Int. Ed., 2020, 59, 15665-15673.
     DOI: 10.1002/anie.202004239
   
   for ALPB and GBSA implicit solvation:
   * S. Ehlert, M. Stahn, S. Spicher, S. Grimme, J. Chem. Theory Comput.,
     2021, 17, 4250-4261. DOI: 10.1021/acs.jctc.1c00471
   
   for ddCOSMO and CPCM-X implicit solvation:
   * M. Stahn, S. Ehlert, S. Grimme, J. Phys. Chem. A,
     2023, XX, XXXX-XXXX. DOI: 10.1021/acs.jpca.3c04382
   
   for DFT-D4:
   * E. Caldeweyher, C. Bannwarth and S. Grimme, J. Chem. Phys., 2017,
     147, 034112. DOI: 10.1063/1.4993215
   * E. Caldeweyher, S. Ehlert, A. Hansen, H. Neugebauer, S. Spicher,
     C. Bannwarth and S. Grimme, J. Chem. Phys., 2019, 150, 154122.
     DOI: 10.1063/1.5090222
   * E. Caldeweyher, J.-M. Mewes, S. Ehlert and S. Grimme, Phys. Chem. Chem. Phys.
     2020, 22, 8499-8512. DOI: 10.1039/D0CP00502A
   
   for sTDA-xTB:
   * S. Grimme and C. Bannwarth, J. Chem. Phys., 2016, 145, 054103.
     DOI: 10.1063/1.4959605
   
   in the mass-spec context:
   * V. Asgeirsson, C. Bauer and S. Grimme, Chem. Sci., 2017, 8, 4879.
     DOI: 10.1039/c7sc00601b
   * J. Koopman and S. Grimme, ACS Omega 2019, 4, 12, 15120-15133.
     DOI: 10.1021/acsomega.9b02011
   
   for metadynamics refer to:
   * S. Grimme, J. Chem. Theory Comput., 2019, 155, 2847-2862
     DOI: 10.1021/acs.jctc.9b00143
   
   for SPH calculations refer to:
   * S. Spicher and S. Grimme, J. Chem. Theory Comput., 2021, 17, 1701-1714
     DOI: 10.1021/acs.jctc.0c01306
   
   for ONIOM refer to:
   * C. Plett, A. Katbashev, S. Ehlert, S. Grimme, M. Bursch,
     Phys. Chem. Chem. Phys., 2023, 25, 17860-17868. DOI: 10.1039/D3CP02178E
   
   for DIPRO refer to:
   * J. Kohn, N. Gildemeister, S. Grimme, D. Fazzi, A. Hansen,
     J. Chem. Phys., 2023, just accepted.
   
   for PTB refer to:
   * S. Grimme, M. Mueller, A. Hansen, J. Chem. Phys., 2023, 158, 124111.
     DOI: 10.1063/5.0137838
   
   with help from (in alphabetical order)
   P. Atkinson, C. Bannwarth, F. Bohle, G. Brandenburg, E. Caldeweyher
   M. Checinski, S. Dohm, S. Ehlert, S. Ehrlich, I. Gerasimov, C. Hölzer
   A. Katbashev, J. Kohn, J. Koopman, C. Lavigne, S. Lehtola, F. März, M. Müller,
   F. Musil, H. Neugebauer, J. Pisarek, C. Plett, P. Pracht, F. Pultar,
   J. Seibert, P. Shushkov, S. Spicher, M. Stahn, M. Steiner, T. Strunk,
   J. Stückrath, T. Rose, and J. Unsleber
   
 * started run on 2025/03/26 at 12:37:58.852     

           -------------------------------------------------
          |                Calculation Setup                |
           -------------------------------------------------

          program call               : xtb dimer_3.00.xyz --dipro 0.3 --chrg 0 --uhf 2 --input frag.inp --spinpol --tblite
          coordinate file            : dimer_3.00.xyz
          omp threads                :                     8

########################################################################
[WARNING] Please study the warnings concerning your input carefully
-2- userdata_read: could not find 'frag.inp'
-1- set_rdcontrol: could not find 'frag.inp'
########################################################################
           -------------------------------------------------
          |                    D I P R O                    |
           -------------------------------------------------
Calculation for dimer 
--------------------- 
  
charge of dimer :   0.
unpaired e- of dimer :  2
repulsion energy          3.1044316422467E+01 Eh
dispersion energy         3.0949442851183E-02 Eh
number of electrons       4.6200000000000E+02 e
integral cutoff           1.7347787504999E+01 bohr

------------------------------------------------------------
  cycle        total energy    energy error   density error
------------------------------------------------------------
      1     -207.2884108521  -2.3836368E+02   1.4071261E-01
      2     -182.3219691836   2.4966442E+01   2.1754178E-01
      3     -213.2377462852  -3.0915777E+01   9.8799494E-02
      4     -207.6390581701   5.5986881E+00   1.0186495E-01
      5     -205.8342644496   1.8047937E+00   8.9469124E-02
      6     -210.5192344779  -4.6849700E+00   6.0511978E-02
      7     -213.1513458055  -2.6321113E+00   4.8813534E-02
      8     -214.2895982507  -1.1382524E+00   3.0258222E-02
      9     -214.6130175403  -3.2341929E-01   2.1922561E-02
     10     -214.7953288170  -1.8231128E-01   1.5125433E-02
     11     -214.8269276577  -3.1598841E-02   1.1965444E-02
     12     -214.8737182405  -4.6790583E-02   7.3280542E-03
     13     -214.8812475401  -7.5292996E-03   4.7262718E-03
     14     -214.8627349368   1.8512603E-02   6.7999265E-03
     15     -214.8789005630  -1.6165626E-02   3.6996343E-03
     16     -214.8840282143  -5.1276513E-03   1.6058194E-03
     17     -214.8845639196  -5.3570529E-04   1.2094247E-03
     18     -214.8849457702  -3.8185065E-04   6.8284200E-04
     19     -214.8849582162  -1.2446003E-05   5.0146046E-04
     20     -214.8850325154  -7.4299189E-05   2.8202813E-04
     21     -214.8850532776  -2.0762203E-05   9.3152252E-05
     22     -214.8850535255  -2.4791498E-07   8.4031417E-05
     23     -214.8850551084  -1.5828301E-06   3.7951753E-05
     24     -214.8850550606   4.7755918E-08   3.6334967E-05
     25     -214.8850554039  -3.4329466E-07   2.1261800E-05
     26     -214.8850556011  -1.9722248E-07   5.1535675E-06
------------------------------------------------------------

electronic energy        -2.4596032146646E+02 Eh
total energy             -2.1488505560114E+02 Eh

 total:                                   2.212 sec
 - repulsion                              0.001 sec (  0%)
 - dispersion                             0.026 sec (  1%)
 - coulomb                                0.005 sec (  0%)
 - hamiltonian                            0.016 sec (  0%)
 - scc                                    2.165 sec ( 97%)

!!!!!!!!!!!!!!!!!!!!!!!!!!!!!!!!!!!!!!!ERROR!!!!!!!!!!!!!!!!!!!!!!!!!!!!!!!!!!!!
Found no fragments in the input structure.
Aborting...
########################################################################
[ERROR] Program stopped due to fatal error
-3- Something in your DIPRO calculation went wrong.
-2- xtb_dipro: Found no fragments in input structure.
-1- xtb_dipro: No method provided, falling back to default GFN2-xTB.
########################################################################
abnormal termination of xtb
Note: The following floating-point exceptions are signalling: IEEE_UNDERFLOW_FLAG
ERROR STOP 

Error termination. Backtrace:
#0  0x105b4bcf7
#1  0x105b4cb07
#2  0x105b4df17
#3  0x1048e3d43
#4  0x1047e2893
#5  0x104a95c57
Calculation failed for distance 3.0 Å: Could not parse J values from dimer_3.00.xyz
Stacking distance: 3.05 Å
      -----------------------------------------------------------      
     |                   =====================                   |     
     |                           x T B                           |     
     |                   =====================                   |     
     |                         S. Grimme                         |     
     |          Mulliken Center for Theoretical Chemistry        |     
     |                    University of Bonn                     |     
      -----------------------------------------------------------      

   * xtb version 6.7.1 (edcfbbe) compiled by 'runner@Mac-1732539442253.local' on 2024-11-25

   xtb is free software: you can redistribute it and/or modify it under
   the terms of the GNU Lesser General Public License as published by
   the Free Software Foundation, either version 3 of the License, or
   (at your option) any later version.
   
   xtb is distributed in the hope that it will be useful,
   but WITHOUT ANY WARRANTY; without even the implied warranty of
   MERCHANTABILITY or FITNESS FOR A PARTICULAR PURPOSE.  See the
   GNU Lesser General Public License for more details.
   
   Cite this work as:
   * C. Bannwarth, E. Caldeweyher, S. Ehlert, A. Hansen, P. Pracht,
     J. Seibert, S. Spicher, S. Grimme, WIREs Comput. Mol. Sci., 2020, 11,
     e01493. DOI: 10.1002/wcms.1493
   
   for GFN2-xTB:
   * C. Bannwarth, S. Ehlert and S. Grimme., J. Chem. Theory Comput., 2019,
     15, 1652-1671. DOI: 10.1021/acs.jctc.8b01176
   for GFN1-xTB:
   * S. Grimme, C. Bannwarth, P. Shushkov, J. Chem. Theory Comput., 2017,
     13, 1989-2009. DOI: 10.1021/acs.jctc.7b00118
   for GFN0-xTB:
   * P. Pracht, E. Caldeweyher, S. Ehlert, S. Grimme, ChemRxiv, 2019, preprint.
     DOI: 10.26434/chemrxiv.8326202.v1
   for GFN-FF:
   * S. Spicher and S. Grimme, Angew. Chem. Int. Ed., 2020, 59, 15665-15673.
     DOI: 10.1002/anie.202004239
   
   for ALPB and GBSA implicit solvation:
   * S. Ehlert, M. Stahn, S. Spicher, S. Grimme, J. Chem. Theory Comput.,
     2021, 17, 4250-4261. DOI: 10.1021/acs.jctc.1c00471
   
   for ddCOSMO and CPCM-X implicit solvation:
   * M. Stahn, S. Ehlert, S. Grimme, J. Phys. Chem. A,
     2023, XX, XXXX-XXXX. DOI: 10.1021/acs.jpca.3c04382
   
   for DFT-D4:
   * E. Caldeweyher, C. Bannwarth and S. Grimme, J. Chem. Phys., 2017,
     147, 034112. DOI: 10.1063/1.4993215
   * E. Caldeweyher, S. Ehlert, A. Hansen, H. Neugebauer, S. Spicher,
     C. Bannwarth and S. Grimme, J. Chem. Phys., 2019, 150, 154122.
     DOI: 10.1063/1.5090222
   * E. Caldeweyher, J.-M. Mewes, S. Ehlert and S. Grimme, Phys. Chem. Chem. Phys.
     2020, 22, 8499-8512. DOI: 10.1039/D0CP00502A
   
   for sTDA-xTB:
   * S. Grimme and C. Bannwarth, J. Chem. Phys., 2016, 145, 054103.
     DOI: 10.1063/1.4959605
   
   in the mass-spec context:
   * V. Asgeirsson, C. Bauer and S. Grimme, Chem. Sci., 2017, 8, 4879.
     DOI: 10.1039/c7sc00601b
   * J. Koopman and S. Grimme, ACS Omega 2019, 4, 12, 15120-15133.
     DOI: 10.1021/acsomega.9b02011
   
   for metadynamics refer to:
   * S. Grimme, J. Chem. Theory Comput., 2019, 155, 2847-2862
     DOI: 10.1021/acs.jctc.9b00143
   
   for SPH calculations refer to:
   * S. Spicher and S. Grimme, J. Chem. Theory Comput., 2021, 17, 1701-1714
     DOI: 10.1021/acs.jctc.0c01306
   
   for ONIOM refer to:
   * C. Plett, A. Katbashev, S. Ehlert, S. Grimme, M. Bursch,
     Phys. Chem. Chem. Phys., 2023, 25, 17860-17868. DOI: 10.1039/D3CP02178E
   
   for DIPRO refer to:
   * J. Kohn, N. Gildemeister, S. Grimme, D. Fazzi, A. Hansen,
     J. Chem. Phys., 2023, just accepted.
   
   for PTB refer to:
   * S. Grimme, M. Mueller, A. Hansen, J. Chem. Phys., 2023, 158, 124111.
     DOI: 10.1063/5.0137838
   
   with help from (in alphabetical order)
   P. Atkinson, C. Bannwarth, F. Bohle, G. Brandenburg, E. Caldeweyher
   M. Checinski, S. Dohm, S. Ehlert, S. Ehrlich, I. Gerasimov, C. Hölzer
   A. Katbashev, J. Kohn, J. Koopman, C. Lavigne, S. Lehtola, F. März, M. Müller,
   F. Musil, H. Neugebauer, J. Pisarek, C. Plett, P. Pracht, F. Pultar,
   J. Seibert, P. Shushkov, S. Spicher, M. Stahn, M. Steiner, T. Strunk,
   J. Stückrath, T. Rose, and J. Unsleber
   
 * started run on 2025/03/26 at 12:38:01.164     

           -------------------------------------------------
          |                Calculation Setup                |
           -------------------------------------------------

          program call               : xtb dimer_3.05.xyz --dipro 0.3 --chrg 0 --uhf 2 --input frag.inp --spinpol --tblite
          coordinate file            : dimer_3.05.xyz
          omp threads                :                     8

########################################################################
[WARNING] Please study the warnings concerning your input carefully
-2- userdata_read: could not find 'frag.inp'
-1- set_rdcontrol: could not find 'frag.inp'
########################################################################
           -------------------------------------------------
          |                    D I P R O                    |
           -------------------------------------------------
Calculation for dimer 
--------------------- 
  
charge of dimer :   0.
unpaired e- of dimer :  2
repulsion energy          2.5499524731491E+01 Eh
dispersion energy         3.1085230011816E-02 Eh
number of electrons       4.6200000000000E+02 e
integral cutoff           1.7347787504999E+01 bohr

------------------------------------------------------------
  cycle        total energy    energy error   density error
------------------------------------------------------------
      1     -213.0076647938  -2.3853827E+02   1.3971586E-01
      2     -188.0837267299   2.4923938E+01   2.1716846E-01
      3     -219.0710106616  -3.0987284E+01   9.8326381E-02
      4     -214.6677715682   4.4032391E+00   9.6231517E-02
      5     -212.4911987296   2.1765728E+00   8.6153906E-02
      6     -216.5131131808  -4.0219145E+00   6.0404422E-02
      7     -219.6862111264  -3.1730979E+00   3.8671580E-02
      8     -220.1794283689  -4.9321724E-01   2.4711835E-02
      9     -220.2399951802  -6.0566811E-02   2.1970910E-02
     10     -220.5188507766  -2.7885560E-01   1.2679185E-02
     11     -220.5511221404  -3.2271364E-02   8.6543540E-03
     12     -220.4062022186   1.4491992E-01   1.7217956E-02
     13     -220.5521854941  -1.4598328E-01   6.7874991E-03
     14     -220.5458999602   6.2855339E-03   6.0242606E-03
     15     -220.5633754315  -1.7475471E-02   3.5499415E-03
     16     -220.5648292625  -1.4538310E-03   2.8281176E-03
     17     -220.5672925464  -2.4632839E-03   1.7318416E-03
     18     -220.5682653023  -9.7275589E-04   9.9950857E-04
     19     -220.5688960424  -6.3074006E-04   3.5896435E-04
     20     -220.5688978466  -1.8042792E-06   2.8978044E-04
     21     -220.5689105529  -1.2706268E-05   1.8601892E-04
     22     -220.5689195433  -8.9903941E-06   1.0094547E-04
     23     -220.5689225185  -2.9752518E-06   5.8898961E-05
     24     -220.5689228356  -3.1706637E-07   4.5838033E-05
     25     -220.5689238431  -1.0074988E-06   1.1455330E-05
     26     -220.5689238862  -4.3041979E-08   3.0531544E-06
------------------------------------------------------------

electronic energy        -2.4609953384765E+02 Eh
total energy             -2.2056892388615E+02 Eh

 total:                                   2.327 sec
 - repulsion                              0.000 sec (  0%)
 - dispersion                             0.015 sec (  0%)
 - coulomb                                0.003 sec (  0%)
 - hamiltonian                            0.011 sec (  0%)
 - scc                                    2.298 sec ( 98%)

!!!!!!!!!!!!!!!!!!!!!!!!!!!!!!!!!!!!!!!ERROR!!!!!!!!!!!!!!!!!!!!!!!!!!!!!!!!!!!!
Found no fragments in the input structure.
Aborting...
########################################################################
[ERROR] Program stopped due to fatal error
-3- Something in your DIPRO calculation went wrong.
-2- xtb_dipro: Found no fragments in input structure.
-1- xtb_dipro: No method provided, falling back to default GFN2-xTB.
########################################################################
abnormal termination of xtb
Note: The following floating-point exceptions are signalling: IEEE_UNDERFLOW_FLAG
ERROR STOP 

Error termination. Backtrace:
#0  0x105527cf7
#1  0x105528b07
#2  0x105529f17
#3  0x1043b3d43
#4  0x1042b2893
#5  0x104565c57
Calculation failed for distance 3.05 Å: Could not parse J values from dimer_3.05.xyz
Stacking distance: 3.1 Å
      -----------------------------------------------------------      
     |                   =====================                   |     
     |                           x T B                           |     
     |                   =====================                   |     
     |                         S. Grimme                         |     
     |          Mulliken Center for Theoretical Chemistry        |     
     |                    University of Bonn                     |     
      -----------------------------------------------------------      

   * xtb version 6.7.1 (edcfbbe) compiled by 'runner@Mac-1732539442253.local' on 2024-11-25

   xtb is free software: you can redistribute it and/or modify it under
   the terms of the GNU Lesser General Public License as published by
   the Free Software Foundation, either version 3 of the License, or
   (at your option) any later version.
   
   xtb is distributed in the hope that it will be useful,
   but WITHOUT ANY WARRANTY; without even the implied warranty of
   MERCHANTABILITY or FITNESS FOR A PARTICULAR PURPOSE.  See the
   GNU Lesser General Public License for more details.
   
   Cite this work as:
   * C. Bannwarth, E. Caldeweyher, S. Ehlert, A. Hansen, P. Pracht,
     J. Seibert, S. Spicher, S. Grimme, WIREs Comput. Mol. Sci., 2020, 11,
     e01493. DOI: 10.1002/wcms.1493
   
   for GFN2-xTB:
   * C. Bannwarth, S. Ehlert and S. Grimme., J. Chem. Theory Comput., 2019,
     15, 1652-1671. DOI: 10.1021/acs.jctc.8b01176
   for GFN1-xTB:
   * S. Grimme, C. Bannwarth, P. Shushkov, J. Chem. Theory Comput., 2017,
     13, 1989-2009. DOI: 10.1021/acs.jctc.7b00118
   for GFN0-xTB:
   * P. Pracht, E. Caldeweyher, S. Ehlert, S. Grimme, ChemRxiv, 2019, preprint.
     DOI: 10.26434/chemrxiv.8326202.v1
   for GFN-FF:
   * S. Spicher and S. Grimme, Angew. Chem. Int. Ed., 2020, 59, 15665-15673.
     DOI: 10.1002/anie.202004239
   
   for ALPB and GBSA implicit solvation:
   * S. Ehlert, M. Stahn, S. Spicher, S. Grimme, J. Chem. Theory Comput.,
     2021, 17, 4250-4261. DOI: 10.1021/acs.jctc.1c00471
   
   for ddCOSMO and CPCM-X implicit solvation:
   * M. Stahn, S. Ehlert, S. Grimme, J. Phys. Chem. A,
     2023, XX, XXXX-XXXX. DOI: 10.1021/acs.jpca.3c04382
   
   for DFT-D4:
   * E. Caldeweyher, C. Bannwarth and S. Grimme, J. Chem. Phys., 2017,
     147, 034112. DOI: 10.1063/1.4993215
   * E. Caldeweyher, S. Ehlert, A. Hansen, H. Neugebauer, S. Spicher,
     C. Bannwarth and S. Grimme, J. Chem. Phys., 2019, 150, 154122.
     DOI: 10.1063/1.5090222
   * E. Caldeweyher, J.-M. Mewes, S. Ehlert and S. Grimme, Phys. Chem. Chem. Phys.
     2020, 22, 8499-8512. DOI: 10.1039/D0CP00502A
   
   for sTDA-xTB:
   * S. Grimme and C. Bannwarth, J. Chem. Phys., 2016, 145, 054103.
     DOI: 10.1063/1.4959605
   
   in the mass-spec context:
   * V. Asgeirsson, C. Bauer and S. Grimme, Chem. Sci., 2017, 8, 4879.
     DOI: 10.1039/c7sc00601b
   * J. Koopman and S. Grimme, ACS Omega 2019, 4, 12, 15120-15133.
     DOI: 10.1021/acsomega.9b02011
   
   for metadynamics refer to:
   * S. Grimme, J. Chem. Theory Comput., 2019, 155, 2847-2862
     DOI: 10.1021/acs.jctc.9b00143
   
   for SPH calculations refer to:
   * S. Spicher and S. Grimme, J. Chem. Theory Comput., 2021, 17, 1701-1714
     DOI: 10.1021/acs.jctc.0c01306
   
   for ONIOM refer to:
   * C. Plett, A. Katbashev, S. Ehlert, S. Grimme, M. Bursch,
     Phys. Chem. Chem. Phys., 2023, 25, 17860-17868. DOI: 10.1039/D3CP02178E
   
   for DIPRO refer to:
   * J. Kohn, N. Gildemeister, S. Grimme, D. Fazzi, A. Hansen,
     J. Chem. Phys., 2023, just accepted.
   
   for PTB refer to:
   * S. Grimme, M. Mueller, A. Hansen, J. Chem. Phys., 2023, 158, 124111.
     DOI: 10.1063/5.0137838
   
   with help from (in alphabetical order)
   P. Atkinson, C. Bannwarth, F. Bohle, G. Brandenburg, E. Caldeweyher
   M. Checinski, S. Dohm, S. Ehlert, S. Ehrlich, I. Gerasimov, C. Hölzer
   A. Katbashev, J. Kohn, J. Koopman, C. Lavigne, S. Lehtola, F. März, M. Müller,
   F. Musil, H. Neugebauer, J. Pisarek, C. Plett, P. Pracht, F. Pultar,
   J. Seibert, P. Shushkov, S. Spicher, M. Stahn, M. Steiner, T. Strunk,
   J. Stückrath, T. Rose, and J. Unsleber
   
 * started run on 2025/03/26 at 12:38:03.530     

           -------------------------------------------------
          |                Calculation Setup                |
           -------------------------------------------------

          program call               : xtb dimer_3.10.xyz --dipro 0.3 --chrg 0 --uhf 2 --input frag.inp --spinpol --tblite
          coordinate file            : dimer_3.10.xyz
          omp threads                :                     8

########################################################################
[WARNING] Please study the warnings concerning your input carefully
-2- userdata_read: could not find 'frag.inp'
-1- set_rdcontrol: could not find 'frag.inp'
########################################################################
           -------------------------------------------------
          |                    D I P R O                    |
           -------------------------------------------------
Calculation for dimer 
--------------------- 
  
charge of dimer :   0.
unpaired e- of dimer :  2
repulsion energy          2.1400462055256E+01 Eh
dispersion energy         3.1217017650830E-02 Eh
number of electrons       4.6200000000000E+02 e
integral cutoff           1.7347787504999E+01 bohr

------------------------------------------------------------
  cycle        total energy    energy error   density error
------------------------------------------------------------
      1     -217.6048658148  -2.3903654E+02   1.3761998E-01
      2     -193.6428585161   2.3962007E+01   2.1076482E-01
      3     -223.0506698883  -2.9407811E+01   9.6779124E-02
      4     -217.5168654523   5.5338044E+00   1.0369376E-01
      5     -222.8628041446  -5.3459387E+00   6.1490189E-02
      6     -223.4633593390  -6.0055519E-01   4.3076544E-02
      7     -224.0324971449  -5.6913781E-01   3.1840959E-02
      8     -224.3497477939  -3.1725065E-01   2.5369069E-02
      9     -224.7012184620  -3.5147067E-01   1.6801313E-02
     10     -224.7472431177  -4.6024656E-02   1.2800961E-02
     11     -224.7778591676  -3.0616050E-02   9.7362134E-03
     12     -224.5420455197   2.3581365E-01   2.0934814E-02
     13     -224.8004353957  -2.5838988E-01   6.6411427E-03
     14     -224.8064432849  -6.0078892E-03   5.1726884E-03
     15     -224.8162671699  -9.8238851E-03   2.5385251E-03
     16     -224.8167062963  -4.3912636E-04   2.1336317E-03
     17     -224.8185560025  -1.8497062E-03   8.1768910E-04
     18     -224.8187142793  -1.5827679E-04   4.1570575E-04
     19     -224.8187321752  -1.7895838E-05   2.4422942E-04
     20     -224.8187433465  -1.1171335E-05   1.9128992E-04
     21     -224.8187524853  -9.1387595E-06   7.7903225E-05
     22     -224.8187548756  -2.3903315E-06   3.4847651E-05
     23     -224.8187540820   7.9356769E-07   4.0948486E-05
     24     -224.8187550591  -9.7709872E-07   1.5131484E-05
------------------------------------------------------------

electronic energy        -2.4625043413202E+02 Eh
total energy             -2.2481875505912E+02 Eh

 total:                                   2.156 sec
 - repulsion                              0.000 sec (  0%)
 - dispersion                             0.014 sec (  0%)
 - coulomb                                0.003 sec (  0%)
 - hamiltonian                            0.011 sec (  0%)
 - scc                                    2.127 sec ( 98%)

!!!!!!!!!!!!!!!!!!!!!!!!!!!!!!!!!!!!!!!ERROR!!!!!!!!!!!!!!!!!!!!!!!!!!!!!!!!!!!!
Found no fragments in the input structure.
Aborting...
########################################################################
[ERROR] Program stopped due to fatal error
-3- Something in your DIPRO calculation went wrong.
-2- xtb_dipro: Found no fragments in input structure.
-1- xtb_dipro: No method provided, falling back to default GFN2-xTB.
########################################################################
abnormal termination of xtb
Note: The following floating-point exceptions are signalling: IEEE_UNDERFLOW_FLAG
ERROR STOP 

Error termination. Backtrace:
#0  0x1041bbcf7
#1  0x1041bcb07
#2  0x1041bdf17
#3  0x102f67d43
#4  0x102e66893
#5  0x103119c57
Calculation failed for distance 3.1 Å: Could not parse J values from dimer_3.10.xyz
Stacking distance: 3.15 Å
      -----------------------------------------------------------      
     |                   =====================                   |     
     |                           x T B                           |     
     |                   =====================                   |     
     |                         S. Grimme                         |     
     |          Mulliken Center for Theoretical Chemistry        |     
     |                    University of Bonn                     |     
      -----------------------------------------------------------      

   * xtb version 6.7.1 (edcfbbe) compiled by 'runner@Mac-1732539442253.local' on 2024-11-25

   xtb is free software: you can redistribute it and/or modify it under
   the terms of the GNU Lesser General Public License as published by
   the Free Software Foundation, either version 3 of the License, or
   (at your option) any later version.
   
   xtb is distributed in the hope that it will be useful,
   but WITHOUT ANY WARRANTY; without even the implied warranty of
   MERCHANTABILITY or FITNESS FOR A PARTICULAR PURPOSE.  See the
   GNU Lesser General Public License for more details.
   
   Cite this work as:
   * C. Bannwarth, E. Caldeweyher, S. Ehlert, A. Hansen, P. Pracht,
     J. Seibert, S. Spicher, S. Grimme, WIREs Comput. Mol. Sci., 2020, 11,
     e01493. DOI: 10.1002/wcms.1493
   
   for GFN2-xTB:
   * C. Bannwarth, S. Ehlert and S. Grimme., J. Chem. Theory Comput., 2019,
     15, 1652-1671. DOI: 10.1021/acs.jctc.8b01176
   for GFN1-xTB:
   * S. Grimme, C. Bannwarth, P. Shushkov, J. Chem. Theory Comput., 2017,
     13, 1989-2009. DOI: 10.1021/acs.jctc.7b00118
   for GFN0-xTB:
   * P. Pracht, E. Caldeweyher, S. Ehlert, S. Grimme, ChemRxiv, 2019, preprint.
     DOI: 10.26434/chemrxiv.8326202.v1
   for GFN-FF:
   * S. Spicher and S. Grimme, Angew. Chem. Int. Ed., 2020, 59, 15665-15673.
     DOI: 10.1002/anie.202004239
   
   for ALPB and GBSA implicit solvation:
   * S. Ehlert, M. Stahn, S. Spicher, S. Grimme, J. Chem. Theory Comput.,
     2021, 17, 4250-4261. DOI: 10.1021/acs.jctc.1c00471
   
   for ddCOSMO and CPCM-X implicit solvation:
   * M. Stahn, S. Ehlert, S. Grimme, J. Phys. Chem. A,
     2023, XX, XXXX-XXXX. DOI: 10.1021/acs.jpca.3c04382
   
   for DFT-D4:
   * E. Caldeweyher, C. Bannwarth and S. Grimme, J. Chem. Phys., 2017,
     147, 034112. DOI: 10.1063/1.4993215
   * E. Caldeweyher, S. Ehlert, A. Hansen, H. Neugebauer, S. Spicher,
     C. Bannwarth and S. Grimme, J. Chem. Phys., 2019, 150, 154122.
     DOI: 10.1063/1.5090222
   * E. Caldeweyher, J.-M. Mewes, S. Ehlert and S. Grimme, Phys. Chem. Chem. Phys.
     2020, 22, 8499-8512. DOI: 10.1039/D0CP00502A
   
   for sTDA-xTB:
   * S. Grimme and C. Bannwarth, J. Chem. Phys., 2016, 145, 054103.
     DOI: 10.1063/1.4959605
   
   in the mass-spec context:
   * V. Asgeirsson, C. Bauer and S. Grimme, Chem. Sci., 2017, 8, 4879.
     DOI: 10.1039/c7sc00601b
   * J. Koopman and S. Grimme, ACS Omega 2019, 4, 12, 15120-15133.
     DOI: 10.1021/acsomega.9b02011
   
   for metadynamics refer to:
   * S. Grimme, J. Chem. Theory Comput., 2019, 155, 2847-2862
     DOI: 10.1021/acs.jctc.9b00143
   
   for SPH calculations refer to:
   * S. Spicher and S. Grimme, J. Chem. Theory Comput., 2021, 17, 1701-1714
     DOI: 10.1021/acs.jctc.0c01306
   
   for ONIOM refer to:
   * C. Plett, A. Katbashev, S. Ehlert, S. Grimme, M. Bursch,
     Phys. Chem. Chem. Phys., 2023, 25, 17860-17868. DOI: 10.1039/D3CP02178E
   
   for DIPRO refer to:
   * J. Kohn, N. Gildemeister, S. Grimme, D. Fazzi, A. Hansen,
     J. Chem. Phys., 2023, just accepted.
   
   for PTB refer to:
   * S. Grimme, M. Mueller, A. Hansen, J. Chem. Phys., 2023, 158, 124111.
     DOI: 10.1063/5.0137838
   
   with help from (in alphabetical order)
   P. Atkinson, C. Bannwarth, F. Bohle, G. Brandenburg, E. Caldeweyher
   M. Checinski, S. Dohm, S. Ehlert, S. Ehrlich, I. Gerasimov, C. Hölzer
   A. Katbashev, J. Kohn, J. Koopman, C. Lavigne, S. Lehtola, F. März, M. Müller,
   F. Musil, H. Neugebauer, J. Pisarek, C. Plett, P. Pracht, F. Pultar,
   J. Seibert, P. Shushkov, S. Spicher, M. Stahn, M. Steiner, T. Strunk,
   J. Stückrath, T. Rose, and J. Unsleber
   
 * started run on 2025/03/26 at 12:38:05.735     

           -------------------------------------------------
          |                Calculation Setup                |
           -------------------------------------------------

          program call               : xtb dimer_3.15.xyz --dipro 0.3 --chrg 0 --uhf 2 --input frag.inp --spinpol --tblite
          coordinate file            : dimer_3.15.xyz
          omp threads                :                     8

########################################################################
[WARNING] Please study the warnings concerning your input carefully
-2- userdata_read: could not find 'frag.inp'
-1- set_rdcontrol: could not find 'frag.inp'
########################################################################
           -------------------------------------------------
          |                    D I P R O                    |
           -------------------------------------------------
Calculation for dimer 
--------------------- 
  
charge of dimer :   0.
unpaired e- of dimer :  2
repulsion energy          1.8266976375180E+01 Eh
dispersion energy         3.1353688486163E-02 Eh
number of electrons       4.6200000000000E+02 e
integral cutoff           1.7347787504999E+01 bohr

------------------------------------------------------------
  cycle        total energy    energy error   density error
------------------------------------------------------------
      1     -221.1829178894  -2.3948125E+02   1.3551980E-01
      2     -191.9823787298   2.9200539E+01   2.1002503E-01
      3     -225.8025988572  -3.3820220E+01   9.7301294E-02
      4     -222.3690027248   3.4335961E+00   9.6493670E-02
      5     -226.4629919334  -4.0939892E+00   6.1887141E-02
      6     -226.5006504927  -3.7658559E-02   4.7897515E-02
      7     -225.9865323121   5.1411818E-01   5.0706895E-02
      8     -227.6889190592  -1.7023867E+00   2.4865252E-02
      9     -227.9581268338  -2.6920777E-01   1.7847248E-02
     10     -227.9367727899   2.1354044E-02   1.6924619E-02
     11     -228.0347171139  -9.7944324E-02   1.2128444E-02
     12     -227.9834720951   5.1245019E-02   1.6278339E-02
     13     -228.1066205409  -1.2314845E-01   6.4002437E-03
     14     -228.0131629701   9.3457571E-02   1.5321832E-02
     15     -228.1166810534  -1.0351808E-01   4.5902511E-03
     16     -228.0986472736   1.8033780E-02   6.3071936E-03
     17     -228.1182442194  -1.9596946E-02   2.8996946E-03
     18     -228.1226280832  -4.3838639E-03   8.0302979E-04
     19     -228.1222813630   3.4672028E-04   9.5829684E-04
     20     -228.1227732977  -4.9193475E-04   3.8243186E-04
     21     -228.1227949836  -2.1685897E-05   2.7008331E-04
     22     -228.1228097430  -1.4759395E-05   1.9479873E-04
     23     -228.1228273733  -1.7630336E-05   7.5066406E-05
     24     -228.1228292920  -1.9186153E-06   3.0199199E-05
     25     -228.1228294713  -1.7934767E-07   1.9750782E-05
------------------------------------------------------------

electronic energy        -2.4642115953498E+02 Eh
total energy             -2.2812282947131E+02 Eh

 total:                                   2.333 sec
 - repulsion                              0.000 sec (  0%)
 - dispersion                             0.016 sec (  0%)
 - coulomb                                0.003 sec (  0%)
 - hamiltonian                            0.012 sec (  0%)
 - scc                                    2.302 sec ( 98%)

!!!!!!!!!!!!!!!!!!!!!!!!!!!!!!!!!!!!!!!ERROR!!!!!!!!!!!!!!!!!!!!!!!!!!!!!!!!!!!!
Found no fragments in the input structure.
Aborting...
########################################################################
[ERROR] Program stopped due to fatal error
-3- Something in your DIPRO calculation went wrong.
-2- xtb_dipro: Found no fragments in input structure.
-1- xtb_dipro: No method provided, falling back to default GFN2-xTB.
########################################################################
abnormal termination of xtb
Note: The following floating-point exceptions are signalling: IEEE_UNDERFLOW_FLAG
ERROR STOP 

Error termination. Backtrace:
#0  0x101983cf7
#1  0x101984b07
#2  0x101985f17
#3  0x100803d43
#4  0x100702893
#5  0x1009b5c57
Calculation failed for distance 3.15 Å: Could not parse J values from dimer_3.15.xyz
Stacking distance: 3.2 Å
      -----------------------------------------------------------      
     |                   =====================                   |     
     |                           x T B                           |     
     |                   =====================                   |     
     |                         S. Grimme                         |     
     |          Mulliken Center for Theoretical Chemistry        |     
     |                    University of Bonn                     |     
      -----------------------------------------------------------      

   * xtb version 6.7.1 (edcfbbe) compiled by 'runner@Mac-1732539442253.local' on 2024-11-25

   xtb is free software: you can redistribute it and/or modify it under
   the terms of the GNU Lesser General Public License as published by
   the Free Software Foundation, either version 3 of the License, or
   (at your option) any later version.
   
   xtb is distributed in the hope that it will be useful,
   but WITHOUT ANY WARRANTY; without even the implied warranty of
   MERCHANTABILITY or FITNESS FOR A PARTICULAR PURPOSE.  See the
   GNU Lesser General Public License for more details.
   
   Cite this work as:
   * C. Bannwarth, E. Caldeweyher, S. Ehlert, A. Hansen, P. Pracht,
     J. Seibert, S. Spicher, S. Grimme, WIREs Comput. Mol. Sci., 2020, 11,
     e01493. DOI: 10.1002/wcms.1493
   
   for GFN2-xTB:
   * C. Bannwarth, S. Ehlert and S. Grimme., J. Chem. Theory Comput., 2019,
     15, 1652-1671. DOI: 10.1021/acs.jctc.8b01176
   for GFN1-xTB:
   * S. Grimme, C. Bannwarth, P. Shushkov, J. Chem. Theory Comput., 2017,
     13, 1989-2009. DOI: 10.1021/acs.jctc.7b00118
   for GFN0-xTB:
   * P. Pracht, E. Caldeweyher, S. Ehlert, S. Grimme, ChemRxiv, 2019, preprint.
     DOI: 10.26434/chemrxiv.8326202.v1
   for GFN-FF:
   * S. Spicher and S. Grimme, Angew. Chem. Int. Ed., 2020, 59, 15665-15673.
     DOI: 10.1002/anie.202004239
   
   for ALPB and GBSA implicit solvation:
   * S. Ehlert, M. Stahn, S. Spicher, S. Grimme, J. Chem. Theory Comput.,
     2021, 17, 4250-4261. DOI: 10.1021/acs.jctc.1c00471
   
   for ddCOSMO and CPCM-X implicit solvation:
   * M. Stahn, S. Ehlert, S. Grimme, J. Phys. Chem. A,
     2023, XX, XXXX-XXXX. DOI: 10.1021/acs.jpca.3c04382
   
   for DFT-D4:
   * E. Caldeweyher, C. Bannwarth and S. Grimme, J. Chem. Phys., 2017,
     147, 034112. DOI: 10.1063/1.4993215
   * E. Caldeweyher, S. Ehlert, A. Hansen, H. Neugebauer, S. Spicher,
     C. Bannwarth and S. Grimme, J. Chem. Phys., 2019, 150, 154122.
     DOI: 10.1063/1.5090222
   * E. Caldeweyher, J.-M. Mewes, S. Ehlert and S. Grimme, Phys. Chem. Chem. Phys.
     2020, 22, 8499-8512. DOI: 10.1039/D0CP00502A
   
   for sTDA-xTB:
   * S. Grimme and C. Bannwarth, J. Chem. Phys., 2016, 145, 054103.
     DOI: 10.1063/1.4959605
   
   in the mass-spec context:
   * V. Asgeirsson, C. Bauer and S. Grimme, Chem. Sci., 2017, 8, 4879.
     DOI: 10.1039/c7sc00601b
   * J. Koopman and S. Grimme, ACS Omega 2019, 4, 12, 15120-15133.
     DOI: 10.1021/acsomega.9b02011
   
   for metadynamics refer to:
   * S. Grimme, J. Chem. Theory Comput., 2019, 155, 2847-2862
     DOI: 10.1021/acs.jctc.9b00143
   
   for SPH calculations refer to:
   * S. Spicher and S. Grimme, J. Chem. Theory Comput., 2021, 17, 1701-1714
     DOI: 10.1021/acs.jctc.0c01306
   
   for ONIOM refer to:
   * C. Plett, A. Katbashev, S. Ehlert, S. Grimme, M. Bursch,
     Phys. Chem. Chem. Phys., 2023, 25, 17860-17868. DOI: 10.1039/D3CP02178E
   
   for DIPRO refer to:
   * J. Kohn, N. Gildemeister, S. Grimme, D. Fazzi, A. Hansen,
     J. Chem. Phys., 2023, just accepted.
   
   for PTB refer to:
   * S. Grimme, M. Mueller, A. Hansen, J. Chem. Phys., 2023, 158, 124111.
     DOI: 10.1063/5.0137838
   
   with help from (in alphabetical order)
   P. Atkinson, C. Bannwarth, F. Bohle, G. Brandenburg, E. Caldeweyher
   M. Checinski, S. Dohm, S. Ehlert, S. Ehrlich, I. Gerasimov, C. Hölzer
   A. Katbashev, J. Kohn, J. Koopman, C. Lavigne, S. Lehtola, F. März, M. Müller,
   F. Musil, H. Neugebauer, J. Pisarek, C. Plett, P. Pracht, F. Pultar,
   J. Seibert, P. Shushkov, S. Spicher, M. Stahn, M. Steiner, T. Strunk,
   J. Stückrath, T. Rose, and J. Unsleber
   
 * started run on 2025/03/26 at 12:38:08.115     

           -------------------------------------------------
          |                Calculation Setup                |
           -------------------------------------------------

          program call               : xtb dimer_3.20.xyz --dipro 0.3 --chrg 0 --uhf 2 --input frag.inp --spinpol --tblite
          coordinate file            : dimer_3.20.xyz
          omp threads                :                     8

########################################################################
[WARNING] Please study the warnings concerning your input carefully
-2- userdata_read: could not find 'frag.inp'
-1- set_rdcontrol: could not find 'frag.inp'
########################################################################
           -------------------------------------------------
          |                    D I P R O                    |
           -------------------------------------------------
Calculation for dimer 
--------------------- 
  
charge of dimer :   0.
unpaired e- of dimer :  2
repulsion energy          1.5812988727344E+01 Eh
dispersion energy         3.1490883391708E-02 Eh
number of electrons       4.6200000000000E+02 e
integral cutoff           1.7347787504999E+01 bohr

------------------------------------------------------------
  cycle        total energy    energy error   density error
------------------------------------------------------------
      1     -223.6690074205  -2.3951349E+02   1.3439106E-01
      2     -186.0282300250   3.7640777E+01   2.1951487E-01
      3     -228.1835404050  -4.2155310E+01   9.7760736E-02
      4     -225.4171720064   2.7663684E+00   9.5591144E-02
      5     -228.3670960570  -2.9499241E+00   7.1848008E-02
      6     -228.7223907393  -3.5529468E-01   5.3240469E-02
      7     -228.3736150219   3.4877572E-01   5.3544684E-02
      8     -230.1062054029  -1.7325904E+00   3.0117829E-02
      9     -230.5510350065  -4.4482960E-01   2.0190477E-02
     10     -230.4649676670   8.6067339E-02   1.9808351E-02
     11     -230.6569398300  -1.9197216E-01   1.3144132E-02
     12     -230.6788806900  -2.1940860E-02   1.1509158E-02
     13     -230.5487837568   1.3009693E-01   2.0748990E-02
     14     -230.7634146781  -2.1463092E-01   5.0776229E-03
     15     -230.7333356574   3.0079021E-02   1.1079104E-02
     16     -230.7319095856   1.4260718E-03   9.5194560E-03
     17     -230.7481386420  -1.6229056E-02   6.3176883E-03
     18     -230.7603483027  -1.2209661E-02   4.8666174E-03
     19     -230.7684197309  -8.0714282E-03   1.8671904E-03
     20     -230.7683487635   7.0967457E-05   1.5889389E-03
     21     -230.7685796388  -2.3087530E-04   1.2778461E-03
     22     -230.7691939047  -6.1426595E-04   7.7927545E-04
     23     -230.7694656146  -2.7170988E-04   3.8144801E-04
     24     -230.7695215274  -5.5912776E-05   1.8998675E-04
     25     -230.7695253650  -3.8375752E-06   1.5078974E-04
     26     -230.7695316222  -6.2572096E-06   7.9865354E-05
     27     -230.7695336225  -2.0003619E-06   3.6295956E-05
     28     -230.7695338205  -1.9798000E-07   2.2120888E-05
     29     -230.7695339864  -1.6592409E-07   9.1435812E-06
------------------------------------------------------------

electronic energy        -2.4661401359718E+02 Eh
total energy             -2.3076953398645E+02 Eh

 total:                                   3.692 sec
 - repulsion                              0.000 sec (  0%)
 - dispersion                             0.015 sec (  0%)
 - coulomb                                0.003 sec (  0%)
 - hamiltonian                            0.011 sec (  0%)
 - scc                                    3.662 sec ( 99%)

!!!!!!!!!!!!!!!!!!!!!!!!!!!!!!!!!!!!!!!ERROR!!!!!!!!!!!!!!!!!!!!!!!!!!!!!!!!!!!!
Found no fragments in the input structure.
Aborting...
########################################################################
[ERROR] Program stopped due to fatal error
-3- Something in your DIPRO calculation went wrong.
-2- xtb_dipro: Found no fragments in input structure.
-1- xtb_dipro: No method provided, falling back to default GFN2-xTB.
########################################################################
abnormal termination of xtb
Note: The following floating-point exceptions are signalling: IEEE_UNDERFLOW_FLAG
ERROR STOP 

Error termination. Backtrace:
#0  0x105967cf7
#1  0x105968b07
#2  0x105969f17
#3  0x104723d43
#4  0x104622893
#5  0x1048d5c57
Calculation failed for distance 3.2 Å: Could not parse J values from dimer_3.20.xyz
Stacking distance: 3.25 Å
      -----------------------------------------------------------      
     |                   =====================                   |     
     |                           x T B                           |     
     |                   =====================                   |     
     |                         S. Grimme                         |     
     |          Mulliken Center for Theoretical Chemistry        |     
     |                    University of Bonn                     |     
      -----------------------------------------------------------      

   * xtb version 6.7.1 (edcfbbe) compiled by 'runner@Mac-1732539442253.local' on 2024-11-25

   xtb is free software: you can redistribute it and/or modify it under
   the terms of the GNU Lesser General Public License as published by
   the Free Software Foundation, either version 3 of the License, or
   (at your option) any later version.
   
   xtb is distributed in the hope that it will be useful,
   but WITHOUT ANY WARRANTY; without even the implied warranty of
   MERCHANTABILITY or FITNESS FOR A PARTICULAR PURPOSE.  See the
   GNU Lesser General Public License for more details.
   
   Cite this work as:
   * C. Bannwarth, E. Caldeweyher, S. Ehlert, A. Hansen, P. Pracht,
     J. Seibert, S. Spicher, S. Grimme, WIREs Comput. Mol. Sci., 2020, 11,
     e01493. DOI: 10.1002/wcms.1493
   
   for GFN2-xTB:
   * C. Bannwarth, S. Ehlert and S. Grimme., J. Chem. Theory Comput., 2019,
     15, 1652-1671. DOI: 10.1021/acs.jctc.8b01176
   for GFN1-xTB:
   * S. Grimme, C. Bannwarth, P. Shushkov, J. Chem. Theory Comput., 2017,
     13, 1989-2009. DOI: 10.1021/acs.jctc.7b00118
   for GFN0-xTB:
   * P. Pracht, E. Caldeweyher, S. Ehlert, S. Grimme, ChemRxiv, 2019, preprint.
     DOI: 10.26434/chemrxiv.8326202.v1
   for GFN-FF:
   * S. Spicher and S. Grimme, Angew. Chem. Int. Ed., 2020, 59, 15665-15673.
     DOI: 10.1002/anie.202004239
   
   for ALPB and GBSA implicit solvation:
   * S. Ehlert, M. Stahn, S. Spicher, S. Grimme, J. Chem. Theory Comput.,
     2021, 17, 4250-4261. DOI: 10.1021/acs.jctc.1c00471
   
   for ddCOSMO and CPCM-X implicit solvation:
   * M. Stahn, S. Ehlert, S. Grimme, J. Phys. Chem. A,
     2023, XX, XXXX-XXXX. DOI: 10.1021/acs.jpca.3c04382
   
   for DFT-D4:
   * E. Caldeweyher, C. Bannwarth and S. Grimme, J. Chem. Phys., 2017,
     147, 034112. DOI: 10.1063/1.4993215
   * E. Caldeweyher, S. Ehlert, A. Hansen, H. Neugebauer, S. Spicher,
     C. Bannwarth and S. Grimme, J. Chem. Phys., 2019, 150, 154122.
     DOI: 10.1063/1.5090222
   * E. Caldeweyher, J.-M. Mewes, S. Ehlert and S. Grimme, Phys. Chem. Chem. Phys.
     2020, 22, 8499-8512. DOI: 10.1039/D0CP00502A
   
   for sTDA-xTB:
   * S. Grimme and C. Bannwarth, J. Chem. Phys., 2016, 145, 054103.
     DOI: 10.1063/1.4959605
   
   in the mass-spec context:
   * V. Asgeirsson, C. Bauer and S. Grimme, Chem. Sci., 2017, 8, 4879.
     DOI: 10.1039/c7sc00601b
   * J. Koopman and S. Grimme, ACS Omega 2019, 4, 12, 15120-15133.
     DOI: 10.1021/acsomega.9b02011
   
   for metadynamics refer to:
   * S. Grimme, J. Chem. Theory Comput., 2019, 155, 2847-2862
     DOI: 10.1021/acs.jctc.9b00143
   
   for SPH calculations refer to:
   * S. Spicher and S. Grimme, J. Chem. Theory Comput., 2021, 17, 1701-1714
     DOI: 10.1021/acs.jctc.0c01306
   
   for ONIOM refer to:
   * C. Plett, A. Katbashev, S. Ehlert, S. Grimme, M. Bursch,
     Phys. Chem. Chem. Phys., 2023, 25, 17860-17868. DOI: 10.1039/D3CP02178E
   
   for DIPRO refer to:
   * J. Kohn, N. Gildemeister, S. Grimme, D. Fazzi, A. Hansen,
     J. Chem. Phys., 2023, just accepted.
   
   for PTB refer to:
   * S. Grimme, M. Mueller, A. Hansen, J. Chem. Phys., 2023, 158, 124111.
     DOI: 10.1063/5.0137838
   
   with help from (in alphabetical order)
   P. Atkinson, C. Bannwarth, F. Bohle, G. Brandenburg, E. Caldeweyher
   M. Checinski, S. Dohm, S. Ehlert, S. Ehrlich, I. Gerasimov, C. Hölzer
   A. Katbashev, J. Kohn, J. Koopman, C. Lavigne, S. Lehtola, F. März, M. Müller,
   F. Musil, H. Neugebauer, J. Pisarek, C. Plett, P. Pracht, F. Pultar,
   J. Seibert, P. Shushkov, S. Spicher, M. Stahn, M. Steiner, T. Strunk,
   J. Stückrath, T. Rose, and J. Unsleber
   
 * started run on 2025/03/26 at 12:38:11.848     

           -------------------------------------------------
          |                Calculation Setup                |
           -------------------------------------------------

          program call               : xtb dimer_3.25.xyz --dipro 0.3 --chrg 0 --uhf 2 --input frag.inp --spinpol --tblite
          coordinate file            : dimer_3.25.xyz
          omp threads                :                     8

########################################################################
[WARNING] Please study the warnings concerning your input carefully
-2- userdata_read: could not find 'frag.inp'
-1- set_rdcontrol: could not find 'frag.inp'
########################################################################
           -------------------------------------------------
          |                    D I P R O                    |
           -------------------------------------------------
Calculation for dimer 
--------------------- 
  
charge of dimer :   0.
unpaired e- of dimer :  2
repulsion energy          1.3872011815661E+01 Eh
dispersion energy         3.1600816204827E-02 Eh
number of electrons       4.6200000000000E+02 e
integral cutoff           1.7347787504999E+01 bohr

------------------------------------------------------------
  cycle        total energy    energy error   density error
------------------------------------------------------------
      1     -225.4765952154  -2.3938021E+02   1.3369117E-01
      2     -182.5896822113   4.2886913E+01   2.2657297E-01
      3     -230.4044764835  -4.7814794E+01   9.9574171E-02
      4     -227.9897976181   2.4146789E+00   9.3836233E-02
      5     -230.4342956731  -2.4444981E+00   7.4695769E-02
      6     -230.5451925903  -1.1089692E-01   5.6092569E-02
      7     -230.4601041548   8.5088435E-02   5.4260676E-02
      8     -232.3816710702  -1.9215669E+00   2.9017449E-02
      9     -232.4893078855  -1.0763682E-01   2.3226974E-02
     10     -232.7361556084  -2.4684772E-01   1.8348633E-02
     11     -232.6751277413   6.1027867E-02   1.7614443E-02
     12     -232.8638497636  -1.8872202E-01   1.0393513E-02
     13     -232.8369936466   2.6856117E-02   1.0807156E-02
     14     -232.8486662458  -1.1672599E-02   1.2474160E-02
     15     -232.9021082568  -5.3442011E-02   6.9908803E-03
     16     -232.8246784562   7.7429801E-02   1.3574612E-02
     17     -232.8898676061  -6.5189150E-02   7.8591984E-03
     18     -232.9141673157  -2.4299710E-02   3.1735743E-03
     19     -232.9093565197   4.8107961E-03   4.1494190E-03
     20     -232.9146136745  -5.2571548E-03   2.0835725E-03
     21     -232.9163384004  -1.7247260E-03   1.1526169E-03
     22     -232.9166898018  -3.5140138E-04   6.8273087E-04
     23     -232.9168528044  -1.6300259E-04   3.0666163E-04
     24     -232.9168814414  -2.8637038E-05   2.1359788E-04
     25     -232.9168828341  -1.3926827E-06   1.8642872E-04
     26     -232.9168944853  -1.1651213E-05   1.0610907E-04
     27     -232.9168974394  -2.9540797E-06   7.4475741E-05
     28     -232.9168997698  -2.3303886E-06   3.0097850E-05
     29     -232.9169000498  -2.8003683E-07   1.3402175E-05
------------------------------------------------------------

electronic energy        -2.4682051268172E+02 Eh
total energy             -2.3291690004985E+02 Eh

 total:                                   4.540 sec
 - repulsion                              0.000 sec (  0%)
 - dispersion                             0.013 sec (  0%)
 - coulomb                                0.003 sec (  0%)
 - hamiltonian                            0.011 sec (  0%)
 - scc                                    4.513 sec ( 99%)

!!!!!!!!!!!!!!!!!!!!!!!!!!!!!!!!!!!!!!!ERROR!!!!!!!!!!!!!!!!!!!!!!!!!!!!!!!!!!!!
Found no fragments in the input structure.
Aborting...
########################################################################
[ERROR] Program stopped due to fatal error
-3- Something in your DIPRO calculation went wrong.
-2- xtb_dipro: Found no fragments in input structure.
-1- xtb_dipro: No method provided, falling back to default GFN2-xTB.
########################################################################
abnormal termination of xtb
Note: The following floating-point exceptions are signalling: IEEE_UNDERFLOW_FLAG
ERROR STOP 

Error termination. Backtrace:
#0  0x105ce3cf7
#1  0x105ce4b07
#2  0x105ce5f17
#3  0x104af7d43
#4  0x1049f6893
#5  0x104ca9c57
Calculation failed for distance 3.25 Å: Could not parse J values from dimer_3.25.xyz
Stacking distance: 3.3 Å
      -----------------------------------------------------------      
     |                   =====================                   |     
     |                           x T B                           |     
     |                   =====================                   |     
     |                         S. Grimme                         |     
     |          Mulliken Center for Theoretical Chemistry        |     
     |                    University of Bonn                     |     
      -----------------------------------------------------------      

   * xtb version 6.7.1 (edcfbbe) compiled by 'runner@Mac-1732539442253.local' on 2024-11-25

   xtb is free software: you can redistribute it and/or modify it under
   the terms of the GNU Lesser General Public License as published by
   the Free Software Foundation, either version 3 of the License, or
   (at your option) any later version.
   
   xtb is distributed in the hope that it will be useful,
   but WITHOUT ANY WARRANTY; without even the implied warranty of
   MERCHANTABILITY or FITNESS FOR A PARTICULAR PURPOSE.  See the
   GNU Lesser General Public License for more details.
   
   Cite this work as:
   * C. Bannwarth, E. Caldeweyher, S. Ehlert, A. Hansen, P. Pracht,
     J. Seibert, S. Spicher, S. Grimme, WIREs Comput. Mol. Sci., 2020, 11,
     e01493. DOI: 10.1002/wcms.1493
   
   for GFN2-xTB:
   * C. Bannwarth, S. Ehlert and S. Grimme., J. Chem. Theory Comput., 2019,
     15, 1652-1671. DOI: 10.1021/acs.jctc.8b01176
   for GFN1-xTB:
   * S. Grimme, C. Bannwarth, P. Shushkov, J. Chem. Theory Comput., 2017,
     13, 1989-2009. DOI: 10.1021/acs.jctc.7b00118
   for GFN0-xTB:
   * P. Pracht, E. Caldeweyher, S. Ehlert, S. Grimme, ChemRxiv, 2019, preprint.
     DOI: 10.26434/chemrxiv.8326202.v1
   for GFN-FF:
   * S. Spicher and S. Grimme, Angew. Chem. Int. Ed., 2020, 59, 15665-15673.
     DOI: 10.1002/anie.202004239
   
   for ALPB and GBSA implicit solvation:
   * S. Ehlert, M. Stahn, S. Spicher, S. Grimme, J. Chem. Theory Comput.,
     2021, 17, 4250-4261. DOI: 10.1021/acs.jctc.1c00471
   
   for ddCOSMO and CPCM-X implicit solvation:
   * M. Stahn, S. Ehlert, S. Grimme, J. Phys. Chem. A,
     2023, XX, XXXX-XXXX. DOI: 10.1021/acs.jpca.3c04382
   
   for DFT-D4:
   * E. Caldeweyher, C. Bannwarth and S. Grimme, J. Chem. Phys., 2017,
     147, 034112. DOI: 10.1063/1.4993215
   * E. Caldeweyher, S. Ehlert, A. Hansen, H. Neugebauer, S. Spicher,
     C. Bannwarth and S. Grimme, J. Chem. Phys., 2019, 150, 154122.
     DOI: 10.1063/1.5090222
   * E. Caldeweyher, J.-M. Mewes, S. Ehlert and S. Grimme, Phys. Chem. Chem. Phys.
     2020, 22, 8499-8512. DOI: 10.1039/D0CP00502A
   
   for sTDA-xTB:
   * S. Grimme and C. Bannwarth, J. Chem. Phys., 2016, 145, 054103.
     DOI: 10.1063/1.4959605
   
   in the mass-spec context:
   * V. Asgeirsson, C. Bauer and S. Grimme, Chem. Sci., 2017, 8, 4879.
     DOI: 10.1039/c7sc00601b
   * J. Koopman and S. Grimme, ACS Omega 2019, 4, 12, 15120-15133.
     DOI: 10.1021/acsomega.9b02011
   
   for metadynamics refer to:
   * S. Grimme, J. Chem. Theory Comput., 2019, 155, 2847-2862
     DOI: 10.1021/acs.jctc.9b00143
   
   for SPH calculations refer to:
   * S. Spicher and S. Grimme, J. Chem. Theory Comput., 2021, 17, 1701-1714
     DOI: 10.1021/acs.jctc.0c01306
   
   for ONIOM refer to:
   * C. Plett, A. Katbashev, S. Ehlert, S. Grimme, M. Bursch,
     Phys. Chem. Chem. Phys., 2023, 25, 17860-17868. DOI: 10.1039/D3CP02178E
   
   for DIPRO refer to:
   * J. Kohn, N. Gildemeister, S. Grimme, D. Fazzi, A. Hansen,
     J. Chem. Phys., 2023, just accepted.
   
   for PTB refer to:
   * S. Grimme, M. Mueller, A. Hansen, J. Chem. Phys., 2023, 158, 124111.
     DOI: 10.1063/5.0137838
   
   with help from (in alphabetical order)
   P. Atkinson, C. Bannwarth, F. Bohle, G. Brandenburg, E. Caldeweyher
   M. Checinski, S. Dohm, S. Ehlert, S. Ehrlich, I. Gerasimov, C. Hölzer
   A. Katbashev, J. Kohn, J. Koopman, C. Lavigne, S. Lehtola, F. März, M. Müller,
   F. Musil, H. Neugebauer, J. Pisarek, C. Plett, P. Pracht, F. Pultar,
   J. Seibert, P. Shushkov, S. Spicher, M. Stahn, M. Steiner, T. Strunk,
   J. Stückrath, T. Rose, and J. Unsleber
   
 * started run on 2025/03/26 at 12:38:16.424     

           -------------------------------------------------
          |                Calculation Setup                |
           -------------------------------------------------

          program call               : xtb dimer_3.30.xyz --dipro 0.3 --chrg 0 --uhf 2 --input frag.inp --spinpol --tblite
          coordinate file            : dimer_3.30.xyz
          omp threads                :                     8

########################################################################
[WARNING] Please study the warnings concerning your input carefully
-2- userdata_read: could not find 'frag.inp'
-1- set_rdcontrol: could not find 'frag.inp'
########################################################################
           -------------------------------------------------
          |                    D I P R O                    |
           -------------------------------------------------
Calculation for dimer 
--------------------- 
  
charge of dimer :   0.
unpaired e- of dimer :  2
repulsion energy          1.2343974312465E+01 Eh
dispersion energy         3.1684607792986E-02 Eh
number of electrons       4.6200000000000E+02 e
integral cutoff           1.7347787504999E+01 bohr

------------------------------------------------------------
  cycle        total energy    energy error   density error
------------------------------------------------------------
      1     -227.1250751494  -2.3950073E+02   1.3259541E-01
      2     -181.9011976904   4.5223877E+01   2.2893786E-01
      3     -232.2170918302  -5.0315894E+01   1.0035273E-01
      4     -230.5948092879   1.6222825E+00   9.0567521E-02
      5     -231.8066438269  -1.2118345E+00   7.5919664E-02
      6     -231.5714943733   2.3514945E-01   6.1488244E-02
      7     -232.1580751929  -5.8658082E-01   5.4974212E-02
      8     -233.7371590627  -1.5790839E+00   3.4382508E-02
      9     -234.4119506181  -6.7479156E-01   2.1787372E-02
     10     -234.2670100928   1.4494053E-01   2.2250809E-02
     11     -234.4925611570  -2.2555106E-01   1.7445462E-02
     12     -234.4486178825   4.3943274E-02   1.5780374E-02
     13     -234.6230873648  -1.7446948E-01   8.2784183E-03
     14     -234.5871621387   3.5925226E-02   9.5628027E-03
     15     -234.5929702187  -5.8080799E-03   1.1629919E-02
     16     -234.6439588802  -5.0988662E-02   6.2449034E-03
     17     -234.5931550744   5.0803806E-02   1.0063723E-02
     18     -234.6158877784  -2.2732704E-02   8.4603252E-03
     19     -234.6487309769  -3.2843199E-02   3.2515740E-03
     20     -234.6498946355  -1.1636586E-03   2.4111831E-03
     21     -234.6516035142  -1.7088787E-03   1.8017662E-03
     22     -234.6532385244  -1.6350102E-03   7.8428521E-04
     23     -234.6534554585  -2.1693409E-04   4.6300966E-04
     24     -234.6535784024  -1.2294391E-04   1.6031525E-04
     25     -234.6535645440   1.3858380E-05   1.8832854E-04
     26     -234.6535798720  -1.5327955E-05   1.1745618E-04
     27     -234.6535852976  -5.4255987E-06   5.2895953E-05
     28     -234.6535867439  -1.4463146E-06   3.0687252E-05
     29     -234.6535868706  -1.2667647E-07   2.0679078E-05
     30     -234.6535871540  -2.8345724E-07   6.6119606E-06
------------------------------------------------------------

electronic energy        -2.4702924607428E+02 Eh
total energy             -2.3465358715403E+02 Eh

 total:                                   4.121 sec
 - repulsion                              0.000 sec (  0%)
 - dispersion                             0.013 sec (  0%)
 - coulomb                                0.004 sec (  0%)
 - hamiltonian                            0.013 sec (  0%)
 - scc                                    4.091 sec ( 99%)

!!!!!!!!!!!!!!!!!!!!!!!!!!!!!!!!!!!!!!!ERROR!!!!!!!!!!!!!!!!!!!!!!!!!!!!!!!!!!!!
Found no fragments in the input structure.
Aborting...
########################################################################
[ERROR] Program stopped due to fatal error
-3- Something in your DIPRO calculation went wrong.
-2- xtb_dipro: Found no fragments in input structure.
-1- xtb_dipro: No method provided, falling back to default GFN2-xTB.
########################################################################
abnormal termination of xtb
Note: The following floating-point exceptions are signalling: IEEE_UNDERFLOW_FLAG
ERROR STOP 

Error termination. Backtrace:
#0  0x105983cf7
#1  0x105984b07
#2  0x105985f17
#3  0x104767d43
#4  0x104666893
#5  0x104919c57
Calculation failed for distance 3.3 Å: Could not parse J values from dimer_3.30.xyz
Stacking distance: 3.35 Å
      -----------------------------------------------------------      
     |                   =====================                   |     
     |                           x T B                           |     
     |                   =====================                   |     
     |                         S. Grimme                         |     
     |          Mulliken Center for Theoretical Chemistry        |     
     |                    University of Bonn                     |     
      -----------------------------------------------------------      

   * xtb version 6.7.1 (edcfbbe) compiled by 'runner@Mac-1732539442253.local' on 2024-11-25

   xtb is free software: you can redistribute it and/or modify it under
   the terms of the GNU Lesser General Public License as published by
   the Free Software Foundation, either version 3 of the License, or
   (at your option) any later version.
   
   xtb is distributed in the hope that it will be useful,
   but WITHOUT ANY WARRANTY; without even the implied warranty of
   MERCHANTABILITY or FITNESS FOR A PARTICULAR PURPOSE.  See the
   GNU Lesser General Public License for more details.
   
   Cite this work as:
   * C. Bannwarth, E. Caldeweyher, S. Ehlert, A. Hansen, P. Pracht,
     J. Seibert, S. Spicher, S. Grimme, WIREs Comput. Mol. Sci., 2020, 11,
     e01493. DOI: 10.1002/wcms.1493
   
   for GFN2-xTB:
   * C. Bannwarth, S. Ehlert and S. Grimme., J. Chem. Theory Comput., 2019,
     15, 1652-1671. DOI: 10.1021/acs.jctc.8b01176
   for GFN1-xTB:
   * S. Grimme, C. Bannwarth, P. Shushkov, J. Chem. Theory Comput., 2017,
     13, 1989-2009. DOI: 10.1021/acs.jctc.7b00118
   for GFN0-xTB:
   * P. Pracht, E. Caldeweyher, S. Ehlert, S. Grimme, ChemRxiv, 2019, preprint.
     DOI: 10.26434/chemrxiv.8326202.v1
   for GFN-FF:
   * S. Spicher and S. Grimme, Angew. Chem. Int. Ed., 2020, 59, 15665-15673.
     DOI: 10.1002/anie.202004239
   
   for ALPB and GBSA implicit solvation:
   * S. Ehlert, M. Stahn, S. Spicher, S. Grimme, J. Chem. Theory Comput.,
     2021, 17, 4250-4261. DOI: 10.1021/acs.jctc.1c00471
   
   for ddCOSMO and CPCM-X implicit solvation:
   * M. Stahn, S. Ehlert, S. Grimme, J. Phys. Chem. A,
     2023, XX, XXXX-XXXX. DOI: 10.1021/acs.jpca.3c04382
   
   for DFT-D4:
   * E. Caldeweyher, C. Bannwarth and S. Grimme, J. Chem. Phys., 2017,
     147, 034112. DOI: 10.1063/1.4993215
   * E. Caldeweyher, S. Ehlert, A. Hansen, H. Neugebauer, S. Spicher,
     C. Bannwarth and S. Grimme, J. Chem. Phys., 2019, 150, 154122.
     DOI: 10.1063/1.5090222
   * E. Caldeweyher, J.-M. Mewes, S. Ehlert and S. Grimme, Phys. Chem. Chem. Phys.
     2020, 22, 8499-8512. DOI: 10.1039/D0CP00502A
   
   for sTDA-xTB:
   * S. Grimme and C. Bannwarth, J. Chem. Phys., 2016, 145, 054103.
     DOI: 10.1063/1.4959605
   
   in the mass-spec context:
   * V. Asgeirsson, C. Bauer and S. Grimme, Chem. Sci., 2017, 8, 4879.
     DOI: 10.1039/c7sc00601b
   * J. Koopman and S. Grimme, ACS Omega 2019, 4, 12, 15120-15133.
     DOI: 10.1021/acsomega.9b02011
   
   for metadynamics refer to:
   * S. Grimme, J. Chem. Theory Comput., 2019, 155, 2847-2862
     DOI: 10.1021/acs.jctc.9b00143
   
   for SPH calculations refer to:
   * S. Spicher and S. Grimme, J. Chem. Theory Comput., 2021, 17, 1701-1714
     DOI: 10.1021/acs.jctc.0c01306
   
   for ONIOM refer to:
   * C. Plett, A. Katbashev, S. Ehlert, S. Grimme, M. Bursch,
     Phys. Chem. Chem. Phys., 2023, 25, 17860-17868. DOI: 10.1039/D3CP02178E
   
   for DIPRO refer to:
   * J. Kohn, N. Gildemeister, S. Grimme, D. Fazzi, A. Hansen,
     J. Chem. Phys., 2023, just accepted.
   
   for PTB refer to:
   * S. Grimme, M. Mueller, A. Hansen, J. Chem. Phys., 2023, 158, 124111.
     DOI: 10.1063/5.0137838
   
   with help from (in alphabetical order)
   P. Atkinson, C. Bannwarth, F. Bohle, G. Brandenburg, E. Caldeweyher
   M. Checinski, S. Dohm, S. Ehlert, S. Ehrlich, I. Gerasimov, C. Hölzer
   A. Katbashev, J. Kohn, J. Koopman, C. Lavigne, S. Lehtola, F. März, M. Müller,
   F. Musil, H. Neugebauer, J. Pisarek, C. Plett, P. Pracht, F. Pultar,
   J. Seibert, P. Shushkov, S. Spicher, M. Stahn, M. Steiner, T. Strunk,
   J. Stückrath, T. Rose, and J. Unsleber
   
 * started run on 2025/03/26 at 12:38:20.588     

           -------------------------------------------------
          |                Calculation Setup                |
           -------------------------------------------------

          program call               : xtb dimer_3.35.xyz --dipro 0.3 --chrg 0 --uhf 2 --input frag.inp --spinpol --tblite
          coordinate file            : dimer_3.35.xyz
          omp threads                :                     8

########################################################################
[WARNING] Please study the warnings concerning your input carefully
-2- userdata_read: could not find 'frag.inp'
-1- set_rdcontrol: could not find 'frag.inp'
########################################################################
           -------------------------------------------------
          |                    D I P R O                    |
           -------------------------------------------------
Calculation for dimer 
--------------------- 
  
charge of dimer :   0.
unpaired e- of dimer :  2
repulsion energy          1.1162944261330E+01 Eh
dispersion energy         3.1733090686269E-02 Eh
number of electrons       4.6200000000000E+02 e
integral cutoff           1.7347787504999E+01 bohr

------------------------------------------------------------
  cycle        total energy    energy error   density error
------------------------------------------------------------
      1     -229.3099884500  -2.4050467E+02   1.3002349E-01
      2     -194.4641791050   3.4845809E+01   2.1279182E-01
      3     -234.2312297349  -3.9767051E+01   9.4637255E-02
      4     -230.2240561834   4.0071736E+00   9.6912364E-02
      5     -233.4066332356  -3.1825771E+00   7.4694434E-02
      6     -233.6099203577  -2.0328712E-01   5.5281722E-02
      7     -234.3053786189  -6.9545826E-01   4.8367294E-02
      8     -235.3612164005  -1.0558378E+00   3.1365264E-02
      9     -235.8580795406  -4.9686314E-01   1.9732990E-02
     10     -235.8516345481   6.4449925E-03   1.7136793E-02
     11     -235.9407805891  -8.9146041E-02   1.4581036E-02
     12     -235.8732287002   6.7551889E-02   1.5348575E-02
     13     -235.9366636290  -6.3434929E-02   1.3271393E-02
     14     -236.0191056224  -8.2441993E-02   5.3449215E-03
     15     -235.9229555566   9.6150066E-02   1.4676698E-02
     16     -236.0002992750  -7.7343718E-02   7.8434880E-03
     17     -236.0211966457  -2.0897371E-02   6.2999754E-03
     18     -236.0358115654  -1.4614920E-02   2.5273050E-03
     19     -236.0362965086  -4.8494324E-04   2.1688422E-03
     20     -236.0371052185  -8.0870984E-04   1.3638216E-03
     21     -236.0378884922  -7.8327374E-04   8.7149794E-04
     22     -236.0379145824  -2.6090213E-05   7.6626680E-04
     23     -236.0383156483  -4.0106590E-04   1.8085787E-04
     24     -236.0383292660  -1.3617712E-05   9.2760177E-05
     25     -236.0383292956  -2.9589728E-08   8.4713660E-05
     26     -236.0383316533  -2.3576653E-06   2.4853789E-05
     27     -236.0383319378  -2.8450589E-07   1.9659005E-05
------------------------------------------------------------

electronic energy        -2.4723300928980E+02 Eh
total energy             -2.3603833193778E+02 Eh

 total:                                   3.651 sec
 - repulsion                              0.000 sec (  0%)
 - dispersion                             0.013 sec (  0%)
 - coulomb                                0.004 sec (  0%)
 - hamiltonian                            0.011 sec (  0%)
 - scc                                    3.623 sec ( 99%)

!!!!!!!!!!!!!!!!!!!!!!!!!!!!!!!!!!!!!!!ERROR!!!!!!!!!!!!!!!!!!!!!!!!!!!!!!!!!!!!
Found no fragments in the input structure.
Aborting...
########################################################################
[ERROR] Program stopped due to fatal error
-3- Something in your DIPRO calculation went wrong.
-2- xtb_dipro: Found no fragments in input structure.
-1- xtb_dipro: No method provided, falling back to default GFN2-xTB.
########################################################################
abnormal termination of xtb
Note: The following floating-point exceptions are signalling: IEEE_UNDERFLOW_FLAG
ERROR STOP 

Error termination. Backtrace:
#0  0x10408bcf7
#1  0x10408cb07
#2  0x10408df17
#3  0x102e77d43
#4  0x102d76893
#5  0x103029c57
Calculation failed for distance 3.35 Å: Could not parse J values from dimer_3.35.xyz
Stacking distance: 3.4 Å
      -----------------------------------------------------------      
     |                   =====================                   |     
     |                           x T B                           |     
     |                   =====================                   |     
     |                         S. Grimme                         |     
     |          Mulliken Center for Theoretical Chemistry        |     
     |                    University of Bonn                     |     
      -----------------------------------------------------------      

   * xtb version 6.7.1 (edcfbbe) compiled by 'runner@Mac-1732539442253.local' on 2024-11-25

   xtb is free software: you can redistribute it and/or modify it under
   the terms of the GNU Lesser General Public License as published by
   the Free Software Foundation, either version 3 of the License, or
   (at your option) any later version.
   
   xtb is distributed in the hope that it will be useful,
   but WITHOUT ANY WARRANTY; without even the implied warranty of
   MERCHANTABILITY or FITNESS FOR A PARTICULAR PURPOSE.  See the
   GNU Lesser General Public License for more details.
   
   Cite this work as:
   * C. Bannwarth, E. Caldeweyher, S. Ehlert, A. Hansen, P. Pracht,
     J. Seibert, S. Spicher, S. Grimme, WIREs Comput. Mol. Sci., 2020, 11,
     e01493. DOI: 10.1002/wcms.1493
   
   for GFN2-xTB:
   * C. Bannwarth, S. Ehlert and S. Grimme., J. Chem. Theory Comput., 2019,
     15, 1652-1671. DOI: 10.1021/acs.jctc.8b01176
   for GFN1-xTB:
   * S. Grimme, C. Bannwarth, P. Shushkov, J. Chem. Theory Comput., 2017,
     13, 1989-2009. DOI: 10.1021/acs.jctc.7b00118
   for GFN0-xTB:
   * P. Pracht, E. Caldeweyher, S. Ehlert, S. Grimme, ChemRxiv, 2019, preprint.
     DOI: 10.26434/chemrxiv.8326202.v1
   for GFN-FF:
   * S. Spicher and S. Grimme, Angew. Chem. Int. Ed., 2020, 59, 15665-15673.
     DOI: 10.1002/anie.202004239
   
   for ALPB and GBSA implicit solvation:
   * S. Ehlert, M. Stahn, S. Spicher, S. Grimme, J. Chem. Theory Comput.,
     2021, 17, 4250-4261. DOI: 10.1021/acs.jctc.1c00471
   
   for ddCOSMO and CPCM-X implicit solvation:
   * M. Stahn, S. Ehlert, S. Grimme, J. Phys. Chem. A,
     2023, XX, XXXX-XXXX. DOI: 10.1021/acs.jpca.3c04382
   
   for DFT-D4:
   * E. Caldeweyher, C. Bannwarth and S. Grimme, J. Chem. Phys., 2017,
     147, 034112. DOI: 10.1063/1.4993215
   * E. Caldeweyher, S. Ehlert, A. Hansen, H. Neugebauer, S. Spicher,
     C. Bannwarth and S. Grimme, J. Chem. Phys., 2019, 150, 154122.
     DOI: 10.1063/1.5090222
   * E. Caldeweyher, J.-M. Mewes, S. Ehlert and S. Grimme, Phys. Chem. Chem. Phys.
     2020, 22, 8499-8512. DOI: 10.1039/D0CP00502A
   
   for sTDA-xTB:
   * S. Grimme and C. Bannwarth, J. Chem. Phys., 2016, 145, 054103.
     DOI: 10.1063/1.4959605
   
   in the mass-spec context:
   * V. Asgeirsson, C. Bauer and S. Grimme, Chem. Sci., 2017, 8, 4879.
     DOI: 10.1039/c7sc00601b
   * J. Koopman and S. Grimme, ACS Omega 2019, 4, 12, 15120-15133.
     DOI: 10.1021/acsomega.9b02011
   
   for metadynamics refer to:
   * S. Grimme, J. Chem. Theory Comput., 2019, 155, 2847-2862
     DOI: 10.1021/acs.jctc.9b00143
   
   for SPH calculations refer to:
   * S. Spicher and S. Grimme, J. Chem. Theory Comput., 2021, 17, 1701-1714
     DOI: 10.1021/acs.jctc.0c01306
   
   for ONIOM refer to:
   * C. Plett, A. Katbashev, S. Ehlert, S. Grimme, M. Bursch,
     Phys. Chem. Chem. Phys., 2023, 25, 17860-17868. DOI: 10.1039/D3CP02178E
   
   for DIPRO refer to:
   * J. Kohn, N. Gildemeister, S. Grimme, D. Fazzi, A. Hansen,
     J. Chem. Phys., 2023, just accepted.
   
   for PTB refer to:
   * S. Grimme, M. Mueller, A. Hansen, J. Chem. Phys., 2023, 158, 124111.
     DOI: 10.1063/5.0137838
   
   with help from (in alphabetical order)
   P. Atkinson, C. Bannwarth, F. Bohle, G. Brandenburg, E. Caldeweyher
   M. Checinski, S. Dohm, S. Ehlert, S. Ehrlich, I. Gerasimov, C. Hölzer
   A. Katbashev, J. Kohn, J. Koopman, C. Lavigne, S. Lehtola, F. März, M. Müller,
   F. Musil, H. Neugebauer, J. Pisarek, C. Plett, P. Pracht, F. Pultar,
   J. Seibert, P. Shushkov, S. Spicher, M. Stahn, M. Steiner, T. Strunk,
   J. Stückrath, T. Rose, and J. Unsleber
   
 * started run on 2025/03/26 at 12:38:24.274     

           -------------------------------------------------
          |                Calculation Setup                |
           -------------------------------------------------

          program call               : xtb dimer_3.40.xyz --dipro 0.3 --chrg 0 --uhf 2 --input frag.inp --spinpol --tblite
          coordinate file            : dimer_3.40.xyz
          omp threads                :                     8

########################################################################
[WARNING] Please study the warnings concerning your input carefully
-2- userdata_read: could not find 'frag.inp'
-1- set_rdcontrol: could not find 'frag.inp'
########################################################################
           -------------------------------------------------
          |                    D I P R O                    |
           -------------------------------------------------
Calculation for dimer 
--------------------- 
  
charge of dimer :   0.
unpaired e- of dimer :  2
repulsion energy          1.0281882423319E+01 Eh
dispersion energy         3.1743121215566E-02 Eh
number of electrons       4.6200000000000E+02 e
integral cutoff           1.7347787504999E+01 bohr

------------------------------------------------------------
  cycle        total energy    energy error   density error
------------------------------------------------------------
      1     -230.7551113379  -2.4106874E+02   1.2842850E-01
      2     -197.6044919134   3.3150619E+01   2.0897780E-01
      3     -235.4776072371  -3.7873115E+01   9.2851099E-02
      4     -230.1792099318   5.2983973E+00   1.0177657E-01
      5     -235.5217192116  -5.3425093E+00   6.4649884E-02
      6     -234.3134296929   1.2082895E+00   5.5753539E-02
      7     -235.7282860760  -1.4148564E+00   4.1653517E-02
      8     -236.6473252869  -9.1903921E-01   3.0158783E-02
      9     -236.6401898929   7.1353940E-03   2.3556156E-02
     10     -236.9989625879  -3.5877269E-01   1.7355662E-02
     11     -237.0128726921  -1.3910104E-02   1.2603782E-02
     12     -237.0690448324  -5.6172140E-02   9.5698525E-03
     13     -237.0765841819  -7.5393495E-03   8.6076891E-03
     14     -237.0992898523  -2.2705670E-02   6.3964648E-03
     15     -237.0966336434   2.6562089E-03   5.6123593E-03
     16     -237.0786467448   1.7986899E-02   9.9903513E-03
     17     -237.1079940126  -2.9347268E-02   3.9469951E-03
     18     -237.1125406581  -4.5466455E-03   2.8250027E-03
     19     -237.1145655226  -2.0248645E-03   1.5754907E-03
     20     -237.1161743966  -1.6088740E-03   3.9069011E-04
     21     -237.1152959127   8.7848392E-04   1.2870816E-03
     22     -237.1161651188  -8.6920613E-04   3.8858393E-04
     23     -237.1162034823  -3.8363464E-05   2.0326421E-04
     24     -237.1162287765  -2.5294148E-05   4.3441401E-05
     25     -237.1162293071  -5.3068678E-07   1.6877283E-05
------------------------------------------------------------

electronic energy        -2.4742985485168E+02 Eh
total energy             -2.3711622930715E+02 Eh

 total:                                   2.660 sec
 - repulsion                              0.000 sec (  0%)
 - dispersion                             0.015 sec (  0%)
 - coulomb                                0.005 sec (  0%)
 - hamiltonian                            0.011 sec (  0%)
 - scc                                    2.629 sec ( 98%)

!!!!!!!!!!!!!!!!!!!!!!!!!!!!!!!!!!!!!!!ERROR!!!!!!!!!!!!!!!!!!!!!!!!!!!!!!!!!!!!
Found no fragments in the input structure.
Aborting...
########################################################################
[ERROR] Program stopped due to fatal error
-3- Something in your DIPRO calculation went wrong.
-2- xtb_dipro: Found no fragments in input structure.
-1- xtb_dipro: No method provided, falling back to default GFN2-xTB.
########################################################################
abnormal termination of xtb
Note: The following floating-point exceptions are signalling: IEEE_UNDERFLOW_FLAG
ERROR STOP 

Error termination. Backtrace:
#0  0x106197cf7
#1  0x106198b07
#2  0x106199f17
#3  0x104fc7d43
#4  0x104ec6893
#5  0x105179c57
Calculation failed for distance 3.4 Å: Could not parse J values from dimer_3.40.xyz
Stacking distance: 3.45 Å
      -----------------------------------------------------------      
     |                   =====================                   |     
     |                           x T B                           |     
     |                   =====================                   |     
     |                         S. Grimme                         |     
     |          Mulliken Center for Theoretical Chemistry        |     
     |                    University of Bonn                     |     
      -----------------------------------------------------------      

   * xtb version 6.7.1 (edcfbbe) compiled by 'runner@Mac-1732539442253.local' on 2024-11-25

   xtb is free software: you can redistribute it and/or modify it under
   the terms of the GNU Lesser General Public License as published by
   the Free Software Foundation, either version 3 of the License, or
   (at your option) any later version.
   
   xtb is distributed in the hope that it will be useful,
   but WITHOUT ANY WARRANTY; without even the implied warranty of
   MERCHANTABILITY or FITNESS FOR A PARTICULAR PURPOSE.  See the
   GNU Lesser General Public License for more details.
   
   Cite this work as:
   * C. Bannwarth, E. Caldeweyher, S. Ehlert, A. Hansen, P. Pracht,
     J. Seibert, S. Spicher, S. Grimme, WIREs Comput. Mol. Sci., 2020, 11,
     e01493. DOI: 10.1002/wcms.1493
   
   for GFN2-xTB:
   * C. Bannwarth, S. Ehlert and S. Grimme., J. Chem. Theory Comput., 2019,
     15, 1652-1671. DOI: 10.1021/acs.jctc.8b01176
   for GFN1-xTB:
   * S. Grimme, C. Bannwarth, P. Shushkov, J. Chem. Theory Comput., 2017,
     13, 1989-2009. DOI: 10.1021/acs.jctc.7b00118
   for GFN0-xTB:
   * P. Pracht, E. Caldeweyher, S. Ehlert, S. Grimme, ChemRxiv, 2019, preprint.
     DOI: 10.26434/chemrxiv.8326202.v1
   for GFN-FF:
   * S. Spicher and S. Grimme, Angew. Chem. Int. Ed., 2020, 59, 15665-15673.
     DOI: 10.1002/anie.202004239
   
   for ALPB and GBSA implicit solvation:
   * S. Ehlert, M. Stahn, S. Spicher, S. Grimme, J. Chem. Theory Comput.,
     2021, 17, 4250-4261. DOI: 10.1021/acs.jctc.1c00471
   
   for ddCOSMO and CPCM-X implicit solvation:
   * M. Stahn, S. Ehlert, S. Grimme, J. Phys. Chem. A,
     2023, XX, XXXX-XXXX. DOI: 10.1021/acs.jpca.3c04382
   
   for DFT-D4:
   * E. Caldeweyher, C. Bannwarth and S. Grimme, J. Chem. Phys., 2017,
[...]
     J. Chem. Phys., 2023, just accepted.
   
   for PTB refer to:
   * S. Grimme, M. Mueller, A. Hansen, J. Chem. Phys., 2023, 158, 124111.
     DOI: 10.1063/5.0137838
   
   with help from (in alphabetical order)
   P. Atkinson, C. Bannwarth, F. Bohle, G. Brandenburg, E. Caldeweyher
   M. Checinski, S. Dohm, S. Ehlert, S. Ehrlich, I. Gerasimov, C. Hölzer
   A. Katbashev, J. Kohn, J. Koopman, C. Lavigne, S. Lehtola, F. März, M. Müller,
   F. Musil, H. Neugebauer, J. Pisarek, C. Plett, P. Pracht, F. Pultar,
   J. Seibert, P. Shushkov, S. Spicher, M. Stahn, M. Steiner, T. Strunk,
   J. Stückrath, T. Rose, and J. Unsleber
   
 * started run on 2025/03/26 at 12:42:22.340     

           -------------------------------------------------
          |                Calculation Setup                |
           -------------------------------------------------

          program call               : xtb dimer_9.90.xyz --dipro 0.3 --chrg 0 --uhf 2 --input frag.inp --spinpol --tblite
          coordinate file            : dimer_9.90.xyz
          omp threads                :                     8


molecular fragmentation (1/2 indicates fragments):
111111111111111111111111111111111111111111111111111111111111111111111111
111111111111111111111111222222222222222222222222222222222222222222222222
222222222222222222222222222222222222222222222222
# atoms in fragment 1/2:    96    96
 fragment masses (1/2) :      581.85      581.85
CMA distance (Bohr)    :  18.708
constraining FC (au)   :  0.0500
########################################################################
[WARNING] Please study the warnings concerning your input carefully
-2- userdata_read: could not find 'frag.inp'
-1- set_rdcontrol: could not find 'frag.inp'
########################################################################
           -------------------------------------------------
          |                    D I P R O                    |
           -------------------------------------------------
Calculation for dimer 
--------------------- 
  
charge of dimer :   0.
unpaired e- of dimer :  2
repulsion energy          3.8344770069261E+00 Eh
dispersion energy         9.0285438584196E-03 Eh
number of electrons       4.6200000000000E+02 e
integral cutoff           1.7347787504999E+01 bohr

------------------------------------------------------------
  cycle        total energy    energy error   density error
------------------------------------------------------------
      1     -248.9199229893  -2.5276343E+02   1.0870933E-01
      2     -249.1972261814  -2.7730319E-01   5.5278340E-02
      3     -249.1823720552   1.4854126E-02   2.6105819E-02
      4     -249.2450757848  -6.2703730E-02   9.7815196E-03
      5     -249.2500270483  -4.9512635E-03   3.5946631E-03
      6     -249.2519018951  -1.8748468E-03   1.8545927E-03
      7     -249.2526105941  -7.0869895E-04   6.6334130E-04
      8     -249.2526236550  -1.3060887E-05   2.1154460E-04
      9     -249.2526270835  -3.4284705E-06   7.4851011E-05
     10     -249.2526275894  -5.0592459E-07   3.3359632E-05
     11     -249.2526277012  -1.1179722E-07   1.7108187E-05
------------------------------------------------------------

electronic energy        -2.5309613325196E+02 Eh
total energy             -2.4925262770118E+02 Eh

 total:                                   1.556 sec
 - repulsion                              0.000 sec (  0%)
 - dispersion                             0.013 sec (  0%)
 - coulomb                                0.004 sec (  0%)
 - hamiltonian                            0.012 sec (  0%)
 - scc                                    1.527 sec ( 98%)

Found 2 fragments!
Fragment 1:  1-96
Fragment 2:  97-192

[Info] Fragment spin read from .UHFfrag
Calculation for fragment 1
 ------------------------------
   
charge of fragment :   0.
unpaired e- of fragment :  1
------------------------------------------------------------
  cycle        total energy    energy error   density error
------------------------------------------------------------
      1     -124.4595084118  -1.2637918E+02   1.0872943E-01
      2     -124.5981554805  -1.3864707E-01   5.5273715E-02
      3     -124.5906671086   7.4883720E-03   2.6112163E-02
      4     -124.6220774070  -3.1410298E-02   9.7999538E-03
      5     -124.6245645975  -2.4871905E-03   3.6205255E-03
      6     -124.6255351564  -9.7055896E-04   1.8587828E-03
      7     -124.6258919286  -3.5677215E-04   6.6396778E-04
      8     -124.6258982769  -6.3482643E-06   2.1186495E-04
      9     -124.6259000121  -1.7352597E-06   7.4523479E-05
     10     -124.6259002633  -2.5120957E-07   3.3441732E-05
     11     -124.6259003191  -5.5804762E-08   1.7078645E-05
------------------------------------------------------------

 total:                                   0.362 sec
Calculation for fragment 2
 ------------------------------
   
charge of fragment :   0.
unpaired e- of fragment :  1
------------------------------------------------------------
  cycle        total energy    energy error   density error
------------------------------------------------------------
      1     -124.4595084118  -1.2637918E+02   1.0872943E-01
      2     -124.5981554805  -1.3864707E-01   5.5273715E-02
      3     -124.5906671086   7.4883720E-03   2.6112163E-02
      4     -124.6220774070  -3.1410298E-02   9.7999538E-03
      5     -124.6245645975  -2.4871905E-03   3.6205255E-03
      6     -124.6255351564  -9.7055896E-04   1.8587828E-03
      7     -124.6258919286  -3.5677215E-04   6.6396778E-04
      8     -124.6258982769  -6.3482642E-06   2.1186495E-04
      9     -124.6259000121  -1.7352598E-06   7.4523479E-05
     10     -124.6259002633  -2.5120957E-07   3.3441732E-05
     11     -124.6259003191  -5.5804790E-08   1.7078645E-05
------------------------------------------------------------

 total:                                   0.278 sec
   
   ::::::::::::::::::::::::::::::::::::::::::::::
   ::     D I P R O      C O U P L I N G S     ::
   ::::::::::::::::::::::::::::::::::::::::::::::
   
energy threshhold for near-degenerate orbitals near HOMO and LUMO considered for DIPRO:  0.300 eV
no. of orbitals within energy window of frag 1         2
no. of orbitals within energy window of frag 2         2
   
  Fragment 1 SOMO   Fragment 2 SOMO 
--------------------------------------
E_mon(orb) frag1 frag2              -9.067    -9.046 eV
J(AB):                0.000 eV
S(AB):            -0.00000057 Eh
|J(AB,eff)|:            0.000 eV
   
  Fragment 1 SOMO   Fragment 2 LUMO 
--------------------------------------
E_mon(orb) frag1 frag2              -9.067    -7.329 eV
J(AB):               -0.000 eV
S(AB):             0.00000023 Eh
|J(AB,eff)|:            0.000 eV
   
  Fragment 1 LUMO   Fragment 2 SOMO 
--------------------------------------
E_mon(orb) frag1 frag2              -7.347    -9.046 eV
J(AB):                0.000 eV
S(AB):            -0.00000143 Eh
|J(AB,eff)|:            0.000 eV
   
  Fragment 1 LUMO   Fragment 2 LUMO 
--------------------------------------
E_mon(orb) frag1 frag2              -7.347    -7.329 eV
J(AB):                0.000 eV
S(AB):            -0.00000051 Eh
|J(AB,eff)|:            0.000 eV
   
..............................................................................
:  total |J(AB,eff)| for hole transport (occ. MOs) :               0.000 eV  :
:  total |J(AB,eff)| for charge transport (unocc. MOs) :           0.000 eV  :
:  total |J(AB,eff)| for charge transfer (CT) :                    0.000 eV  :
..............................................................................
  
 Please remember, DIPRO is not available for restart!
   
normal termination of dipro
----------------------------------------------------------
 * finished run on 2025/03/26 at 12:42:24.553     
----------------------------------------------------------
 dipro:
 * wall-time:     0 d,  0 h,  0 min,  2.209 sec
 *  cpu-time:     0 d,  0 h,  0 min,  7.985 sec
 * ratio c/w:     3.614 speedup
normal termination of xtb
Note: The following floating-point exceptions are signalling: IEEE_UNDERFLOW_FLAG
Calculated J at 9.9 Å: Hole=NaN eV, Electron=NaN eV
Stacking distance: 9.95 Å
      -----------------------------------------------------------      
     |                   =====================                   |     
     |                           x T B                           |     
     |                   =====================                   |     
     |                         S. Grimme                         |     
     |          Mulliken Center for Theoretical Chemistry        |     
     |                    University of Bonn                     |     
      -----------------------------------------------------------      

   * xtb version 6.7.1 (edcfbbe) compiled by 'runner@Mac-1732539442253.local' on 2024-11-25

   xtb is free software: you can redistribute it and/or modify it under
   the terms of the GNU Lesser General Public License as published by
   the Free Software Foundation, either version 3 of the License, or
   (at your option) any later version.
   
   xtb is distributed in the hope that it will be useful,
   but WITHOUT ANY WARRANTY; without even the implied warranty of
   MERCHANTABILITY or FITNESS FOR A PARTICULAR PURPOSE.  See the
   GNU Lesser General Public License for more details.
   
   Cite this work as:
   * C. Bannwarth, E. Caldeweyher, S. Ehlert, A. Hansen, P. Pracht,
     J. Seibert, S. Spicher, S. Grimme, WIREs Comput. Mol. Sci., 2020, 11,
     e01493. DOI: 10.1002/wcms.1493
   
   for GFN2-xTB:
   * C. Bannwarth, S. Ehlert and S. Grimme., J. Chem. Theory Comput., 2019,
     15, 1652-1671. DOI: 10.1021/acs.jctc.8b01176
   for GFN1-xTB:
   * S. Grimme, C. Bannwarth, P. Shushkov, J. Chem. Theory Comput., 2017,
     13, 1989-2009. DOI: 10.1021/acs.jctc.7b00118
   for GFN0-xTB:
   * P. Pracht, E. Caldeweyher, S. Ehlert, S. Grimme, ChemRxiv, 2019, preprint.
     DOI: 10.26434/chemrxiv.8326202.v1
   for GFN-FF:
   * S. Spicher and S. Grimme, Angew. Chem. Int. Ed., 2020, 59, 15665-15673.
     DOI: 10.1002/anie.202004239
   
   for ALPB and GBSA implicit solvation:
   * S. Ehlert, M. Stahn, S. Spicher, S. Grimme, J. Chem. Theory Comput.,
     2021, 17, 4250-4261. DOI: 10.1021/acs.jctc.1c00471
   
   for ddCOSMO and CPCM-X implicit solvation:
   * M. Stahn, S. Ehlert, S. Grimme, J. Phys. Chem. A,
     2023, XX, XXXX-XXXX. DOI: 10.1021/acs.jpca.3c04382
   
   for DFT-D4:
   * E. Caldeweyher, C. Bannwarth and S. Grimme, J. Chem. Phys., 2017,
     147, 034112. DOI: 10.1063/1.4993215
   * E. Caldeweyher, S. Ehlert, A. Hansen, H. Neugebauer, S. Spicher,
     C. Bannwarth and S. Grimme, J. Chem. Phys., 2019, 150, 154122.
     DOI: 10.1063/1.5090222
   * E. Caldeweyher, J.-M. Mewes, S. Ehlert and S. Grimme, Phys. Chem. Chem. Phys.
     2020, 22, 8499-8512. DOI: 10.1039/D0CP00502A
   
   for sTDA-xTB:
   * S. Grimme and C. Bannwarth, J. Chem. Phys., 2016, 145, 054103.
     DOI: 10.1063/1.4959605
   
   in the mass-spec context:
   * V. Asgeirsson, C. Bauer and S. Grimme, Chem. Sci., 2017, 8, 4879.
     DOI: 10.1039/c7sc00601b
   * J. Koopman and S. Grimme, ACS Omega 2019, 4, 12, 15120-15133.
     DOI: 10.1021/acsomega.9b02011
   
   for metadynamics refer to:
   * S. Grimme, J. Chem. Theory Comput., 2019, 155, 2847-2862
     DOI: 10.1021/acs.jctc.9b00143
   
   for SPH calculations refer to:
   * S. Spicher and S. Grimme, J. Chem. Theory Comput., 2021, 17, 1701-1714
     DOI: 10.1021/acs.jctc.0c01306
   
   for ONIOM refer to:
   * C. Plett, A. Katbashev, S. Ehlert, S. Grimme, M. Bursch,
     Phys. Chem. Chem. Phys., 2023, 25, 17860-17868. DOI: 10.1039/D3CP02178E
   
   for DIPRO refer to:
   * J. Kohn, N. Gildemeister, S. Grimme, D. Fazzi, A. Hansen,
     J. Chem. Phys., 2023, just accepted.
   
   for PTB refer to:
   * S. Grimme, M. Mueller, A. Hansen, J. Chem. Phys., 2023, 158, 124111.
     DOI: 10.1063/5.0137838
   
   with help from (in alphabetical order)
   P. Atkinson, C. Bannwarth, F. Bohle, G. Brandenburg, E. Caldeweyher
   M. Checinski, S. Dohm, S. Ehlert, S. Ehrlich, I. Gerasimov, C. Hölzer
   A. Katbashev, J. Kohn, J. Koopman, C. Lavigne, S. Lehtola, F. März, M. Müller,
   F. Musil, H. Neugebauer, J. Pisarek, C. Plett, P. Pracht, F. Pultar,
   J. Seibert, P. Shushkov, S. Spicher, M. Stahn, M. Steiner, T. Strunk,
   J. Stückrath, T. Rose, and J. Unsleber
   
 * started run on 2025/03/26 at 12:42:24.592     

           -------------------------------------------------
          |                Calculation Setup                |
           -------------------------------------------------

          program call               : xtb dimer_9.95.xyz --dipro 0.3 --chrg 0 --uhf 2 --input frag.inp --spinpol --tblite
          coordinate file            : dimer_9.95.xyz
          omp threads                :                     8


molecular fragmentation (1/2 indicates fragments):
111111111111111111111111111111111111111111111111111111111111111111111111
111111111111111111111111222222222222222222222222222222222222222222222222
222222222222222222222222222222222222222222222222
# atoms in fragment 1/2:    96    96
 fragment masses (1/2) :      581.85      581.85
CMA distance (Bohr)    :  18.803
constraining FC (au)   :  0.0500
########################################################################
[WARNING] Please study the warnings concerning your input carefully
-2- userdata_read: could not find 'frag.inp'
-1- set_rdcontrol: could not find 'frag.inp'
########################################################################
           -------------------------------------------------
          |                    D I P R O                    |
           -------------------------------------------------
Calculation for dimer 
--------------------- 
  
charge of dimer :   0.
unpaired e- of dimer :  2
repulsion energy          3.8344769558660E+00 Eh
dispersion energy         8.9412363866106E-03 Eh
number of electrons       4.6200000000000E+02 e
integral cutoff           1.7347787504999E+01 bohr

------------------------------------------------------------
  cycle        total energy    energy error   density error
------------------------------------------------------------
      1     -248.9198321451  -2.5276325E+02   1.0871005E-01
      2     -249.1971362831  -2.7730414E-01   5.5278316E-02
      3     -249.1822803425   1.4855941E-02   2.6105958E-02
      4     -249.2449869569  -6.2706614E-02   9.7818922E-03
      5     -249.2499384436  -4.9514867E-03   3.5951343E-03
      6     -249.2518143212  -1.8758776E-03   1.8546883E-03
      7     -249.2525231322  -7.0881099E-04   6.6334500E-04
      8     -249.2525361860  -1.3053749E-05   2.1154755E-04
      9     -249.2525396143  -3.4283883E-06   7.4843772E-05
     10     -249.2525401203  -5.0593420E-07   3.3360188E-05
     11     -249.2525402321  -1.1182880E-07   1.7107692E-05
------------------------------------------------------------

electronic energy        -2.5309595842436E+02 Eh
total energy             -2.4925254023211E+02 Eh

 total:                                   1.153 sec
 - repulsion                              0.000 sec (  0%)
 - dispersion                             0.012 sec (  0%)
 - coulomb                                0.004 sec (  0%)
 - hamiltonian                            0.007 sec (  0%)
 - scc                                    1.129 sec ( 97%)

Found 2 fragments!
Fragment 1:  1-96
Fragment 2:  97-192

[Info] Fragment spin read from .UHFfrag
Calculation for fragment 1
 ------------------------------
   
charge of fragment :   0.
unpaired e- of fragment :  1
------------------------------------------------------------
  cycle        total energy    energy error   density error
------------------------------------------------------------
      1     -124.4595084118  -1.2637918E+02   1.0872943E-01
      2     -124.5981554805  -1.3864707E-01   5.5273715E-02
      3     -124.5906671086   7.4883720E-03   2.6112163E-02
      4     -124.6220774070  -3.1410298E-02   9.7999538E-03
      5     -124.6245645975  -2.4871905E-03   3.6205255E-03
      6     -124.6255351564  -9.7055896E-04   1.8587828E-03
      7     -124.6258919286  -3.5677215E-04   6.6396778E-04
      8     -124.6258982769  -6.3482642E-06   2.1186495E-04
      9     -124.6259000121  -1.7352598E-06   7.4523479E-05
     10     -124.6259002633  -2.5120946E-07   3.3441732E-05
     11     -124.6259003191  -5.5804861E-08   1.7078645E-05
------------------------------------------------------------

 total:                                   0.248 sec
Calculation for fragment 2
 ------------------------------
   
charge of fragment :   0.
unpaired e- of fragment :  1
------------------------------------------------------------
  cycle        total energy    energy error   density error
------------------------------------------------------------
      1     -124.4595084118  -1.2637918E+02   1.0872943E-01
      2     -124.5981554805  -1.3864707E-01   5.5273715E-02
      3     -124.5906671086   7.4883720E-03   2.6112163E-02
      4     -124.6220774070  -3.1410298E-02   9.7999538E-03
      5     -124.6245645975  -2.4871905E-03   3.6205255E-03
      6     -124.6255351564  -9.7055896E-04   1.8587828E-03
      7     -124.6258919286  -3.5677215E-04   6.6396778E-04
      8     -124.6258982769  -6.3482642E-06   2.1186495E-04
      9     -124.6259000121  -1.7352598E-06   7.4523479E-05
     10     -124.6259002633  -2.5120957E-07   3.3441732E-05
     11     -124.6259003191  -5.5804747E-08   1.7078645E-05
------------------------------------------------------------

 total:                                   0.546 sec
   
   ::::::::::::::::::::::::::::::::::::::::::::::
   ::     D I P R O      C O U P L I N G S     ::
   ::::::::::::::::::::::::::::::::::::::::::::::
   
energy threshhold for near-degenerate orbitals near HOMO and LUMO considered for DIPRO:  0.300 eV
no. of orbitals within energy window of frag 1         2
no. of orbitals within energy window of frag 2         2
   
  Fragment 1 SOMO   Fragment 2 SOMO 
--------------------------------------
E_mon(orb) frag1 frag2              -9.068    -9.047 eV
J(AB):                0.000 eV
S(AB):            -0.00000050 Eh
|J(AB,eff)|:            0.000 eV
   
  Fragment 1 SOMO   Fragment 2 LUMO 
--------------------------------------
E_mon(orb) frag1 frag2              -9.068    -7.329 eV
J(AB):               -0.000 eV
S(AB):             0.00000020 Eh
|J(AB,eff)|:            0.000 eV
   
  Fragment 1 LUMO   Fragment 2 SOMO 
--------------------------------------
E_mon(orb) frag1 frag2              -7.347    -9.047 eV
J(AB):                0.000 eV
S(AB):            -0.00000128 Eh
|J(AB,eff)|:            0.000 eV
   
  Fragment 1 LUMO   Fragment 2 LUMO 
--------------------------------------
E_mon(orb) frag1 frag2              -7.347    -7.329 eV
J(AB):                0.000 eV
S(AB):            -0.00000043 Eh
|J(AB,eff)|:            0.000 eV
   
..............................................................................
:  total |J(AB,eff)| for hole transport (occ. MOs) :               0.000 eV  :
:  total |J(AB,eff)| for charge transport (unocc. MOs) :           0.000 eV  :
:  total |J(AB,eff)| for charge transfer (CT) :                    0.000 eV  :
..............................................................................
  
 Please remember, DIPRO is not available for restart!
   
normal termination of dipro
----------------------------------------------------------
 * finished run on 2025/03/26 at 12:42:26.555     
----------------------------------------------------------
 dipro:
 * wall-time:     0 d,  0 h,  0 min,  1.958 sec
 *  cpu-time:     0 d,  0 h,  0 min,  6.773 sec
 * ratio c/w:     3.460 speedup
normal termination of xtb
Note: The following floating-point exceptions are signalling: IEEE_UNDERFLOW_FLAG
Calculated J at 9.95 Å: Hole=NaN eV, Electron=NaN eV
Results saved in transfer_integrals_vs_distance.csv
