192
energy: -124.627455569363 gnorm: 0.000162118846 xtb: 6.7.1 (edcfbbe)_energy: -124.627455569363 gnorm: 0.000162118846 xtb: 6.7.1 (edcfbbe)
C         -0.09570        3.44270       -3.91550
C          1.81820       -2.66240       -0.57610
C         -4.38630        1.09070       -2.75860
C         -3.38140        0.31410       -2.21530
C         -2.06440        0.82340       -2.11900
C         -1.75000        2.00000       -2.83370
C         -2.79150        2.77480       -3.34090
C         -4.11390        2.35800       -3.26990
C         -1.04940        0.18500       -1.34810
C          0.30000        0.49900       -1.65830
C          0.61670        1.62750       -2.44100
N         -0.41760        2.37490       -2.99360
C         -1.26860       -0.65500       -0.21060
C         -0.24160       -1.55060        0.16690
N          0.98190       -1.48580       -0.48930
C          1.33300       -0.32040       -1.16260
C          2.65520        0.05200       -1.35390
C          2.98010        1.20650       -2.05810
C          1.95630        1.97180       -2.60400
C         -2.41310       -0.60940        0.60930
C         -2.61100       -1.54600        1.60980
C         -1.66130       -2.51870        1.88760
C         -0.45920       -2.46730        1.18630
O         -3.38470        0.37470        0.47260
O         -3.54250       -0.98190       -1.82180
H         -5.39430        0.71210       -2.78130
H         -2.58000        3.73350       -3.77480
H         -3.52910       -1.47310        2.16850
H          0.32740       -3.15210        1.45410
H          3.44200       -0.54330       -0.92020
H          2.21870        2.86220       -3.14210
C          1.09680       -3.81040       -1.29290
C          1.97690       -5.05070       -1.37000
C          0.05300        4.79720       -3.21520
C          0.39600        5.89990       -4.20780
C         -2.95460        1.66900        0.81950
C         -4.84330       -1.46710       -1.62440
C         -5.26830        3.21590       -3.76530
C         -5.99000        2.48800       -4.90880
C         -6.24390        3.45110       -2.60310
C         -4.81860        4.58390       -4.28710
C         -1.85820       -3.59140        2.94690
C         -1.68270       -4.97270        2.29900
C         -3.25120       -3.53870        3.57940
C         -0.81780       -3.40610        4.06070
C          4.44570        1.59250       -2.19830
C          4.65470        2.87270       -3.01270
C          5.20240        0.45770       -2.90380
C          5.03800        1.82050       -0.80000
H          6.24750        0.72930       -3.03790
H          4.76620        0.26720       -3.88230
H          5.16360       -0.46310       -2.32870
H          5.71930        3.08970       -3.07690
H          4.16930        3.72320       -2.53940
H          4.27520        2.75970       -4.02580
H          6.08490        2.10740       -0.87670
H          4.97440        0.92280       -0.19170
H          4.49760        2.61490       -0.28960
H         -0.95910       -4.15660        4.83610
H         -0.92090       -2.42060        4.50980
H          0.19420       -3.49970        3.67650
H         -3.35690       -4.35030        4.29710
H         -4.02480       -3.65150        2.82370
H         -3.40520       -2.60150        4.10850
H         -5.69050        5.15680       -4.59750
H         -4.16430        4.47960       -5.14970
H         -4.30480        5.14910       -3.51290
H         -7.08330        4.06050       -2.93230
H         -5.73860        3.96830       -1.78990
H         -6.63320        2.51320       -2.21790
H         -6.80320        3.10180       -5.29130
H         -6.40690        1.54200       -4.57580
H         -5.29610        2.28650       -5.72240
H         -1.85130       -5.75730        3.03400
H         -0.68230       -5.09750        1.89400
H         -2.39700       -5.09900        1.48820
H          2.14610       -2.98450        0.41930
H          2.70810       -2.41080       -1.15230
H          0.83170       -3.47870       -2.29890
H          0.16960       -4.04630       -0.76920
H          2.89740       -4.83710       -1.90940
H          1.45640       -5.85400       -1.88520
H          2.23850       -5.39770       -0.37230
H         -3.78080        2.33840        0.58300
H         -2.07050        1.97660        0.25290
H         -2.72760        1.73130        1.89150
H         -4.72400       -2.45710       -1.18590
H         -5.39300       -1.55670       -2.56910
H         -5.40030       -0.83030       -0.93100
H         -0.87490        3.50030       -4.67840
H          0.82890        3.19250       -4.44140
H          0.83490        4.72320       -2.45680
H         -0.87910        5.03760       -2.70030
H          1.33340        5.68090       -4.71510
H          0.49760        6.85460       -3.69800
H         -0.38450        5.99440       -4.96000
C         -0.09570        3.44270        6.03450
C          1.81820       -2.66240        9.37390
C         -4.38630        1.09070        7.19140
C         -3.38140        0.31410        7.73470
C         -2.06440        0.82340        7.83100
C         -1.75000        2.00000        7.11630
C         -2.79150        2.77480        6.60910
C         -4.11390        2.35800        6.68010
C         -1.04940        0.18500        8.60190
C          0.30000        0.49900        8.29170
C          0.61670        1.62750        7.50900
N         -0.41760        2.37490        6.95640
C         -1.26860       -0.65500        9.73940
C         -0.24160       -1.55060       10.11690
N          0.98190       -1.48580        9.46070
C          1.33300       -0.32040        8.78740
C          2.65520        0.05200        8.59610
C          2.98010        1.20650        7.89190
C          1.95630        1.97180        7.34600
C         -2.41310       -0.60940       10.55930
C         -2.61100       -1.54600       11.55980
C         -1.66130       -2.51870       11.83760
C         -0.45920       -2.46730       11.13630
O         -3.38470        0.37470       10.42260
O         -3.54250       -0.98190        8.12820
H         -5.39430        0.71210        7.16870
H         -2.58000        3.73350        6.17520
H         -3.52910       -1.47310       12.11850
H          0.32740       -3.15210       11.40410
H          3.44200       -0.54330        9.02980
H          2.21870        2.86220        6.80790
C          1.09680       -3.81040        8.65710
C          1.97690       -5.05070        8.58000
C          0.05300        4.79720        6.73480
C          0.39600        5.89990        5.74220
C         -2.95460        1.66900       10.76950
C         -4.84330       -1.46710        8.32560
C         -5.26830        3.21590        6.18470
C         -5.99000        2.48800        5.04120
C         -6.24390        3.45110        7.34690
C         -4.81860        4.58390        5.66290
C         -1.85820       -3.59140       12.89690
C         -1.68270       -4.97270       12.24900
C         -3.25120       -3.53870       13.52940
C         -0.81780       -3.40610       14.01070
C          4.44570        1.59250        7.75170
C          4.65470        2.87270        6.93730
C          5.20240        0.45770        7.04620
C          5.03800        1.82050        9.15000
H          6.24750        0.72930        6.91210
H          4.76620        0.26720        6.06770
H          5.16360       -0.46310        7.62130
H          5.71930        3.08970        6.87310
H          4.16930        3.72320        7.41060
H          4.27520        2.75970        5.92420
H          6.08490        2.10740        9.07330
H          4.97440        0.92280        9.75830
H          4.49760        2.61490        9.66040
H         -0.95910       -4.15660       14.78610
H         -0.92090       -2.42060       14.45980
H          0.19420       -3.49970       13.62650
H         -3.35690       -4.35030       14.24710
H         -4.02480       -3.65150       12.77370
H         -3.40520       -2.60150       14.05850
H         -5.69050        5.15680        5.35250
H         -4.16430        4.47960        4.80030
H         -4.30480        5.14910        6.43710
H         -7.08330        4.06050        7.01770
H         -5.73860        3.96830        8.16010
H         -6.63320        2.51320        7.73210
H         -6.80320        3.10180        4.65870
H         -6.40690        1.54200        5.37420
H         -5.29610        2.28650        4.22760
H         -1.85130       -5.75730       12.98400
H         -0.68230       -5.09750       11.84400
H         -2.39700       -5.09900       11.43820
H          2.14610       -2.98450       10.36930
H          2.70810       -2.41080        8.79770
H          0.83170       -3.47870        7.65110
H          0.16960       -4.04630        9.18080
H          2.89740       -4.83710        8.04060
H          1.45640       -5.85400        8.06480
H          2.23850       -5.39770        9.57770
H         -3.78080        2.33840       10.53300
H         -2.07050        1.97660       10.20290
H         -2.72760        1.73130       11.84150
H         -4.72400       -2.45710        8.76410
H         -5.39300       -1.55670        7.38090
H         -5.40030       -0.83030        9.01900
H         -0.87490        3.50030        5.27160
H          0.82890        3.19250        5.50860
H          0.83490        4.72320        7.49320
H         -0.87910        5.03760        7.24970
H          1.33340        5.68090        5.23490
H          0.49760        6.85460        6.25200
H         -0.38450        5.99440        4.99000
