116
 energy: -22.928061455056 gnorm: 0.329736929581 xtb: 6.6.1 (8d0f1dd)
C           -3.31122850772930        0.79849766164622       -0.92477639677520
C           -2.44380812530352       -0.12270372891954       -0.27661132624697
C           -1.41337090092821        0.39579727573559        0.56335275196199
C           -0.89266158675590        1.65801491088749        0.27377586709581
C           -1.72665675402493        2.51431363229076       -0.49448366572522
C           -2.95444148494349        2.13954154133227       -1.01494489940871
C           -0.74098268209890       -0.43411532818871        1.49825021926784
C            0.56872586496315        0.03782116815119        1.86248088067890
C            1.03782416582094        1.29402317993033        1.50887470833621
N            0.31238977034758        2.07067427098208        0.65193736800696
C           -1.29695700510141       -1.39996043042223        2.41574187746061
C           -0.38243517664656       -2.18060797534842        3.13232615520648
N            0.91308504082021       -1.90366887689689        3.30325166013478
C            1.37712470144904       -0.74872102533751        2.81811050966982
C            2.52149331701875       -0.17739833758153        3.39379298866852
C            2.95849061756259        1.02681208890480        2.95105897606587
C            2.24288949469137        1.78498308775960        2.03503020483770
C           -2.74860936222260       -1.74497937691422        2.38401158947411
C           -3.09416315450955       -2.91614440870436        3.00571134491758
C           -2.16786021984049       -3.77788778654213        3.63251872101904
C           -0.85708937311598       -3.40495313382985        3.68547234358092
O           -3.71994433332149       -0.94984598373544        1.67726658385724
O           -2.55702603277562       -1.47241711578389       -0.57241635275616
C           -3.84297843593025        3.13357444054366       -1.60938954875544
C           -2.68769581069131       -5.03867041417370        4.30484659386931
H           -1.39666850744143        3.51251503834900       -0.76806311868865
H           -4.27662633836220        0.55105838579656       -1.33106614114542
H            2.66329581305412        2.73912661909249        1.72562431984580
H            3.05775395548473       -0.69369546277216        4.16536137542516
H           -0.24710966264510       -4.12034095424229        4.22946223699121
H           -4.11477991332403       -3.04712728052358        3.03244694615357
O           -4.21824883374556        4.03433712717988       -0.87713382485991
O           -4.44510595673734        2.90643496899600       -2.81853501752979
C           -5.44216520282800        3.83300025693726       -3.02488532025093
C            4.23586651889298        1.50004220933226        3.59165660008449
O            5.05927614697201        0.66079890002952        3.91714215179376
O            4.47001334453535        2.86385149488593        3.72605651435371
C            5.79457498613219        3.08584475587818        4.15829123132174
O           -3.82227255313510       -5.27347675879771        4.16636005494405
O           -1.85023202017753       -5.79767454267276        5.06656077253571
C           -2.55119635829503       -6.86252441382958        5.62930343183426
C           -5.07197156564436       -1.42399175670916        1.58830531863830
C           -1.33089900128490       -2.23622472573986       -0.99264499351172
H           -2.54510546830388       -7.76426885143998        4.99136022291012
H           -3.57194749219491       -6.44405511486021        5.74196173723541
H           -2.09133598235598       -7.02043774843818        6.64022264233588
H            5.72707967266424        3.46798026205549        5.10135971236643
H            6.34060091246885        3.78468702308830        3.50069950143490
H            6.17933064298187        2.03010500085905        4.19342358084693
H           -0.91862729772622       -2.57650129080332       -0.01361370304871
H           -0.49769766914251       -1.60651221708571       -1.34094446550576
H           -1.52632419730509       -2.94569707152159       -1.75361447637286
H           -5.11788846557077       -2.41810833635233        1.17520213188926
H           -5.67929807973498       -0.69619639428435        1.04301666067831
H           -5.57598832326623       -1.42383358739762        2.57928294206544
H           -6.13050215934830        3.76035386975488       -2.23272855695873
H           -5.86615610071888        3.45938329385866       -4.02668959924245
H           -5.13479557532099        4.87790991548477       -2.98314551356402
C           -1.38192942069774        3.73616555005018        2.91232598411686
C           -1.84821468128685        2.59982427735607        3.49755545445181
C           -1.05946531454833        2.05730632010638        4.60922730982276
C            0.19893954712228        2.69376791964407        4.86302140881997
C            0.50425395911860        3.94630308659851        4.28768785650746
C           -0.26031777722226        4.46998310053134        3.25072669343212
C           -1.20488993561782        0.74454293276906        5.14851520323437
C           -0.06287609782692        0.02744069315890        5.60930570802864
C            1.19208754369866        0.71421540266195        5.78882868583885
N            1.19428660993148        2.06344359410476        5.62744624321596
C           -2.41361422770794        0.07928500213936        5.25249410304426
C           -2.45851584031083       -1.32662100968547        5.60237876023992
N           -1.29466212405906       -1.98318595734370        5.89916817085159
C           -0.14475655767527       -1.32117560077092        5.98824682881008
C            0.97209270935794       -1.98958449505532        6.53157704134458
C            2.21982707914082       -1.36973967291181        6.68703967237737
C            2.30561929262884       -0.09745313075593        6.26436900324455
C           -3.73018485967715        0.71367583494582        5.25810242262992
C           -4.89964478833448       -0.06184623426677        5.21204641615509
C           -4.82617965800088       -1.39228978090841        5.46901303780036
C           -3.67144193418464       -1.98914944386360        5.67265433266067
O           -3.75568638935321        2.07705011038914        5.52067969627343
O           -2.94192434743730        1.91263938797883        3.01658762327703
C            0.21273512614467        5.50086066357994        2.34765104514621
C           -6.06660304520411       -2.17604633098929        5.80641622556876
H            1.41756699010566        4.38133362238595        4.66974005703471
H           -1.82880610647429        4.11982501512100        2.06992133318584
H            3.26888037378556        0.32655662585251        6.31721410015598
H            0.87146188387207       -3.08471526305024        6.57830423410869
H           -3.67716811065157       -3.05999292755990        5.83019634570050
H           -5.77379677507622        0.43595144608221        4.71017130754348
O            1.34459852619901        5.82615848916894        2.44941456579099
O           -0.74718748219123        6.07961784856304        1.59848183464284
C           -0.21473095568964        7.24015934882472        1.05753806029483
C            3.53228080814219       -2.00967610361154        7.02506769044485
O            3.64093082622715       -3.14437803815732        7.50071391725347
O            4.56565258381079       -1.22937033368332        6.69086985080897
C            5.72579357310716       -1.80692399125161        7.22246151275881
O           -7.04801223588612       -1.95726935745904        5.14194115322235
O           -6.01514389321278       -2.93743591896022        6.94765316328794
C           -7.21292732384718       -3.62681918543340        7.15115816329978
C           -4.95459780685163        2.65960679932188        5.86868674392943
C           -3.68284113682406        2.59129188358641        2.05479246020704
H           -7.43119628931628       -4.22607794725959        6.20622607140901
H           -8.06548455146707       -2.91765848248592        7.29781126410398
H           -7.07314693247270       -4.33087306029711        7.91223421050944
H            6.57332189837178       -1.29353136199234        6.78341268688262
H            5.74663761932316       -2.84282155125561        6.88089468184451
H            5.69426191474290       -1.72781984964892        8.29460302186842
H           -4.10481209541493        3.44288266176275        2.60483747673152
H           -4.49244774344916        1.87419893016926        1.82433103764650
H           -3.18901540870812        2.85154642679373        1.06781919454921
H           -5.55414326821421        2.76698137191684        4.93950725322359
H           -4.78658370641210        3.62090640967288        6.25983200635257
H           -5.43485580473958        1.97242995129449        6.65265772412460
H            0.89164886030839        7.38838561720231        1.13776105146914
H           -0.62894889903848        8.04195665205089        1.64837664327952
H           -0.59282546386754        7.45699159724320        0.03719083132488
116
 energy: -22.824249962309 gnorm: 0.428567557740 xtb: 6.6.1 (8d0f1dd)
C           -2.76277386043114        0.43943066057642       -0.96193656479219
C           -1.97876301611861       -0.48844528861933       -0.25338180010094
C           -1.13610873382659        0.07710554195531        0.76468516985747
C           -0.83306288023072        1.48344768939814        0.65644400071266
C           -1.63712095628995        2.35752307903186       -0.05431233096172
C           -2.54345312669913        1.88409794805530       -0.86461872558270
C           -0.34451463316848       -0.62690708221292        1.75615223839253
C            0.84834806156224       -0.08413451551147        2.19993282897593
C            1.06316258586177        1.26198581042067        1.95634393659679
N            0.27372368697784        2.06032509557699        1.23663856832430
C           -0.80596442239257       -1.83078256327316        2.41780823925683
C            0.19005611454236       -2.59615019645652        3.19711355497917
N            1.44451880832070       -2.13079654007024        3.28271331626337
C            1.82025415445576       -0.91100209311965        2.83655519201342
C            3.06581238911283       -0.33965727857118        3.28720002309021
C            3.16572424578482        1.01475179554574        3.15278369344632
C            2.20012349862354        1.75427582779907        2.45348404390565
C           -2.16159067667486       -2.15540607342906        2.60812310480346
C           -2.57975107768960       -3.33596360995433        3.22301006492459
C           -1.50685269553709       -4.19242818895128        3.73393401550766
C           -0.19850313349169       -3.86087241896715        3.76108446339969
O           -3.03100830381601       -1.12673851821783        2.25713788398280
O           -1.95739448048773       -1.83817206024179       -0.42760026100307
C           -3.54119182359715        2.78651897928068       -1.50301831228595
C           -1.99372325228713       -5.43787692816932        4.32404913602697
H           -1.51433944645124        3.39984104623277        0.01679779844521
H           -3.48424164825593        0.15832712372731       -1.66939062375939
H            2.49621079520086        2.72803579313740        2.22991287221449
H            3.75627781315255       -0.78248877778154        3.99399546147078
H            0.55004347884782       -4.60865405390424        3.99652061552892
H           -3.57561587936925       -3.53567855260986        3.37668077311265
O           -3.17751876700143        3.72031448027003       -2.15742557093532
O           -4.84184157129983        2.60222289611297       -1.25081787937069
C           -5.73637937759564        3.36931187911173       -2.03284328123145
C            4.55775898085366        1.59123902740799        3.47863347648567
O            5.19827367204589        1.36293075459247        4.50871360137397
O            5.09269157891033        2.22775584688588        2.34615435977392
C            6.20611243973709        3.08191435380620        2.54612154988006
O           -3.20085738484838       -5.61779822484003        4.66014483426862
O           -1.05067867248679       -6.33571118711535        4.71362897494797
C           -1.51759122196071       -7.50052904018987        5.30535263940279
C           -4.41221522484105       -1.27379639888246        2.42230227998472
C           -0.91841930772075       -2.20353093091039       -1.35330455970879
H           -2.46502608149447       -7.43853239238310        5.81774348834235
H           -0.71019348358322       -7.81931728210483        5.99032278031525
H           -1.79611983747169       -8.11228863051269        4.45046225929450
H            6.42037246659021        3.63069170408262        1.56452280447162
H            6.96022490034370        2.31639544134851        2.46110770486226
H            6.28899487869034        3.43338151269444        3.52699275815279
H           -0.91213088109078       -3.31166670599590       -1.45696757848879
H            0.05307401597763       -2.04854076505409       -0.83349224856386
H           -1.08966584920753       -1.48795531390824       -2.20741109865963
H           -4.58887388261685       -2.13631119736865        1.82747316016918
H           -5.07208604080270       -0.51266356096748        2.03712297973340
H           -4.60082746443122       -1.44957424627830        3.40612386061321
H           -6.60745100706600        2.86912895249457       -2.19676884012705
H           -5.38335155155590        3.74678858441687       -2.97334659031439
H           -5.91388841892937        4.14496976692420       -1.43694633153348
C           -1.88223796596233        3.89633887368517        3.02049317530256
C           -2.27531158123986        2.84722875235735        3.79269184567901
C           -1.35553408379736        2.21711033260136        4.65673223924868
C           -0.02417904924646        2.74831187994445        4.63222968453419
C            0.23131472660724        4.05724191369510        4.11196738406788
C           -0.67818362488377        4.53921096306257        3.25564110258189
C           -1.52994900597711        1.05785708229939        5.42997175164287
C           -0.41005162389815        0.25668172493883        5.65490144774402
C            0.88648155707325        0.80577237290911        5.53180197979834
N            1.00987799272959        2.10203719649079        5.36413273415802
C           -2.82585262566117        0.47898117371766        5.80565509365732
C           -2.83900088692090       -0.91620696972682        5.82767606239882
N           -1.74868584398920       -1.65436700318153        5.77801093688643
C           -0.53561942671861       -1.12536545217018        5.94055834957048
C            0.64768025012951       -1.84175464287781        6.27033664962243
C            1.91839395341017       -1.28740084377273        6.36349445016779
C            1.99331978385440        0.03679471679810        5.88424335899832
C           -3.95777112129581        1.27687893554010        6.06011802155677
C           -5.14562488594332        0.58482853798740        6.17735814207243
C           -5.23597586766154       -0.82888784966076        5.90341222624593
C           -4.08953341219708       -1.59003794218196        5.76127557945359
O           -3.83023439600327        2.66492787960826        6.31551180403236
O           -3.58834547957747        2.36443658701491        3.74039552226250
C           -0.31324324773419        5.73292024448425        2.49302136676517
C           -6.56995668256995       -1.39979264806237        5.49617199081390
H            1.17172354465291        4.54101180019890        4.12512318451778
H           -2.43686011787221        4.35512922727366        2.10712175701515
H            2.98295398727706        0.39198589253136        5.72544604199552
H            0.55821635566291       -2.91464423088712        6.38754276914071
H           -4.22007470329293       -2.64175037890445        5.49259091754513
H           -6.10321149645459        1.22695974804055        5.97952533834400
O            0.75163110349696        6.32344946554070        2.78033492349959
O           -1.02490052624921        6.06069702978740        1.34929512385149
C           -0.62333179358820        7.32930428546185        1.09883249107895
C            3.02387983288592       -2.17816431401113        6.76060161875361
O            2.84813660769376       -3.32545256285726        7.11775369968578
O            4.30785732485580       -1.70245833262167        6.39154006737108
C            5.18271229425699       -2.83967035635735        6.44388831865540
O           -7.16903016909610       -0.66085535530617        4.69313540477793
O           -7.04061681749206       -2.64819642832506        5.90385345623434
C           -8.09260751584928       -3.17885912727824        5.10666562680682
C           -5.05138496981206        3.42165138564769        6.25268589998377
C           -4.47194631640561        2.61781265258565        2.61638976942672
H           -7.63197391676483       -3.42213127136463        3.98475106283189
H           -8.97970036814385       -2.62797656998258        4.92046642808766
H           -8.21778711305938       -4.13137252177499        5.58990293178878
H            5.74860093874178       -2.78832887494060        5.63079200867200
H            4.70386422089069       -3.75440322522467        6.47830479607453
H            5.69490070629716       -2.79355667961528        7.34026768501311
H           -4.34002950155833        3.66290774387640        2.26205514137575
H           -5.51798053067374        2.44190188540984        2.86187240332565
H           -4.12670150322782        1.89662957404833        1.91839742903721
H           -5.43435091401419        3.48576079279699        5.14958948690597
H           -4.85045472246853        4.52455521804679        6.39269210819892
H           -5.78271476881331        3.07319629440919        7.09668697920660
H            0.46761145277669        7.29016073658188        0.94098353882165
H           -0.91665973701604        7.89565773193976        1.98668401876275
H           -1.14992696964847        7.72037242791676        0.13585411138538
116
 energy: -22.895661175797 gnorm: 0.369010802905 xtb: 6.6.1 (8d0f1dd)
C           -2.92871569713125        0.75036305404099       -0.59571281654194
C           -2.14743345375084       -0.27629154295065        0.09689436332140
C           -1.06856392281443        0.17066245596678        0.92965364889506
C           -0.69259675345111        1.55121851596018        0.91143289694042
C           -1.45630743749964        2.51206976045570        0.24290437871569
C           -2.58234001101298        2.11409953968010       -0.48561508824071
C           -0.17217328082198       -0.73329921003471        1.73293810680083
C            1.13305176571309       -0.23457388669243        1.96141916569001
C            1.44819955562887        1.11906583846263        1.72395561620957
N            0.55061489191263        1.98642709340643        1.26401992416698
C           -0.56210176033791       -1.87620269943410        2.48433943435097
C            0.43845774586420       -2.62320410610370        3.13405091699174
N            1.77902381619028       -2.32124789687260        3.06389954840185
C            2.11539347594370       -1.13402305987432        2.57204495396663
C            3.39363082422898       -0.65165664893343        2.80683500768886
C            3.71617169467691        0.62734573112430        2.35626962869247
C            2.77634723781128        1.55639802149891        1.96497577376616
C           -1.91180705076812       -2.14204727361917        2.78044787065392
C           -2.24329259342647       -3.32830822777944        3.40389952520106
C           -1.29471835784145       -4.10941033597367        3.95164603168587
C            0.03191478030441       -3.77216312692935        3.83470672313764
O           -2.84735728271679       -1.11514400533311        2.52402651098735
O           -2.37007514663549       -1.61942048255492       -0.18820840230910
C           -3.43215761916794        3.23261752990109       -0.96842342981782
C           -1.60329640995482       -5.41126368697841        4.61171941928086
H           -1.06999512849386        3.53936272788783        0.15055921644444
H           -3.69623871447921        0.50293312941388       -1.23863544818305
H            3.11692667948836        2.49069516790144        1.75089969752599
H            4.11053537499121       -1.11788577927754        3.44296084517767
H            0.75965357046996       -4.46886436518518        4.12446348164237
H           -3.24363588285676       -3.50191780289236        3.61037989535234
O           -3.66060630825917        4.11778876177315       -0.18596677382115
O           -3.98364959120636        3.01748235861414       -2.28776961089079
C           -4.84870532148152        4.06174247410346       -2.68233189425378
C            5.06594172595208        1.18754065198838        2.47387601559816
O            5.94398989908031        0.32302637465551        2.61785148336610
O            5.21974268510579        2.55008845713196        2.36322366159633
C            6.58856293522967        2.86003869585021        2.56531306611552
O           -2.72841943076955       -5.91226100504909        4.57255771855900
O           -0.52174426672948       -6.04509669559194        5.14399050959132
C           -0.72902582254379       -7.23550833171587        5.73405857605736
C           -4.22550740052365       -1.28116031847006        2.53448290471213
C           -1.32654770431064       -2.49948836173584       -0.39148564463342
H           -0.53583228315317       -6.97467066953917        6.79490241724316
H            0.07919626072551       -7.91389726180041        5.34262299565671
H           -1.80033553324031       -7.37611206705164        5.56423013429654
H            6.54501764892456        3.84104608302467        3.06918548381856
H            7.24429939265346        3.01929352669942        1.65182404725985
H            6.97102884530475        2.00730379114873        3.23256596648444
H           -1.51417791648315       -3.51550954866939        0.11300288739848
H           -0.37544246602045       -2.16539510816886        0.03019987996934
H           -1.03277643761112       -2.67531457754745       -1.42927815842972
H           -4.51032969195542       -1.75717919566022        1.58892291544678
H           -4.55759905741330       -0.30693776467760        2.65446389067071
H           -4.56399123025335       -1.75947076042693        3.44154489061544
H           -4.45225839501536        5.01124372634482       -2.51800918403319
H           -5.70714134581803        3.76168181934282       -2.05494997466355
H           -5.07011707946321        3.92327037996994       -3.75168244515218
C           -2.08155714383189        4.04000286759416        2.77320012524280
C           -2.43049236695567        2.81093232611634        3.35655477489439
C           -1.49379912744913        2.02055133106227        4.22530373512727
C           -0.10262166711075        2.49628088552815        4.24887334092795
C            0.16816563146029        3.75885759445719        3.56664366451736
C           -0.81060802262530        4.49658632476836        2.90332444168847
C           -1.78087088680960        0.83149410591540        5.00687618031048
C           -0.71846216259877        0.06870670426077        5.56528673206785
C            0.65900578196211        0.64101204521041        5.35710647294517
N            0.93758657267430        1.82067687905478        4.72791850152538
C           -3.10053431354758        0.31390499754456        5.43759320083403
C           -3.21666915724104       -0.95753060312521        6.00750151975214
N           -2.17271999535269       -1.73629702915515        6.38890480670546
C           -0.90570643041560       -1.23747518987341        6.22406656870836
C            0.24888310153651       -1.99715536592577        6.58467404960560
C            1.46456321457479       -1.41023518407357        6.42493187085093
C            1.70327425614727       -0.16309281433153        5.81523542144960
C           -4.26017751085767        1.15177355443100        5.59935080804721
C           -5.49615053941384        0.52256655045717        5.85212277531512
C           -5.62780983543005       -0.84255593712061        5.98139621808441
C           -4.44192746944560       -1.55860643293996        6.23054821194772
O           -4.23742137178885        2.50413341292649        5.53974991047017
O           -3.60515945063644        2.20366191167784        3.13805177569220
C           -0.52255022877844        5.92620265078073        2.60815056670848
C           -6.99581918156896       -1.53680021848836        5.75251848035422
H            1.17524194283003        4.16840017195378        3.71154755004245
H           -2.79431928161337        4.70814177668607        2.17447241756810
H            2.72308774541596        0.11163400716367        5.57795996112221
H            0.12664510011417       -3.05608869108338        6.81500012794092
H           -4.31965641044977       -2.64347936242787        6.41120584462309
H           -6.51265354565280        1.04751306787208        5.72337116062187
O            0.37196125595377        6.50136148867667        3.11877764886920
O           -1.25561763883660        6.57003151849351        1.57725529862432
C           -0.81459904966552        7.91289380691862        1.44803204980859
C            2.70200853849138       -2.16074110683784        6.81619168690054
O            2.51299827722901       -3.25851347121308        7.33029848129300
O            3.88801502404522       -1.60045397627973        6.38169311843248
C            4.83583596686988       -2.50508565000031        6.79015157490863
O           -7.93790933890661       -0.90607067102344        6.10432639292498
O           -6.98307007887022       -2.73500945038808        5.10380530769622
C           -8.20512636231375       -3.20647051762324        4.72765952670341
C           -5.33696587436752        3.16142701579505        6.20846085198137
C           -4.65054564730994        2.81087715061210        2.38201275988161
H           -8.60337808400407       -3.68701905059525        5.72053735564781
H           -8.23760602468792       -3.93385592657861        3.92535954024510
H           -8.91582175640243       -2.34952584937993        4.45848727998861
H            4.43241572272883       -3.56795953556899        6.68301930836367
H            5.08423413938873       -2.21341050912714        7.87219635374028
H            5.77945267167351       -2.50087327001625        6.10235371499647
H           -5.10665405523851        3.47968381600984        3.07361157341313
H           -5.46248211524720        2.02107127163898        2.20998128469600
H           -4.23216394917415        3.29177787871784        1.48433494264382
H           -6.44474046135373        2.85848383339598        5.90911385643281
H           -5.31483261548543        4.32132721931526        6.10002581917034
H           -5.25899342555098        3.03148015883726        7.34452566050121
H           -1.01019543957227        8.48366523594128        2.37596301304717
H           -1.40184986829776        8.30219914940946        0.57997692128892
H            0.19203084059279        7.76315609538437        1.20650586434455
116
 energy: -22.866069702632 gnorm: 0.397501918964 xtb: 6.6.1 (8d0f1dd)
C           -2.79891428853990        0.74780158163503       -0.51887790427915
C           -2.01232455923955       -0.15103347567130        0.15995504644759
C           -0.82187105528211        0.42019096367657        0.75062264078023
C           -0.28172240648118        1.65639190414155        0.28365682292760
C           -1.06668593647896        2.40590956607493       -0.58499707307753
C           -2.35459522219314        2.03800191274409       -0.89861867396823
C           -0.26763344647100       -0.11220344201591        1.89254817342296
C            1.05418901392915        0.19283447849434        2.10999754888375
C            1.67083240506491        1.27923637180848        1.47725650904376
N            0.94054925199573        2.10116680812745        0.66344041848316
C           -0.72110339434358       -1.33393901968401        2.59871892679288
C            0.18373895630634       -2.13677137309517        3.26795534996997
N            1.49416677512052       -1.86108668087167        3.42128634583495
C            1.83405885088741       -0.67850002132431        2.92224122476901
C            3.19926375168002       -0.26781065700561        3.24719596822228
C            3.74217510277877        0.89371623221336        2.69781313288567
C            2.96315106398778        1.69982591994367        1.90696688759157
C           -2.11312767222146       -1.83467745712944        2.70899912235505
C           -2.33187483540904       -3.14960063923042        3.04798148681261
C           -1.31212165216403       -4.01123853185441        3.46117685847804
C            0.00383454376161       -3.52168436584681        3.59045304595909
O           -3.02170321003011       -0.90726715498852        2.39853433874202
O           -2.16537921214578       -1.58763354315763       -0.03956598142359
C           -3.21093107366002        3.10452422869528       -1.50241534256469
C           -1.77223576416613       -5.32904340125769        4.03414985409401
H           -0.56405872697864        3.18131338854392       -1.17629897471903
H           -3.74848947497067        0.57892718453154       -0.92485095286764
H            3.31190389139586        2.59864744830401        1.39258731875507
H            3.75372848879621       -1.00421272100275        3.60970053910324
H            0.77932918661786       -4.19954035978680        3.57956492480916
H           -3.32550325446918       -3.50994664065134        3.27661771027506
O           -4.41729330081452        3.18428130130857       -1.24992396610557