116
 energy: -22.928061455056 gnorm: 0.329736929581 xtb: 6.6.1 (8d0f1dd)
C           -3.31122850772930        0.79849766164622       -0.92477639677520
C           -2.44380812530352       -0.12270372891954       -0.27661132624697
C           -1.41337090092821        0.39579727573559        0.56335275196199
C           -0.89266158675590        1.65801491088749        0.27377586709581
C           -1.72665675402493        2.51431363229076       -0.49448366572522
C           -2.95444148494349        2.13954154133227       -1.01494489940871
C           -0.74098268209890       -0.43411532818871        1.49825021926784
C            0.56872586496315        0.03782116815119        1.86248088067890
C            1.03782416582094        1.29402317993033        1.50887470833621
N            0.31238977034758        2.07067427098208        0.65193736800696
C           -1.29695700510141       -1.39996043042223        2.41574187746061
C           -0.38243517664656       -2.18060797534842        3.13232615520648
N            0.91308504082021       -1.90366887689689        3.30325166013478
C            1.37712470144904       -0.74872102533751        2.81811050966982
C            2.52149331701875       -0.17739833758153        3.39379298866852
C            2.95849061756259        1.02681208890480        2.95105897606587
C            2.24288949469137        1.78498308775960        2.03503020483770
C           -2.74860936222260       -1.74497937691422        2.38401158947411
C           -3.09416315450955       -2.91614440870436        3.00571134491758
C           -2.16786021984049       -3.77788778654213        3.63251872101904
C           -0.85708937311598       -3.40495313382985        3.68547234358092
O           -3.71994433332149       -0.94984598373544        1.67726658385724
O           -2.55702603277562       -1.47241711578389       -0.57241635275616
C           -3.84297843593025        3.13357444054366       -1.60938954875544
C           -2.68769581069131       -5.03867041417370        4.30484659386931
H           -1.39666850744143        3.51251503834900       -0.76806311868865
H           -4.27662633836220        0.55105838579656       -1.33106614114542
H            2.66329581305412        2.73912661909249        1.72562431984580
H            3.05775395548473       -0.69369546277216        4.16536137542516
H           -0.24710966264510       -4.12034095424229        4.22946223699121
H           -4.11477991332403       -3.04712728052358        3.03244694615357
O           -4.21824883374556        4.03433712717988       -0.87713382485991
O           -4.44510595673734        2.90643496899600       -2.81853501752979
C           -5.44216520282800        3.83300025693726       -3.02488532025093
C            4.23586651889298        1.50004220933226        3.59165660008449
O            5.05927614697201        0.66079890002952        3.91714215179376
O            4.47001334453535        2.86385149488593        3.72605651435371
C            5.79457498613219        3.08584475587818        4.15829123132174
O           -3.82227255313510       -5.27347675879771        4.16636005494405
O           -1.85023202017753       -5.79767454267276        5.06656077253571
C           -2.55119635829503       -6.86252441382958        5.62930343183426
C           -5.07197156564436       -1.42399175670916        1.58830531863830
C           -1.33089900128490       -2.23622472573986       -0.99264499351172
H           -2.54510546830388       -7.76426885143998        4.99136022291012
H           -3.57194749219491       -6.44405511486021        5.74196173723541
H           -2.09133598235598       -7.02043774843818        6.64022264233588
H            5.72707967266424        3.46798026205549        5.10135971236643
H            6.34060091246885        3.78468702308830        3.50069950143490
H            6.17933064298187        2.03010500085905        4.19342358084693
H           -0.91862729772622       -2.57650129080332       -0.01361370304871
H           -0.49769766914251       -1.60651221708571       -1.34094446550576
H           -1.52632419730509       -2.94569707152159       -1.75361447637286
H           -5.11788846557077       -2.41810833635233        1.17520213188926
H           -5.67929807973498       -0.69619639428435        1.04301666067831
H           -5.57598832326623       -1.42383358739762        2.57928294206544
H           -6.13050215934830        3.76035386975488       -2.23272855695873
H           -5.86615610071888        3.45938329385866       -4.02668959924245
H           -5.13479557532099        4.87790991548477       -2.98314551356402
C           -1.38192942069774        3.73616555005018        2.91232598411686
C           -1.84821468128685        2.59982427735607        3.49755545445181
C           -1.05946531454833        2.05730632010638        4.60922730982276
C            0.19893954712228        2.69376791964407        4.86302140881997
C            0.50425395911860        3.94630308659851        4.28768785650746
C           -0.26031777722226        4.46998310053134        3.25072669343212
C           -1.20488993561782        0.74454293276906        5.14851520323437
C           -0.06287609782692        0.02744069315890        5.60930570802864
C            1.19208754369866        0.71421540266195        5.78882868583885
N            1.19428660993148        2.06344359410476        5.62744624321596
C           -2.41361422770794        0.07928500213936        5.25249410304426
C           -2.45851584031083       -1.32662100968547        5.60237876023992
N           -1.29466212405906       -1.98318595734370        5.89916817085159
C           -0.14475655767527       -1.32117560077092        5.98824682881008
C            0.97209270935794       -1.98958449505532        6.53157704134458
C            2.21982707914082       -1.36973967291181        6.68703967237737
C            2.30561929262884       -0.09745313075593        6.26436900324455
C           -3.73018485967715        0.71367583494582        5.25810242262992
C           -4.89964478833448       -0.06184623426677        5.21204641615509
C           -4.82617965800088       -1.39228978090841        5.46901303780036
C           -3.67144193418464       -1.98914944386360        5.67265433266067
O           -3.75568638935321        2.07705011038914        5.52067969627343
O           -2.94192434743730        1.91263938797883        3.01658762327703
C            0.21273512614467        5.50086066357994        2.34765104514621
C           -6.06660304520411       -2.17604633098929        5.80641622556876
H            1.41756699010566        4.38133362238595        4.66974005703471
H           -1.82880610647429        4.11982501512100        2.06992133318584
H            3.26888037378556        0.32655662585251        6.31721410015598
H            0.87146188387207       -3.08471526305024        6.57830423410869
H           -3.67716811065157       -3.05999292755990        5.83019634570050
H           -5.77379677507622        0.43595144608221        4.71017130754348
O            1.34459852619901        5.82615848916894        2.44941456579099
O           -0.74718748219123        6.07961784856304        1.59848183464284
C           -0.21473095568964        7.24015934882472        1.05753806029483
C            3.53228080814219       -2.00967610361154        7.02506769044485
O            3.64093082622715       -3.14437803815732        7.50071391725347
O            4.56565258381079       -1.22937033368332        6.69086985080897
C            5.72579357310716       -1.80692399125161        7.22246151275881
O           -7.04801223588612       -1.95726935745904        5.14194115322235
O           -6.01514389321278       -2.93743591896022        6.94765316328794
C           -7.21292732384718       -3.62681918543340        7.15115816329978
C           -4.95459780685163        2.65960679932188        5.86868674392943
C           -3.68284113682406        2.59129188358641        2.05479246020704
H           -7.43119628931628       -4.22607794725959        6.20622607140901
H           -8.06548455146707       -2.91765848248592        7.29781126410398
H           -7.07314693247270       -4.33087306029711        7.91223421050944
H            6.57332189837178       -1.29353136199234        6.78341268688262
H            5.74663761932316       -2.84282155125561        6.88089468184451
H            5.69426191474290       -1.72781984964892        8.29460302186842
H           -4.10481209541493        3.44288266176275        2.60483747673152
H           -4.49244774344916        1.87419893016926        1.82433103764650
H           -3.18901540870812        2.85154642679373        1.06781919454921
H           -5.55414326821421        2.76698137191684        4.93950725322359
H           -4.78658370641210        3.62090640967288        6.25983200635257
H           -5.43485580473958        1.97242995129449        6.65265772412460
H            0.89164886030839        7.38838561720231        1.13776105146914
H           -0.62894889903848        8.04195665205089        1.64837664327952
H           -0.59282546386754        7.45699159724320        0.03719083132488
116
 energy: -22.544728420757 gnorm: 0.657786152433 xtb: 6.6.1 (8d0f1dd)
C           -3.23777989495804        0.10127479351849       -1.89218761443373
C           -2.80058460953825       -0.82555895565306       -0.86876248818417
C           -2.09390867620995       -0.14906526409685        0.10012367409810
C           -1.83822309451260        1.24488922019019       -0.07238394275512
C           -2.16822582612651        2.08656401762617       -1.12436410776569
C           -2.88915606108843        1.40738774488287       -2.06871739068235
C           -1.57728754606346       -0.66690991953359        1.42873683598121
C           -0.35930403657997       -0.15553543504851        1.83969682984154
C            0.04202506821535        1.13872104574177        1.59560253614539
N           -0.75306644922933        1.83994897459045        0.65861345932938
C           -1.93316412460379       -2.00864052999084        1.82237564492289
C           -0.83941835171058       -2.84673963620012        2.04041345121056
N            0.29224870854527       -2.38527229304968        2.71259001347522
C            0.54633463893002       -1.02499893797371        2.58805585854535
C            1.94236518120357       -0.60601547089862        2.68409123580058
C            2.22254913144945        0.84281771383385        2.56333740291380
C            1.19580626671962        1.66658761663205        2.13027751756026
C           -3.15932860471151       -2.57023179810556        1.64586127353866
C           -3.28695172695192       -3.93979660447013        1.77170980942370
C           -2.27146469318335       -4.83183110305943        2.09126538719977
C           -1.00020463710691       -4.23336908430393        2.12720211650234
O           -4.12227383647348       -1.51217376289271        1.51259796568105
O           -2.93246603909549       -2.19888832918325       -1.14924438918479
C           -3.68409888260785        2.29003652326069       -3.06238289184880
C           -2.34530666243086       -6.31481093367841        2.42124146806896
H           -2.06090340418548        3.12344313466511       -1.05648410038031
H           -3.74607266628555       -0.38776184161754       -2.71851464313311
H            1.50150802493801        2.63102184041640        1.80340578556163
H            2.54521007359109       -1.27646785195461        3.22411512158586
H           -0.16087647668015       -4.83111312101996        2.42568744164242
H           -4.27516864084610       -4.36342596216961        1.71218529052693
O           -3.22129914873879        3.15497468966258       -3.71802160197302
O           -4.97709849685916        1.90881711897390       -3.05961195685100
C           -6.05661087158779        2.33155173657629       -3.84771526934419
C            3.62448575867818        1.34259422605035        2.99481229140177
O            4.46209626218487        0.64203633251016        3.53753042768025
O            3.72067787455917        2.73821640800814        2.79065257322911
C            5.02585013985765        3.31277852661242        3.26403280130589
O           -3.40709574492318       -6.80314384338610        2.82408213386076
O           -1.10984951685770       -7.03326700642336        2.04517652816885
C           -1.23830793420553       -8.46254195036487        2.38175431038642
C           -5.22550185216698       -1.76503173602232        2.33825846703249
C           -1.84515782694178       -2.94848953978615       -1.50349275997531
H           -0.34904247699385       -8.62393368268150        2.94928551056288
H           -1.10998905594567       -9.17845377703168        1.50159463187626
H           -2.12127372167119       -8.53368257677518        2.88114401505548
H            5.31528618320340        3.02235576565894        4.29941042031553
H            4.94985133992458        4.29225177737921        3.32291965344633
H            5.76960942964367        3.16551170708708        2.54911660906392
H           -1.48117078596041       -3.64611168789563       -0.79388897497319
H           -1.04882609735869       -2.35933758912846       -1.66310576873539
H           -1.99008159037472       -3.66600010385064       -2.42564562012829
H           -5.72457174862434       -2.56996624396323        1.79036373776133
H           -5.94807600669453       -0.92035714576877        2.30018078694070
H           -4.91651857092845       -2.08440495523350        3.26408121563579
H           -6.87570474592753        2.34195039102390       -3.05822151184238
H           -6.59491378265949        1.84194836682531       -4.87916440831595
H           -5.77564676959963        3.30891837311037       -4.19135426073890
C           -1.21397804307165        4.56646606735322        3.80033036923653
C           -1.59563599950936        3.30969330634630        4.36262138775792
C           -0.69454206628317        2.79537392886837        5.46303980191679
C            0.74241223000827        3.30149346428564        5.43342884361724
C            1.18163168120235        4.43383129745447        4.75131527860893
C            0.12665904536039        5.01300574867731        4.11365591516148
C           -0.94482294050308        1.49034886447488        6.04001199771135
C            0.20131491469718        0.75495781591747        6.42642300530935
C            1.46702194658826        1.29637168365531        6.20951632279481
N            1.71823318601197        2.60106122294856        6.09936202745823
C           -2.25873126617518        0.86427451548361        6.34658454272329
C           -2.38253879767398       -0.46320187953367        6.87578538329487
N           -1.26958494999795       -1.14119705619801        7.13758834658058
C           -0.08915889644647       -0.53939455506587        6.85658167918921
C            1.02985512745943       -1.20223368636302        7.46453114893750
C            2.31534477375598       -0.64334569181249        7.50036224899029
C            2.46788470953608        0.54907278989741        6.81751305392857
C           -3.35243704721994        1.73903618073542        6.75736791608394
C           -4.59737129500094        1.11524624236839        6.84062380510587
C           -4.85540597928850       -0.22997549852112        6.55490204438739
C           -3.69090847692712       -1.02202503433183        6.78633715825102
O           -2.99627794364734        3.08965561809423        6.89860115078835
O           -2.92941689734312        2.74258057677435        3.96139938606812
C            0.75299201542306        6.11248022854490        3.41767157589681
C           -6.19744107991201       -0.83927982391020        6.43494337031674
H            2.02841222290002        5.06199669684313        4.67658755326519
H           -1.57942816554311        4.92712646917777        3.04061983481196
H            3.30107945790192        1.17738611066865        7.10530901692333
H            1.02629867398447       -2.12942581319490        7.76366622435031
H           -3.79033936851515       -2.04176762073643        6.88250163741240
H           -5.50944472440692        1.73166324105158        6.78037970001598
O            1.49888855916100        6.98180262443601        3.99548772226528
O            0.53578540762024        5.78693398810546        2.13145693468865
C            1.15077096420145        6.76988839119839        1.33125569168002
C            3.31521125261535       -1.44409254000924        7.94197420388498
O            3.24951732841894       -2.68577739915975        8.09614444142755
O            4.43764456453638       -0.68469262266837        8.04481948286248
C            5.74180690408978       -1.33336749672216        8.12197926439984
O           -7.05206224419928       -0.25782158562698        6.95717749996227
O           -6.08274762809806       -2.03754864969556        5.95089099006741
C           -7.27031637454253       -2.65862521011434        5.95497315920989
C           -3.65807993608262        3.83057197104688        7.95975538466879
C           -3.01396837295610        1.34998325758066        3.48321618191279
H           -7.11570908050720       -3.68741303328417        6.11664661256801
H           -7.41653234340626       -2.82400072256518        4.79165505950511
H           -8.00003177289737       -2.17486562136686        6.47689477924694
H            6.23885780188823       -1.02585462172711        7.25746580783395
H            5.53609493274011       -2.27995992099714        7.91508135772092
H            6.30091827455589       -1.02051857194980        8.88576864321871
H           -2.19691619625682        1.03743784712539        3.94021513158494
H           -3.29538852597479        1.26801691990369        2.36150678853934
H           -3.91393476785243        1.04402135152742        4.04471627399029
H           -4.09951711534387        4.82331964761956        7.61152006617440
H           -3.11764200735225        4.04623421634503        8.78460261864583
H           -4.59994030651195        3.18838934741420        8.16592615584347
H            0.88391527502231        6.71906398467896        0.29720693896037
H            2.24943128620039        6.69864191605836        1.58831714318764
H            0.83988909035511        7.69971568587503        1.81924290002440
116
 energy: -22.562202490773 gnorm: 0.581590061391 xtb: 6.6.1 (8d0f1dd)
C           -3.67824722772848       -0.19226229754627       -2.04645099298542
C           -2.88358414958003       -1.02635945136694       -1.29247785369655
C           -2.25827041251848       -0.53095316705207       -0.06549388238896
C           -2.11508580861984        0.85425914561232        0.07747889933543
C           -2.85306594858712        1.72915763479483       -0.87992828310152
C           -3.69924043232451        1.24914054929109       -1.93168834654296
C           -1.59705901901207       -1.24194802830693        1.03472729760398
C           -0.45190340659810       -0.67299787419958        1.65498916207097
C           -0.27882810239331        0.81149894625213        1.53405847812342
N           -1.15108655894193        1.44902422982092        0.74491921113224
C           -1.69125623701081       -2.65581290967763        1.27719526915342
C           -0.56086423695456       -3.38938691560215        1.83640649960061
N            0.39310598130724       -2.77314747825237        2.61434502898449
C            0.60595887592930       -1.45082256277107        2.24093913176671
C            1.64643054367466       -0.71019632151961        2.70815598837265
C            1.79984055383859        0.60478154246254        2.59166349596323
C            0.93696600979232        1.38607831038362        1.75380636275054
C           -3.08158356521400       -3.31553709409578        1.12567179325572
C           -3.09739387310776       -4.75115938919559        1.42183975370094
C           -1.84216735659101       -5.30936907596506        1.80965533370918
C           -0.79407610094759       -4.64658195988132        2.28580856773916
O           -4.04366320608929       -2.33775761747005        1.21189279994046
O           -2.83630794208128       -2.27309728600418       -1.89450136189773
C           -4.43850280133574        2.23348356083501       -2.79907853099284
C           -1.66591191018894       -6.71032013912947        1.92654173280898
H           -2.80171187381888        2.70181895944328       -0.52447122605674
H           -4.16585932821394       -0.61649481448911       -2.89635919609442
H            1.24781863539078        2.44585892363939        1.69233924421108
H            2.57146916412918       -1.06989808544421        3.09662009171696
H            0.04949533849579       -5.19947368589537        2.72816782154765
H           -3.68370900882585       -5.45666396818104        1.02123601101073
O           -5.37099327540434        2.97817436415732       -2.29424300335497
O           -4.44521050642613        1.83045216765920       -4.26018759490908
C           -5.74491429908432        2.19920996390259       -4.63631025568346
C            3.22409006720088        1.26081597834550        2.63948537951369
O            4.16835056111438        0.43501883612699        2.77228795853175
O            3.13163503808184        2.64093668381844        2.47298505691258
C            4.51379297970707        3.12190224073130        2.20842112129335
O           -2.65618911496150       -7.26597148453025        1.37687560943414
O           -0.78844244540029       -7.44253743349567        2.50530994212625
C           -1.01479701523591       -8.73474489200887        2.10464146209949
C           -5.23354480968147       -2.73670769281219        0.44427824429629
C           -1.48526051308370       -2.92208901957847       -2.02954571594469
H           -1.91287559580592       -9.24292505755939        2.56212755793856
H           -0.20269284920066       -9.15908956216659        2.66616306221924
H           -1.16695708022858       -8.78647055984888        0.93503877994223
H            5.24898562465975        2.39218874404196        2.85076722941826
H            4.61415750752399        4.18544219305129        2.70889239659186
H            4.77507742737519        3.11553231672074        1.10695944729674
H           -0.70153545394090       -2.25620773671843       -1.54011209681627
H           -1.40029260486947       -3.33563032953752       -3.14415298704909
H           -1.62467898680515       -3.88647049531300       -1.54632203735299
H           -6.01489507505283       -2.77327490570848        1.33748905556404
H           -5.04035132951743       -3.62596959857920       -0.09575797158029
H           -5.54826794760460       -2.01066633039114       -0.26515912567777
H           -6.31170767977594        1.60599759546132       -3.86928853057076
H           -6.02845740271278        1.68372329193896       -5.46142653360206
H           -5.87121376774629        3.27749712920855       -4.65825092449248
C           -0.67982291390044        4.76434416108417        4.13586266285222
C           -1.02897933739936        3.45335378952848        4.49616012729818
C           -0.24239542160037        2.92159716926390        5.62230146088386
C            1.10261933428139        3.30923756781884        5.86175321701571
C            1.43403462579033        4.53378005208463        5.30681965129120
C            0.55748319871193        5.24941487902031        4.52668928648427
C           -0.69788050361453        1.83046517912073        6.45821759547247
C            0.32032184287101        0.83411906552485        6.74173316664459
C            1.64861653133146        1.34540570849263        6.90351970982361
N            1.98540226550674        2.58692158582001        6.60079155048619
C           -1.96600860015336        1.33439250429081        6.85742452610098
C           -2.29962727755729       -0.00657321204632        7.23635604374966
N           -1.25331813400738       -0.92420389176573        7.07986733390121
C            0.06280293432192       -0.56331134223417        6.95702316443149
C            1.22390021999324       -1.46342240099121        7.13094594101368
C            2.51291824781823       -0.89182752851249        7.39055428098817
C            2.67723971808413        0.48532681865589        7.19258976127614
C           -3.09791761501092        2.25252715526262        6.93236889184531
C           -4.40506762370915        1.72231520755772        6.87345109531937
C           -4.75072161968654        0.30356879475412        7.05037622320090
C           -3.61508639173534       -0.51213454065435        7.21424898739626
O           -2.85377698439992        3.68881858620584        6.76201764421800
O           -1.99523978937248        2.63642446020116        3.86049024089962
C            1.06651736079489        6.46800160492276        3.83880407495370
C           -6.16846406442051       -0.15970261345739        7.21628820184024
H            2.36937562955172        4.84591230942919        5.68430113737727
H           -1.63881523275586        5.36167112632542        3.56136952711206
H            3.49610539541626        0.96553257157479        7.51113043622198
H            1.03596477017819       -2.47913246760951        7.34345893108122
H           -3.70916988830745       -1.55765638306581        7.14168308582618
H           -5.17563073627043        2.41785181036097        7.01385227407286
O            2.18432165428803        6.63652552462952        3.63505277405470
O           -0.08457025809385        7.32450343985314        3.54603513269488
C            0.29432912589727        8.57262373056600        2.89132388082965
C            3.46153982469540       -1.73224539450728        8.15684055364225
O            3.14134882404393       -2.86235075135572        8.00618852320983
O            4.62570053464891       -1.32619012382883        8.88242016190958
C            5.14795348959890       -2.33178266975853        9.70646359455560
O           -7.00618576993750        0.55484925400095        6.68801310788044
O           -6.35468329810803       -1.36408192391088        8.05349075992075
C           -7.56809281618301       -1.94657107403829        7.72638749755657
C           -3.92788076459743        4.48151326710773        6.30664380971002
C           -2.29789046181837        3.07869840983320        2.64531201087543
H           -8.23173647995182       -1.59650528604890        8.56793437399817
H           -7.52497223867820       -2.97695798797602        7.85171100406759
H           -7.82797262945799       -1.75898447890306        6.64216353242154
H            4.53670874882126       -3.16380646698806        9.39625885738709
H            5.30558458214373       -1.82755296938801       10.63201880212713
H            6.23764616255864       -2.40234552692972        9.28185415254078
H           -3.08888808448413        3.82144189250034        3.02802031380328
H           -2.97809924444549        2.28815469025469        2.01830805723334
H           -1.47652407885967        3.39618374028274        2.14338016352351
H           -4.14498893558935        4.55345168824853        5.19638260820024
H           -3.51750898418553        5.59998575276575        6.48137765940505
H           -4.78649714068916        4.17994783818085        6.91523823891036
H           -0.49249477534747        9.22947563359099        3.35429698331273
H            0.10005356296737        8.56980898333680        1.75502561826741
H            1.43132355120936        8.64116365026181        2.97725014100180
116
 energy: -22.607172959975 gnorm: 0.535426410116 xtb: 6.6.1 (8d0f1dd)
C           -3.47193474979038       -0.45007634970652       -2.08726935246655
C           -2.53276542575854       -1.37967800622142       -1.59041581375729
C           -1.65545418297544       -0.87242245989224       -0.47541809848178
C           -1.77236993600629        0.55458015616774       -0.23160837383057
C           -2.66228900040863        1.34390393684908       -0.85899225192160
C           -3.54157177605673        0.89742479287351       -1.75982152391733
C           -0.88698191441570       -1.62308224071354        0.52505140785130
C            0.22023253639866       -1.00967074653369        1.02321083654842
C            0.16035434766666        0.39840079001597        1.04685869786711
N           -0.85970736760458        1.17794926248538        0.53774256848017
C           -1.31657343583349       -2.92879842275087        1.19316581928924
C           -0.22598686056648       -3.55524683433932        1.91070866902653
N            0.98630090004053       -2.94200904239058        2.01225729393339
C            1.18148485097779       -1.63879832556026        1.69583727783753
C            2.26570774655201       -0.95963846232998        2.10312671577306
C            2.34327932105391        0.39156489454122        1.99549938121954
C            1.32171248922013        1.03591889483742        1.48658562219200
C           -2.58159111116421       -3.40663998093684        1.28270619631877
C           -2.77824171575111       -4.66165299603532        1.46675737782102
C           -1.74940403274807       -5.44244031487890        1.74522083897426
C           -0.46382794411667       -4.95080557786817        2.08213332721030
O           -3.52581715719271       -2.36955806481852        0.93655225860429
O           -2.21206385070837       -2.78582162143082       -2.11175658985826
C           -4.46021966392396        1.94678255256808       -2.31617222708685
C           -2.00967615819484       -6.98378255965720        2.19784845531156
H           -2.80007660359372        2.29943243270919       -0.58968424388448
H           -4.16153219079688       -0.70423715861827       -2.90756142633665
H            1.22310002588032        2.10516770148871        1.51618919167464
H            2.86729737311650       -1.51458719614667        2.80397173801215
H            0.27936129442228       -5.54933988593895        2.64268364792945
H           -3.71267019705216       -5.10845866694867        1.50937955761526
O           -4.46714110086255        3.07173117792109       -1.92381468533197