152
 energy: -209.181343993803 gnorm: 0.098352294554 xtb: 6.7.1 (edcfbbe)
C           -2.52560000000000        1.51850000000000       -2.08090000000000
C           -2.35270000000000        0.52090000000000       -1.12430000000000
C           -1.45090000000000        0.77630000000000       -0.03660000000000
C           -0.50690000000000        1.83180000000000       -0.18240000000000
C           -0.70890000000000        2.77540000000000       -1.20690000000000
C           -1.74090000000000        2.66750000000000       -2.11490000000000
C           -1.40690000000000        0.01690000000000        1.17780000000000
C           -0.21220000000000        0.07700000000000        1.90800000000000
C            0.76360000000000        1.06000000000000        1.59170000000000
N            0.57930000000000        1.97410000000000        0.61540000000000
C           -2.48330000000000       -0.70940000000000        1.78350000000000
C           -2.15670000000000       -1.64070000000000        2.80370000000000
N           -0.92010000000000       -1.74040000000000        3.35040000000000
C           -0.01150000000000       -0.80480000000000        3.00200000000000
C            1.16740000000000       -0.68030000000000        3.74970000000000
C            2.12010000000000        0.28750000000000        3.47360000000000
C            1.90830000000000        1.13590000000000        2.39830000000000
C           -3.86410000000000       -0.43080000000000        1.52380000000000
C           -4.82980000000000       -1.24140000000000        2.11470000000000
C           -4.50970000000000       -2.24080000000000        3.02830000000000
C           -3.18600000000000       -2.41980000000000        3.35990000000000
O           -4.18860000000000        0.71420000000000        0.80080000000000
O           -3.03370000000000       -0.68780000000000       -1.33890000000000
C           -2.01330000000000        3.73480000000000       -3.18490000000000
C           -5.63590000000000       -3.01940000000000        3.72300000000000
C            3.37700000000000        0.46080000000000        4.33920000000000
C           -6.51630000000000       -2.03150000000000        4.51050000000000
C           -6.48280000000000       -3.74700000000000        2.66420000000000
C           -5.08150000000000       -4.06330000000000        4.71180000000000
C            4.62760000000000        0.23490000000000        3.47190000000000
C            3.39930000000000        1.88610000000000        4.92120000000000
C            3.40430000000000       -0.54090000000000        5.51000000000000
C           -3.47820000000000        4.19820000000000       -3.07490000000000
C           -1.76160000000000        3.13490000000000       -4.57930000000000
C           -1.10350000000000        4.96550000000000       -3.00710000000000
H           -0.02650000000000        3.60290000000000       -1.25170000000000
H           -3.26050000000000        1.34940000000000       -2.84540000000000
H            2.62870000000000        1.89870000000000        2.16890000000000
H            1.29410000000000       -1.34880000000000        4.57950000000000
H           -2.90700000000000       -3.13010000000000        4.11350000000000
H           -5.86530000000000       -1.05240000000000        1.90880000000000
C           -5.53230000000000        0.80660000000000        0.39130000000000
C           -2.29810000000000       -1.85100000000000       -1.01060000000000
H           -1.23540000000000        5.40990000000000       -2.02100000000000
H           -1.33760000000000        5.72930000000000       -3.74830000000000
H           -0.05400000000000        4.70040000000000       -3.13030000000000
H           -2.42160000000000        2.29010000000000       -4.77100000000000
H           -0.73410000000000        2.78330000000000       -4.66710000000000
H           -1.93330000000000        3.87610000000000       -5.35940000000000
H           -4.16950000000000        3.37530000000000       -3.25090000000000
H           -3.69700000000000        4.97780000000000       -3.80410000000000
H           -3.68090000000000        4.59800000000000       -2.08180000000000
H            4.67840000000000        0.95520000000000        2.65640000000000
H            4.61820000000000       -0.76360000000000        3.03600000000000
H            5.53630000000000        0.33680000000000        4.06450000000000
H            3.42500000000000       -1.56830000000000        5.14840000000000
H            2.53150000000000       -0.41680000000000        6.14950000000000
H            4.28880000000000       -0.39070000000000        6.12800000000000
H            3.44210000000000        2.63690000000000        4.13380000000000
H            4.26460000000000        2.03040000000000        5.56720000000000
H            2.50330000000000        2.07210000000000        5.51110000000000
H           -4.51030000000000       -3.58350000000000        5.50620000000000
H           -4.43760000000000       -4.78120000000000        4.20470000000000
H           -5.89220000000000       -4.61970000000000        5.18140000000000
H           -6.94080000000000       -3.04310000000000        1.97080000000000
H           -7.28180000000000       -4.32180000000000        3.13160000000000
H           -5.86650000000000       -4.43400000000000        2.08510000000000
H           -6.98540000000000       -1.30360000000000        3.85010000000000
H           -5.91860000000000       -1.48450000000000        5.23920000000000
H           -7.30770000000000       -2.55480000000000        5.04610000000000
H           -2.47120000000000       -2.60400000000000       -1.77980000000000
H           -2.63860000000000       -2.24270000000000       -0.05270000000000
H           -1.23150000000000       -1.62750000000000       -0.96420000000000
H           -5.63030000000000        1.66040000000000       -0.27990000000000
H           -6.18000000000000        0.96040000000000        1.25490000000000
H           -5.81380000000000       -0.09880000000000       -0.14780000000000
C           -2.44310000000000        0.59620000000000        5.27180000000000
C           -1.94050000000000       -0.27830000000000        6.23430000000000
C           -0.88750000000000        0.19270000000000        7.09040000000000
C           -0.13740000000000        1.32630000000000        6.66970000000000
C           -0.67650000000000        2.14090000000000        5.65750000000000
C           -1.85600000000000        1.83480000000000        5.01280000000000
C           -0.50730000000000       -0.42570000000000        8.32540000000000
C            0.79360000000000       -0.16960000000000        8.77410000000000
C            1.55700000000000        0.86730000000000        8.17340000000000
N            1.06600000000000        1.65740000000000        7.19520000000000
C           -1.31810000000000       -1.25960000000000        9.16030000000000
C           -0.65990000000000       -2.07070000000000       10.12280000000000
N            0.65350000000000       -1.94130000000000       10.43050000000000
C            1.34000000000000       -0.94430000000000        9.83200000000000
C            2.65210000000000       -0.67000000000000       10.24360000000000
C            3.41140000000000        0.34230000000000        9.67660000000000
C            2.85240000000000        1.09700000000000        8.65780000000000
C           -2.75020000000000       -1.25120000000000        9.13030000000000
C           -3.43340000000000       -2.23460000000000        9.84130000000000
C           -2.78070000000000       -3.14860000000000       10.66520000000000
C           -1.41810000000000       -3.02430000000000       10.82470000000000
O           -3.40170000000000       -0.21250000000000        8.46950000000000
O           -2.45920000000000       -1.58600000000000        6.27910000000000
C           -2.48620000000000        2.86970000000000        4.06750000000000
C           -3.54620000000000       -4.21470000000000       11.46330000000000
C            4.83940000000000        0.65600000000000       10.14770000000000
C           -5.01730000000000       -4.31570000000000       11.01460000000000
C           -2.88690000000000       -5.59090000000000       11.25190000000000
C           -3.50960000000000       -3.84580000000000       12.95650000000000
C            5.81480000000000        0.46620000000000        8.97200000000000
C            4.90210000000000        2.11190000000000       10.64530000000000
C            5.27790000000000       -0.26860000000000       11.29980000000000
C           -3.82470000000000        2.37300000000000        3.49380000000000
C           -1.53290000000000        3.16440000000000        2.89860000000000
C           -2.74980000000000        4.16750000000000        4.85320000000000
H           -0.15290000000000        3.04740000000000        5.41660000000000
H           -3.27490000000000        0.25530000000000        4.68540000000000
H            3.41810000000000        1.89260000000000        8.21030000000000
H            3.05200000000000       -1.27180000000000       11.03730000000000
H           -0.89900000000000       -3.65540000000000       11.52180000000000
H           -4.50340000000000       -2.25610000000000        9.78600000000000
C           -4.76430000000000       -0.43920000000000        8.19580000000000
C           -1.47260000000000       -2.59800000000000        6.34130000000000
H           -3.40590000000000        3.97590000000000        5.70180000000000
H           -3.22450000000000        4.91680000000000        4.22040000000000
H           -1.82330000000000        4.59320000000000        5.23590000000000
H           -1.36070000000000        2.26370000000000        2.31610000000000
H           -0.56740000000000        3.52640000000000        3.24840000000000
H           -1.95190000000000        3.91550000000000        2.23000000000000
H           -3.67720000000000        1.48110000000000        2.89010000000000
H           -4.27660000000000        3.12820000000000        2.85170000000000
H           -4.53330000000000        2.14140000000000        4.28830000000000
H            5.57690000000000        1.13700000000000        8.14760000000000
H            5.76990000000000       -0.55560000000000        8.59620000000000
H            6.84030000000000        0.66770000000000        9.28030000000000
H            5.26990000000000       -1.31320000000000       10.99000000000000
H            4.62200000000000       -0.15750000000000       12.16280000000000
H            6.29050000000000       -0.02910000000000       11.62340000000000
H            4.65740000000000        2.81420000000000        9.84990000000000
H            5.89920000000000        2.35680000000000       11.01040000000000
H            4.19620000000000        2.27010000000000       11.46010000000000
H           -3.96440000000000       -2.86960000000000       13.12270000000000
H           -2.48570000000000       -3.80380000000000       13.32570000000000
H           -4.05250000000000       -4.57800000000000       13.55360000000000
H           -2.86530000000000       -5.84810000000000       10.19330000000000
H           -3.43750000000000       -6.37090000000000       11.77720000000000
H           -1.86300000000000       -5.60470000000000       11.62170000000000
H           -5.08640000000000       -4.52460000000000        9.94730000000000
H           -5.55890000000000       -3.39370000000000       11.22340000000000
H           -5.52830000000000       -5.11950000000000       11.54410000000000
H           -1.96050000000000       -3.57250000000000        6.32830000000000
H           -0.88300000000000       -2.51420000000000        7.25100000000000
H           -0.81550000000000       -2.51000000000000        5.47650000000000
H           -5.11580000000000        0.34280000000000        7.52200000000000
H           -5.34470000000000       -0.39960000000000        9.11800000000000
H           -4.88280000000000       -1.40610000000000        7.70470000000000
152
 energy: -209.195203931040 gnorm: 0.042236770936 xtb: 6.7.1 (edcfbbe)
C           -2.51780240983465        1.51337877387571       -2.08371740449202
C           -2.34638252527592        0.53060804210607       -1.12497058594033
C           -1.45611097761021        0.76474166930497       -0.04651156176065
C           -0.50903634076764        1.82330927384041       -0.18687275404279
C           -0.70550202712104        2.78074945734604       -1.20394037843850
C           -1.73855377714484        2.67707135875323       -2.10850369357145
C           -1.41543762932476        0.02089794648927        1.17269603539810
C           -0.22112073679253        0.07966398113684        1.90480654930608
C            0.76474606515937        1.05304227942738        1.58058695278247
N            0.56896476813192        1.95649011940792        0.60919346487209
C           -2.49342321194356       -0.69720521990244        1.77970609029816
C           -2.16055108303423       -1.62654292564515        2.80636260310962
N           -0.92822436550842       -1.72316537374845        3.34113873204023
C           -0.02247161358112       -0.79412800536204        3.00630151250571
C            1.16540097656292       -0.68116624579409        3.75365995989572
C            2.12007273887932        0.28869862324412        3.47647544489336
C            1.91237821440334        1.13690593243339        2.39306030388837
C           -3.86858218948133       -0.45076197190498        1.51600201708012
C           -4.82885525265785       -1.24215254892451        2.12215537623574
C           -4.50053690266504       -2.24701781754071        3.04064597323382
C           -3.17740586032278       -2.42824017784954        3.36316972854599
O           -4.18499915493265        0.66378443667351        0.76977994025968
O           -3.01498457923164       -0.66573526040580       -1.33070630179166
C           -2.01003189240306        3.73504634961386       -3.17848747354990
C           -5.62721037725686       -3.02281295556913        3.72281606248918
C            3.37319724643008        0.45837102159535        4.33714836515149
C           -6.50655879592981       -2.03321280688421        4.50513892246920
C           -6.47520049991562       -3.74373769499731        2.66421742080096
C           -5.08270165753351       -4.06258709674479        4.70995280103863
C            4.61956770143920        0.23372373958195        3.46783005894842
C            3.39439772030685        1.88160200026467        4.91492265696400
C            3.40671468393983       -0.53947041457171        5.50257695518323
C           -3.47320195860265        4.19253141863217       -3.07028652412932
C           -1.76117732560525        3.13297866981181       -4.56995851964667
C           -1.10591837774971        4.96267455367488       -3.00781364435551
H           -0.00653819960995        3.59673231241478       -1.24487545908445
H           -3.25505990374433        1.33470916423318       -2.84959410266223
H            2.62763532680046        1.90765309146444        2.15901609287004
H            1.28755081826356       -1.35868498314472        4.58013350576135
H           -2.88379542364000       -3.13459007383023        4.11494792204532
H           -5.86783809952202       -1.05676724570025        1.91388956438409
C           -5.52985888834172        0.79774674200310        0.37966608295722
C           -2.30055824362784       -1.84430543709613       -1.00922766457146
H           -1.23969850937814        5.40731462157256       -2.02368004236404
H           -1.35291757462093        5.71551001578107       -3.75442509371095
H           -0.05849835844319        4.69837810291939       -3.13672098399824
H           -2.42150158115847        2.29020296440074       -4.76190020182242
H           -0.73343839091894        2.78505408674835       -4.65620192760385
H           -1.93493748969684        3.87968388003648       -5.34321125086569
H           -4.16280242964140        3.37058022616266       -3.24829808393958
H           -3.68209554501298        4.97039772101279       -3.80295903712052
H           -3.67216854900019        4.59466925613867       -2.07858202608511
H            4.67089529450525        0.95489831703735        2.65521699634758
H            4.61066657536488       -0.76566105053459        3.03604081069116
H            5.52155545001491        0.33779364877291        4.06870277519845
H            3.43304033294724       -1.56628386838432        5.14194046188724
H            2.53933884538521       -0.41172167773732        6.14541303173801
H            4.29399390533798       -0.37566532443762        6.11085960895107
H            3.43915918991573        2.63088042199061        4.12772917872527
H            4.26647697312138        2.01324655334945        5.55315250689683
H            2.50365608454325        2.06062764768615        5.51461793908514
H           -4.51642271136721       -3.57888508764743        5.50341351340883
H           -4.44251875424593       -4.78161072034260        4.20260176673748
H           -5.90533115735303       -4.60895570490231        5.16871742457127
H           -6.93430476397227       -3.04034694319866        1.97292180090120
H           -7.27166910565110       -4.31414219069846        3.13926203111778
H           -5.85878227143065       -4.43197869278113        2.08879733972039
H           -6.97888501729994       -1.30765310831012        3.84622274850885
H           -5.90691485260439       -1.49033780190530        5.23389233346280
H           -7.29474137080710       -2.56395220503645        5.03684073595702
H           -2.49364141214913       -2.57850103586467       -1.79416310817915
H           -2.63508425904945       -2.25517200141791       -0.05334065036726
H           -1.22698999983386       -1.64984718693581       -0.96305745061104
H           -5.58904041596813        1.66092075636717       -0.28300619135236
H           -6.17815094811950        0.97287898421231        1.24416178059007
H           -5.85027076109595       -0.09503912046333       -0.16342248144117
C           -2.43375792019139        0.58898627816512        5.27189656989346
C           -1.92880928074463       -0.27210340301176        6.23159585852736
C           -0.89281249522726        0.18270295726386        7.08669574800978
C           -0.14382913786841        1.32305654983555        6.67258502689209
C           -0.67787122123331        2.14893667790513        5.66284159720856
C           -1.86182803924187        1.84626017713232        5.02699774121288
C           -0.51734982029544       -0.41967257678059        8.32581424091706
C            0.78400532717170       -0.16582956847509        8.77536363973960
C            1.55334247463824        0.86446390264052        8.16912561678354
N            1.04638656617080        1.65222575097285        7.20867447033290
C           -1.33084484098969       -1.24577732238638        9.16280590498537
C           -0.66519915868166       -2.05855818415079       10.12696374906262
N            0.64279317589498       -1.92919076310598       10.42060002625470
C            1.32936731527142       -0.93572987275649        9.83869347415806
C            2.65113459754305       -0.67215022229473       10.24896307778088
C            3.41146372061386        0.34162275999897        9.67904966715370
C            2.85341891885091        1.10109022785376        8.65556686670845
C           -2.74970249811971       -1.26266561730307        9.13292401293676
C           -3.43003062295190       -2.23300826961984        9.84800147446959
C           -2.77190761296975       -3.15133897355735       10.67387746822142
C           -1.41021353443001       -3.02622860943865       10.83148003205135
O           -3.39129001871340       -0.24499120305964        8.46456550002322
O           -2.44884194537334       -1.55910596081781        6.29462310085527
C           -2.48931587003608        2.87061224956768        4.07893970500146
C           -3.54390633624871       -4.21307810772032       11.45917700965852
C            4.83438151172323        0.65168367413902       10.14879423046064
C           -5.01105482985146       -4.31456602855080       11.01597656075248
C           -2.88676522647286       -5.58573352930789       11.24972842429599
C           -3.50646418399158       -3.84341917676053       12.94942582987997
C            5.80575824604789        0.46445845947876        8.97321255352039
C            4.89648475280059        2.10578186563103       10.64196431276375
C            5.27666382799391       -0.26681473907278       11.29579823266032
C           -3.82336515272210        2.38170260297349        3.50789276166395
C           -1.54052416359091        3.16848861331056        2.91195496889856
C           -2.74811717470357        4.16504690016941        4.86331942801456
H           -0.13435946536112        3.04536329040598        5.41444682249142
H           -3.27152066752143        0.24183752551433        4.69121658556574
H            3.41295781899182        1.90238998399412        8.20285025245937
H            3.04474077577834       -1.28427899923061       11.04091265704592
H           -0.87827080696022       -3.64941069193906       11.52981816817346
H           -4.50200815817404       -2.25876543289004        9.78954313854491
C           -4.75868207403853       -0.44192450110306        8.19370742468234
C           -1.47143188646102       -2.58535110111755        6.34045231585163
H           -3.40570783103156        3.97208242297440        5.70885999644152
H           -3.22215322714467        4.90425863166705        4.21946188833245
H           -1.82134985982283        4.58987381712652        5.24084439218674
H           -1.37956760828850        2.26897904702546        2.33055221544793
H           -0.57329826645833        3.52633713848983        3.25653045219102
H           -1.96569024051940        3.91958382245383        2.24878429528913
H           -3.67004439024999        1.49439885276574        2.90586611376670
H           -4.26057342290004        3.14349091234837        2.86466717387935
H           -4.53319596151477        2.15415676620834        4.30118014536449
H            5.56828427140921        1.13678791313883        8.15178081090348
H            5.76105244187427       -0.55793014036033        8.60152760304792
H            6.82744987842114        0.66786336928787        9.28994106465636
H            5.27325543898282       -1.30973509962519       10.98495921053418
H            4.62447020590694       -0.15220357894897       12.15945230939141
H            6.28903233480964       -0.01482486644409       11.60687876836666
H            4.65374090786581        2.80714596063590        9.84718580704391
H            5.89603228898762        2.34059284070932       11.00438263321549
H            4.19273820533478        2.26089057442492       11.45776022928064
H           -3.96296678115925       -2.86862054008545       13.11326460997907
H           -2.48359390075144       -3.80311025759753       13.31680290772251
H           -4.05161660077268       -4.57961307758036       13.53800996562319
H           -2.86775590748649       -5.84043949325131       10.19169939850862
H           -3.44497606348795       -6.35701819819424       11.77795935430240
H           -1.86546284026982       -5.59923550700150       11.62103170913015
H           -5.08052656027873       -4.52532465100783        9.95012095117861
H           -5.55527643359212       -3.39719656062018       11.23272335595844
H           -5.50780675409568       -5.12209002035228       11.55092428393804
H           -1.99623230575626       -3.54094180583475        6.33016557260451
H           -0.86951008062307       -2.53865212951459        7.24896254119341
H           -0.82296111494800       -2.51884548961783        5.46184775488762
H           -5.07514431299560        0.35690246502590        7.52275108161394
H           -5.35471468772094       -0.39002130462515        9.10988125512248
H           -4.90762810997034       -1.40456959142637        7.69753661992657
152
 energy: -209.199688048671 gnorm: 0.011172964462 xtb: 6.7.1 (edcfbbe)
C           -2.50560825244621        1.50802698531143       -2.08956236563119
C           -2.33475415601619        0.53117629214996       -1.13175951532468
C           -1.45721246705057        0.75407623460770       -0.05411130328645
C           -0.50705747104767        1.81621689706949       -0.18945113192692
C           -0.69727159870024        2.78100108905821       -1.20363510391954
C           -1.72998070941463        2.68105859023549       -2.10567184415066
C           -1.42060594090120        0.02272088592531        1.16994677279989
C           -0.22848162226766        0.08289531070938        1.90520852532652
C            0.76458983413660        1.04925547354017        1.57419444458396
N            0.56444149367498        1.94118494692814        0.60301380203156
C           -2.50079997901209       -0.68891658955594        1.77679502519040
C           -2.16278087325322       -1.61645161436447        2.80841854643162
N           -0.93742757915189       -1.70535321017018        3.34098061900535
C           -0.03198466297057       -0.78457412765277        3.01187552671592
C            1.16212724282326       -0.67946108279515        3.75666078942188
C            2.11776290604696        0.28765814091693        3.47496127684145
C            1.91440757826197        1.13486276767089        2.38742613371033
C           -3.87452098963060       -0.46630277019715        1.51216198684884
C           -4.82834144473283       -1.24897895464944        2.12584397076047
C           -4.49161553035145       -2.25554306411652        3.04848252808524
C           -3.17014512577830       -2.43501108801380        3.36562648429128
O           -4.18448257418622        0.61602903076453        0.73798274542849
O           -2.99795023603743       -0.65235313130489       -1.33403917466705
C           -2.00632823744348        3.73282529684658       -3.17106650456577
C           -5.61804223886892       -3.02574617476495        3.72224049796183
C            3.36789370106833        0.45553758460241        4.32982186826214
C           -6.49599975641220       -2.03511830957991        4.50267262474229
C           -6.46467972388716       -3.74347898054792        2.66286950272590
C           -5.08597378014394       -4.06525542625897        4.71001912752450
C            4.61240914018866        0.23256116751825        3.45954334480975
C            3.39131241121709        1.87591271964605        4.91004773680338
C            3.41227899611241       -0.53711428832899        5.49416834247092
C           -3.46855895071569        4.18736224430821       -3.06289905107422
C           -1.75872669404157        3.12979583376993       -4.56080529421855
C           -1.10924952000691        4.96209726678728       -3.00990163531008
H            0.01287166062127        3.58880560269222       -1.23411190060093
H           -3.23925856063308        1.32081173378920       -2.85892283119495
H            2.62526767370368        1.90896559241263        2.14550184143552
H            1.27849142507935       -1.36312212794539        4.58017220675806
H           -2.85883747035101       -3.14207177019494        4.10989340056189
H           -5.86946667498728       -1.06740287663159        1.91940615863462
C           -5.52717294116138        0.79430513120770        0.36170166201343
C           -2.30704444254552       -1.84417670495627       -1.01690324221802
H           -1.24032122296847        5.40873049685911       -2.02746789433489
H           -1.36819265596849        5.70674471880704       -3.76004867483789
H           -0.06282321798255        4.70146463315512       -3.14504064991755
H           -2.41890979827409        2.28820810001718       -4.75172757089712
H           -0.73082512701153        2.78439291004694       -4.64597047277181
H           -1.93476996096563        3.88040885811509       -5.32902371076035
H           -4.15525078108474        3.36455552392614       -3.24081214765600
H           -3.67313195835056        4.96327161991555       -3.79821510146368
H           -3.66580513780934        4.59103662685070       -2.07227995546314
H            4.66286202375215        0.95321759010692        2.64816316061381
H            4.60286229205445       -0.76736860599466        3.03079920454464
H            5.51061968851820        0.33776703568614        4.06516171273691
H            3.44409315093222       -1.56366227590486        5.13572791557860
H            2.55057957043895       -0.41090656824625        6.14314907567368
H            4.30395972543909       -0.36222750978655        6.09247702928892
H            3.42944808607077        2.62489077968712        4.12398799569844
H            4.27152183844930        2.00156104556816        5.53820342415526
H            2.50689962415602        2.04856104229779        5.52055754256947
H           -4.52300838570734       -3.58154624977714        5.50413092558441
H           -4.44785911907974       -4.78718028900751        4.20628264954594
H           -5.91748351076485       -4.60379123805875        5.16095720231944
H           -6.92306219030699       -3.03988893043857        1.97296888888681
H           -7.26031111212670       -4.30980017136381        3.14306020280698
H           -5.84886928266593       -4.43294123014803        2.08955179344431
H           -6.96950121146913       -1.31183351543894        3.84389986014109
H           -5.89401386462968       -1.49387062296427        5.22959036957749
H           -7.28180882785967       -2.57015398260875        5.03289472564527
H           -2.52136655864307       -2.55905950602266       -1.81551901908967
H           -2.64302105912538       -2.26646688409918       -0.06454950625859
H           -1.22717684318154       -1.67721786769394       -0.96655813125886
H           -5.54309028466383        1.66410657009821       -0.29554406772995
H           -6.17006459428808        0.99345379361445        1.22804672750835
H           -5.89444856356759       -0.08363539727240       -0.18249139197604
C           -2.42583269223758        0.58751353151143        5.27260960883536