116
 energy: -22.928061455056 gnorm: 0.329736929581 xtb: 6.6.1 (8d0f1dd)
C           -3.31122850772930        0.79849766164622       -0.92477639677520
C           -2.44380812530352       -0.12270372891954       -0.27661132624697
C           -1.41337090092821        0.39579727573559        0.56335275196199
C           -0.89266158675590        1.65801491088749        0.27377586709581
C           -1.72665675402493        2.51431363229076       -0.49448366572522
C           -2.95444148494349        2.13954154133227       -1.01494489940871
C           -0.74098268209890       -0.43411532818871        1.49825021926784
C            0.56872586496315        0.03782116815119        1.86248088067890
C            1.03782416582094        1.29402317993033        1.50887470833621
N            0.31238977034758        2.07067427098208        0.65193736800696
C           -1.29695700510141       -1.39996043042223        2.41574187746061
C           -0.38243517664656       -2.18060797534842        3.13232615520648
N            0.91308504082021       -1.90366887689689        3.30325166013478
C            1.37712470144904       -0.74872102533751        2.81811050966982
C            2.52149331701875       -0.17739833758153        3.39379298866852
C            2.95849061756259        1.02681208890480        2.95105897606587
C            2.24288949469137        1.78498308775960        2.03503020483770
C           -2.74860936222260       -1.74497937691422        2.38401158947411
C           -3.09416315450955       -2.91614440870436        3.00571134491758
C           -2.16786021984049       -3.77788778654213        3.63251872101904
C           -0.85708937311598       -3.40495313382985        3.68547234358092
O           -3.71994433332149       -0.94984598373544        1.67726658385724
O           -2.55702603277562       -1.47241711578389       -0.57241635275616
C           -3.84297843593025        3.13357444054366       -1.60938954875544
C           -2.68769581069131       -5.03867041417370        4.30484659386931
H           -1.39666850744143        3.51251503834900       -0.76806311868865
H           -4.27662633836220        0.55105838579656       -1.33106614114542
H            2.66329581305412        2.73912661909249        1.72562431984580
H            3.05775395548473       -0.69369546277216        4.16536137542516
H           -0.24710966264510       -4.12034095424229        4.22946223699121
H           -4.11477991332403       -3.04712728052358        3.03244694615357
O           -4.21824883374556        4.03433712717988       -0.87713382485991
O           -4.44510595673734        2.90643496899600       -2.81853501752979
C           -5.44216520282800        3.83300025693726       -3.02488532025093
C            4.23586651889298        1.50004220933226        3.59165660008449
O            5.05927614697201        0.66079890002952        3.91714215179376
O            4.47001334453535        2.86385149488593        3.72605651435371
C            5.79457498613219        3.08584475587818        4.15829123132174
O           -3.82227255313510       -5.27347675879771        4.16636005494405
O           -1.85023202017753       -5.79767454267276        5.06656077253571
C           -2.55119635829503       -6.86252441382958        5.62930343183426
C           -5.07197156564436       -1.42399175670916        1.58830531863830
C           -1.33089900128490       -2.23622472573986       -0.99264499351172
H           -2.54510546830388       -7.76426885143998        4.99136022291012
H           -3.57194749219491       -6.44405511486021        5.74196173723541
H           -2.09133598235598       -7.02043774843818        6.64022264233588
H            5.72707967266424        3.46798026205549        5.10135971236643
H            6.34060091246885        3.78468702308830        3.50069950143490
H            6.17933064298187        2.03010500085905        4.19342358084693
H           -0.91862729772622       -2.57650129080332       -0.01361370304871
H           -0.49769766914251       -1.60651221708571       -1.34094446550576
H           -1.52632419730509       -2.94569707152159       -1.75361447637286
H           -5.11788846557077       -2.41810833635233        1.17520213188926
H           -5.67929807973498       -0.69619639428435        1.04301666067831
H           -5.57598832326623       -1.42383358739762        2.57928294206544
H           -6.13050215934830        3.76035386975488       -2.23272855695873
H           -5.86615610071888        3.45938329385866       -4.02668959924245
H           -5.13479557532099        4.87790991548477       -2.98314551356402
C           -1.38192942069774        3.73616555005018        2.91232598411686
C           -1.84821468128685        2.59982427735607        3.49755545445181
C           -1.05946531454833        2.05730632010638        4.60922730982276
C            0.19893954712228        2.69376791964407        4.86302140881997
C            0.50425395911860        3.94630308659851        4.28768785650746
C           -0.26031777722226        4.46998310053134        3.25072669343212
C           -1.20488993561782        0.74454293276906        5.14851520323437
C           -0.06287609782692        0.02744069315890        5.60930570802864
C            1.19208754369866        0.71421540266195        5.78882868583885
N            1.19428660993148        2.06344359410476        5.62744624321596
C           -2.41361422770794        0.07928500213936        5.25249410304426
C           -2.45851584031083       -1.32662100968547        5.60237876023992
N           -1.29466212405906       -1.98318595734370        5.89916817085159
C           -0.14475655767527       -1.32117560077092        5.98824682881008
C            0.97209270935794       -1.98958449505532        6.53157704134458
C            2.21982707914082       -1.36973967291181        6.68703967237737
C            2.30561929262884       -0.09745313075593        6.26436900324455
C           -3.73018485967715        0.71367583494582        5.25810242262992
C           -4.89964478833448       -0.06184623426677        5.21204641615509
C           -4.82617965800088       -1.39228978090841        5.46901303780036
C           -3.67144193418464       -1.98914944386360        5.67265433266067
O           -3.75568638935321        2.07705011038914        5.52067969627343
O           -2.94192434743730        1.91263938797883        3.01658762327703
C            0.21273512614467        5.50086066357994        2.34765104514621
C           -6.06660304520411       -2.17604633098929        5.80641622556876
H            1.41756699010566        4.38133362238595        4.66974005703471
H           -1.82880610647429        4.11982501512100        2.06992133318584
H            3.26888037378556        0.32655662585251        6.31721410015598
H            0.87146188387207       -3.08471526305024        6.57830423410869
H           -3.67716811065157       -3.05999292755990        5.83019634570050
H           -5.77379677507622        0.43595144608221        4.71017130754348
O            1.34459852619901        5.82615848916894        2.44941456579099
O           -0.74718748219123        6.07961784856304        1.59848183464284
C           -0.21473095568964        7.24015934882472        1.05753806029483
C            3.53228080814219       -2.00967610361154        7.02506769044485
O            3.64093082622715       -3.14437803815732        7.50071391725347
O            4.56565258381079       -1.22937033368332        6.69086985080897
C            5.72579357310716       -1.80692399125161        7.22246151275881
O           -7.04801223588612       -1.95726935745904        5.14194115322235
O           -6.01514389321278       -2.93743591896022        6.94765316328794
C           -7.21292732384718       -3.62681918543340        7.15115816329978
C           -4.95459780685163        2.65960679932188        5.86868674392943
C           -3.68284113682406        2.59129188358641        2.05479246020704
H           -7.43119628931628       -4.22607794725959        6.20622607140901
H           -8.06548455146707       -2.91765848248592        7.29781126410398
H           -7.07314693247270       -4.33087306029711        7.91223421050944
H            6.57332189837178       -1.29353136199234        6.78341268688262
H            5.74663761932316       -2.84282155125561        6.88089468184451
H            5.69426191474290       -1.72781984964892        8.29460302186842
H           -4.10481209541493        3.44288266176275        2.60483747673152
H           -4.49244774344916        1.87419893016926        1.82433103764650
H           -3.18901540870812        2.85154642679373        1.06781919454921
H           -5.55414326821421        2.76698137191684        4.93950725322359
H           -4.78658370641210        3.62090640967288        6.25983200635257
H           -5.43485580473958        1.97242995129449        6.65265772412460
H            0.89164886030839        7.38838561720231        1.13776105146914
H           -0.62894889903848        8.04195665205089        1.64837664327952
H           -0.59282546386754        7.45699159724320        0.03719083132488
116
 energy: -22.676361649052 gnorm: 0.492277540180 xtb: 6.6.1 (8d0f1dd)
C           -2.79399993965754        0.78816460259706       -2.31010832686021
C           -2.14637840463231       -0.11613616244416       -1.48039065997636
C           -1.40963641370847        0.42069815420162       -0.34341374526921
C           -1.00205235803849        1.84643822340715       -0.39207707188854
C           -1.63113463186419        2.76462041647300       -1.29789591316064
C           -2.64101085337508        2.22854583758025       -2.07319723579211
C           -0.97837957518472       -0.25855952192182        0.88923923234764
C            0.04592908375329        0.33106996240511        1.64797039845992
C            0.49336979327284        1.55299316181326        1.30260037546461
N           -0.15887590125353        2.41484738086394        0.47758792003911
C           -1.78373502763778       -1.40197474164717        1.28341908537925
C           -1.08247660217930       -2.08451642243812        2.34368709684980
N            0.12938183535642       -1.80144107724567        2.89276606040008
C            0.64465925374156       -0.61836114481082        2.61533345158258
C            1.94272545454166       -0.28314016341116        3.06636979903034
C            2.30671083960014        1.05271428018564        2.86496248035687
C            1.66455095211413        1.96492032598032        1.97699203067443
C           -2.99339160360416       -1.80833961896665        0.87589043275083
C           -3.58411116732380       -2.92721383701613        1.45783484472867
C           -2.88739164146554       -3.68522964757540        2.43431785965221
C           -1.55988554298203       -3.34840602810881        2.76327717369371
O           -3.75329648176949       -0.99686448503386        0.09382861407343
O           -1.99835513194734       -1.41103749667282       -2.09372940296716
C           -3.34873770031266        3.25284545698049       -2.87351675515204
C           -3.42906073989151       -5.06235116143199        3.06193569116507
H           -1.22599427800170        3.83875658317905       -1.24524844914144
H           -3.47936727670021        0.37403174668247       -3.04583055547344
H            2.11877520917160        2.93502022850345        1.66073709610028
H            2.60388926980159       -0.96965425294725        3.72938017419674
H           -1.17430488816052       -4.01360579530789        3.55506477786669
H           -4.54177191784107       -3.25791616438644        1.11707777969425
O           -2.67173282620499        3.97365241358611       -3.57146842916796
O           -4.72486673471116        3.53385811745889       -2.60664930293467
C           -5.08483759902049        4.83294265736159       -3.14558878615133
C            3.74621923180384        1.39854348586722        3.41449011527484
O            4.28752522743493        0.82443247254462        4.36495092217037
O            4.54945334671239        2.29062439732517        2.76953532278142
C            5.84487098819842        2.27959272417653        3.11871952157073
O           -4.58199051178879       -5.45697593818497        3.17782565904786
O           -2.38635425716022       -5.81787670982768        3.49653309355474
C           -2.66537517043346       -7.10021298746987        3.83480093786214
C           -4.88138998873858       -1.50588630842590       -0.60000583233020
C           -0.76166020616464       -1.85409068827373       -2.52427959773957
H           -3.18571534692478       -7.71342306087082        2.91642467226689
H           -3.44599265610672       -7.13186666386379        4.48579828860729
H           -1.80669194400579       -7.58231845123732        4.21588830563011
H            6.42844528914689        1.45184129185051        2.76575602309263
H            5.91248931071395        1.99509961297733        4.21257509567544
H            6.24975030155857        3.30457361966364        2.69829910451087
H           -0.46622679152634       -0.90874515885370       -3.14121290383560
H           -0.43645469064945       -2.81238460268332       -3.00548965488529
H           -0.23352623390363       -2.00688170639238       -1.59141234223939
H           -4.37123159699329       -2.34251500217702       -1.10418939019770
H           -5.17839584886550       -0.51511223242743       -1.17891535460077
H           -5.66600892296481       -1.90352567804843        0.04220517431773
H           -4.31719216265923        5.54973879819920       -3.42208000767198
H           -5.79650231665244        5.32283677611064       -2.65280037388696
H           -5.36892510784476        4.71572417439448       -4.14866586708156
C           -1.64524708974741        3.22394506619769        3.15910377079439
C           -1.93166799242279        2.05492551753931        3.93684950319443
C           -0.95592055356019        1.80402642152635        4.97992291915501
C            0.22606879688546        2.52398634945895        5.02854724680027
C            0.34703866639633        3.67959111900991        4.41002990638068
C           -0.52309002333949        4.03417714541470        3.39183925009358
C           -1.04906614753606        0.75075225649949        5.88322389101032
C            0.17048407746956        0.09538914057812        6.20832989064333
C            1.36459873750094        0.80961398798956        5.96375350852176
N            1.40188487708199        2.09530496231126        5.66995767593459
C           -2.28871776220474        0.13073429992370        6.36565810763737
C           -2.23029716624879       -1.15851657661564        6.74432819428305
N           -1.12158953151196       -1.75515332883186        7.23575011800257
C            0.06708026457000       -1.18261337387266        6.95496127134714
C            1.33220107389715       -1.67194992096099        7.44842612720448
C            2.51187407322080       -0.91469447691523        7.43955779830945
C            2.49738258907624        0.29294632956046        6.60113407694080
C           -3.52493097599652        0.81122927355175        6.71273720101449
C           -4.68271969558939        0.04718825820199        6.73228496772784
C           -4.58849263135273       -1.32651861012032        6.87968975434121
C           -3.38173208433775       -1.99846578841104        6.95349252519782
O           -3.56175365368844        2.14196566085160        7.16653599108884
O           -2.95805328890089        1.01973531925970        3.80378159717041
C           -0.08309044566618        5.10677463837651        2.40779147657089
C           -5.63765864347234       -2.10513883823280        7.31948988120752
H            1.12927389578359        4.45501360468916        4.61059283786473
H           -2.14976258770942        3.39354660797421        2.18399668331990
H            3.36962408365711        0.91987231352411        6.55961023599038
H            1.22804282529913       -2.50511880659135        8.18841412003620
H           -3.02546413697493       -3.04246315436591        7.25256406512651
H           -5.63296160145189        0.33601526978044        6.89744406683211
O            0.75265473372692        5.94964383171972        2.83492604310761
O           -0.66606720352803        4.92113704905444        1.10741940128248
C           -0.57450712277609        6.11885668695385        0.36242781187929
C            3.52402511929954       -1.22820712134385        8.42703886855319
O            3.50368289677146       -2.28793471711007        8.95565020408407
O            4.25067912543951       -0.12911566223777        8.82290244905060
C            5.42607871468721       -0.40739834521139        9.61104130393659
O           -6.66384752854556       -1.55520163051291        7.81391794971137
O           -5.61582767231284       -3.41136213079705        7.11033118021799
C           -6.80405298067526       -3.95179929966090        7.59160374739172
C           -2.46720678838909        2.50646435125099        7.98332925355454
C           -4.42503218151308        1.15448723027492        4.05758075473416
H           -6.38575987340121       -4.85716110710391        8.15561151866725
H           -7.46618100830513       -4.36311483587697        6.77492524222702
H           -7.39177399935342       -3.36767736959288        8.41374837235078
H            5.90795107328590        0.59289794349780       10.04348208062748
H            6.14016897866611       -0.91502793596331        8.97673338070566
H            5.28904484497244       -1.07042259722859       10.48754645596919
H           -5.03481556349020        0.47212319998108        3.43070906174825
H           -4.85391866090649        2.20735677792670        4.16625158749865
H           -4.51107470570256        0.83388054378919        5.07433832476651
H           -1.90344223023483        1.53474626758847        8.36171654817129
H           -2.88116726021251        3.06237224194870        8.84788138060405
H           -1.75722118826665        3.21995703583467        7.46500980666041
H            0.35503597244153        5.97030700676845       -0.13081622628454
H           -0.60124312690028        7.02191296824193        0.93422526239816
H           -1.48179215282613        6.32224243582536       -0.39904533202603
116
 energy: -22.675458332030 gnorm: 0.519806096362 xtb: 6.6.1 (8d0f1dd)
C           -2.70341453140034        1.01893704040101       -2.64518713070226
C           -2.43561106080057        0.16718938775266       -1.67237467185025
C           -1.49067913196837        0.56685267420726       -0.66734638462205
C           -0.83303545347799        1.82180439180895       -0.62698376024360
C           -1.11863351238831        2.57407052061286       -1.69093416802274
C           -1.97993564225913        2.18831226596273       -2.69603938351768
C           -1.28762382114375       -0.26874899638090        0.55604628561311
C           -0.01326618008008        0.09103692290769        1.16716685405937
C            0.53205984685845        1.35992508182207        1.05356263303132
N            0.12011226493497        2.26492877164428        0.13624390915783
C           -1.79882996928601       -1.46615503759704        1.08013323341735
C           -0.96358816420305       -2.41155638638091        1.79051426733772
N            0.32191000429116       -2.15235157195965        2.03078147642719
C            0.79688983713353       -0.94301521455201        1.89861028350124
C            1.92382238788814       -0.65652436571876        2.58695730832907
C            2.25064833341830        0.62984058875182        2.42082314453704
C            1.70995086180180        1.57954920130288        1.53370837382350
C           -3.25094149544684       -1.64607155926111        0.86980548885419
C           -3.67772009363463       -2.89419034628921        1.30651087880852
C           -2.87029360509114       -3.92114799704412        1.72554391737040
C           -1.50291256856604       -3.71669219772824        1.96395952213863
O           -4.18236218922251       -0.74837165067706        0.52337532755323
O           -2.71935416028192       -1.20357394702204       -1.86146787141509
C           -2.47140844056111        3.11150400282985       -3.76550964320784
C           -3.57625722097553       -5.22984947248268        1.90413110009996
H           -0.89899380007046        3.63078084313237       -1.72288694222614
H           -3.37553594625973        0.52401744181452       -3.44387016080478
H            2.19287606675945        2.57882646987239        1.36811049573222
H            2.51214691274853       -1.48079290386755        3.05768540150237
H           -0.96345434581610       -4.65436836961393        2.21975118307418
H           -4.73842063470842       -3.03178397487805        1.23455965510142
O           -2.98156395127826        2.59348672583925       -4.76651327891300
O           -2.52762627821955        4.53397686131579       -3.66162764238342
C           -3.57904399127591        5.15266675199750       -4.48320597252923
C            3.18718446707655        1.29203625428597        3.40417415525555
O            3.75961169765511        0.59618639707995        4.21252981916994
O            3.41123877996623        2.64807011330653        3.30036015770313
C            4.52946027190864        3.11975529812741        4.04399116343087
O           -4.20531420471949       -5.77901254410800        1.01490724903957
O           -3.49586892401766       -5.70030587246452        3.18343053800720
C           -4.08008408397195       -7.03120267711472        3.23331872750346
C           -5.61792317489443       -1.06538670994239        0.23392635114606
C           -1.60282896699517       -2.01206620713730       -2.34945336233502
H           -3.77815729359413       -7.56341113014873        2.22023286765406
H           -5.14494374594400       -7.08406607684836        3.19480370543828
H           -3.75880053189277       -7.70602337076823        3.89244836998486
H            4.00651271582207        3.15843818779119        5.00462900643763
H            4.95170805633145        4.09047102265405        3.67322311345569
H            5.30688688726843        2.30303590249261        4.04285545448546
H           -0.69625795726451       -1.50050039203345       -2.05496299516006
H           -1.74468001833825       -2.19581471342844       -3.33490935398479
H           -1.49630960920824       -3.04245272339606       -2.00101221637395
H           -6.06676758683189       -0.76106893339637        1.25906656682593
H           -5.78269024007425       -2.06554677280218        0.09496256018798
H           -5.85985074658703       -0.43270336710509       -0.70106329266749
H           -3.25440542945323        5.18546359872943       -5.60554014696392
H           -3.62266280382243        6.06151411717922       -3.89222943606131
H           -4.57724860999636        4.86610246005238       -4.57939875681407
C           -1.60507675438780        2.86259860330729        3.43061166900281
C           -1.56461613799654        1.61628861888486        4.11097620951779
C           -0.68037427883120        1.59048595844505        5.26503451804755
C            0.51338953991044        2.35699853077333        5.22966408141584
C            0.64596071565402        3.33104949345116        4.24608271768958
C           -0.44560384486125        3.68522249180691        3.36442964681427
C           -0.91816671095797        0.63069503749576        6.41836453298579
C            0.31897204333356        0.20506281968720        6.94783525171455
C            1.49283844763802        1.04913011514189        6.83229999983984
N            1.60255380631950        2.03131997058230        5.92903325020037
C           -2.01794819411648       -0.14724405832795        6.81114721858611
C           -1.83284166927382       -1.33992635669366        7.43863984220463
N           -0.52630853845124       -1.81518320741927        7.80553641022861
C            0.44053957325954       -0.95331863933749        7.79951027855082
C            1.60421646601792       -1.04323960728267        8.67249421245461
C            2.71928589236732       -0.30887355325733        8.47066096946682
C            2.69376898762922        0.62675391342107        7.56461643438342
C           -3.28000912605828        0.44506615391921        6.67109629998952
C           -4.38661293530072       -0.15113167855475        7.23914847112800
C           -4.08120776476279       -1.35122381138073        7.97724755791034
C           -2.86976562803739       -1.94789959555815        8.17637513824124
O           -3.26352723670707        1.73125854734242        6.05102061404665
O           -2.47883693700960        0.62640001088230        3.73635874427237
C           -0.58232327870465        4.88292083470895        2.58666293324458
C           -5.40906948527712       -1.98821911569876        8.30574391762240
H            1.57071555590096        3.94964111055131        4.17389981556537
H           -2.30151722174148        3.15001799214500        2.61156086693668
H            3.56360429084772        1.24018094965500        7.52962847371140
H            1.59533802074323       -1.75253227513614        9.49889013434364
H           -2.48852085084338       -2.69203884276572        8.86428201317834
H           -5.19963898822917        0.35503940367302        7.49082674358098
O            0.39239608371014        5.31779871107246        2.04624475342963
O           -1.89298574320574        5.33822557930324        2.58748814407767
C           -1.99894933319250        6.73770981731899        2.54255895605983
C            4.12966486576228       -0.64313693963194        9.17181217198361
O            4.09025228819133       -1.58011169901994       10.01266372306304
O            5.13772029797242        0.14954746061534        8.66416756023443
C            6.40790800571296       -0.56547075635001        8.73394284183990
O           -6.53607873343297       -1.49192209256754        8.65907289641805
O           -5.23612936697086       -3.31499833619019        7.96429247272035
C           -6.44187183014667       -4.03442223515825        8.22927754352906
C           -3.79486020577020        2.76076937789137        6.69486744741853
C           -3.71546953662943        0.96334015487481        3.04516796644917
H           -6.89536339579456       -4.52563403183254        7.37442951499527
H           -7.12929632223627       -3.36444207673470        8.74775329684179
H           -6.21635795159678       -4.84559370521583        8.94303609484512
H            7.04310463585054       -0.13968569827076        7.94610387405024
H            6.19522145842513       -1.57182334721567        8.57047794353741
H            6.55873837092071       -0.52827123234863        9.80037687997752
H           -3.29168463631737        1.47424492737950        2.13613626309731
H           -4.25165444611517        1.70725922377105        3.60190846691347
H           -4.21872985188092       -0.03285615444614        2.91184094410423
H           -2.91377118853806        3.37705372347728        7.11463759444906
H           -4.16476399439845        2.48634854030632        7.75094063634513
H           -4.49910412762057        3.26763892058540        6.09350307422948
H           -2.24956433649089        7.15569000176159        1.50063534231533
H           -0.96625266194671        7.09615180311647        2.76250845177490
H           -2.63426883119765        7.07950758364871        3.37250193584997
116
 energy: -22.654933859380 gnorm: 0.507109508922 xtb: 6.6.1 (8d0f1dd)
C           -2.07739817975183        0.57582447997753       -3.26731105504882
C           -1.67050698071971       -0.29017212630089       -2.26240694513629
C           -1.68212313093606        0.31622413797410       -0.99539545410620
C           -1.41280215039847        1.66573105249243       -0.85199089062605
C           -1.61572150253714        2.51051376375077       -1.96180467786427
C           -1.96223383837892        2.00339143790265       -3.19248998070908
C           -1.42926757275410       -0.43868817982583        0.15833217971816
C           -0.56339263294027        0.08176735214736        1.03858775020545
C           -0.22668015472898        1.43571130346663        1.02933378087436
N           -0.83799098564061        2.37825578097590        0.19132565553886
C           -2.18605382440869       -1.47711639599172        0.58880934962672
C           -1.50079006541141       -2.17423084464491        1.73731594294160
N           -0.39082092773985       -1.87196575974868        2.48472389459706
C            0.00889508776780       -0.71644421819577        2.10690447674563
C            1.00417670957316       -0.20001384798627        2.90100101057184
C            1.50131357924968        1.11988066715732        2.73736217035115
C            0.78221043367036        1.93560190155102        1.81791939366554
C           -3.43907812967016       -1.79655123974774        0.09082516855612
C           -3.94948863343755       -2.89023672427514        0.46003772600576
C           -3.36691798900843       -3.71495369323474        1.43280603308976
C           -2.14277611256505       -3.33591631397304        1.96474141383576
O           -4.19188833979564       -0.95697099906553       -0.79560145109130
O           -1.53670796403722       -1.67544287757365       -2.33618306411612
C           -2.18199295169077        2.87709860523880       -4.35443072477763
C           -4.04492972728343       -5.04128247280747        1.71043110352755
H           -1.49298449595895        3.59644004040177       -1.78198241011949
H           -2.21442292913861        0.13832060041606       -4.31033623557022
H            1.01489722874806        2.94807430908433        1.64048608589912
H            1.42162358893603       -0.90987549222048        3.63307250685647
H           -1.87205402977000       -3.87128792536518        2.78896808496704
H           -4.92845023222574       -3.31705655631909        0.18007360153426
O           -2.09757471447662        2.34925348261695       -5.43162652521436