116
 energy: -22.928061455056 gnorm: 0.329736929581 xtb: 6.6.1 (8d0f1dd)
C           -3.31122850772930        0.79849766164622       -0.92477639677520
C           -2.44380812530352       -0.12270372891954       -0.27661132624697
C           -1.41337090092821        0.39579727573559        0.56335275196199
C           -0.89266158675590        1.65801491088749        0.27377586709581
C           -1.72665675402493        2.51431363229076       -0.49448366572522
C           -2.95444148494349        2.13954154133227       -1.01494489940871
C           -0.74098268209890       -0.43411532818871        1.49825021926784
C            0.56872586496315        0.03782116815119        1.86248088067890
C            1.03782416582094        1.29402317993033        1.50887470833621
N            0.31238977034758        2.07067427098208        0.65193736800696
C           -1.29695700510141       -1.39996043042223        2.41574187746061
C           -0.38243517664656       -2.18060797534842        3.13232615520648
N            0.91308504082021       -1.90366887689689        3.30325166013478
C            1.37712470144904       -0.74872102533751        2.81811050966982
C            2.52149331701875       -0.17739833758153        3.39379298866852
C            2.95849061756259        1.02681208890480        2.95105897606587
C            2.24288949469137        1.78498308775960        2.03503020483770
C           -2.74860936222260       -1.74497937691422        2.38401158947411
C           -3.09416315450955       -2.91614440870436        3.00571134491758
C           -2.16786021984049       -3.77788778654213        3.63251872101904
C           -0.85708937311598       -3.40495313382985        3.68547234358092
O           -3.71994433332149       -0.94984598373544        1.67726658385724
O           -2.55702603277562       -1.47241711578389       -0.57241635275616
C           -3.84297843593025        3.13357444054366       -1.60938954875544
C           -2.68769581069131       -5.03867041417370        4.30484659386931
H           -1.39666850744143        3.51251503834900       -0.76806311868865
H           -4.27662633836220        0.55105838579656       -1.33106614114542
H            2.66329581305412        2.73912661909249        1.72562431984580
H            3.05775395548473       -0.69369546277216        4.16536137542516
H           -0.24710966264510       -4.12034095424229        4.22946223699121
H           -4.11477991332403       -3.04712728052358        3.03244694615357
O           -4.21824883374556        4.03433712717988       -0.87713382485991
O           -4.44510595673734        2.90643496899600       -2.81853501752979
C           -5.44216520282800        3.83300025693726       -3.02488532025093
C            4.23586651889298        1.50004220933226        3.59165660008449
O            5.05927614697201        0.66079890002952        3.91714215179376
O            4.47001334453535        2.86385149488593        3.72605651435371
C            5.79457498613219        3.08584475587818        4.15829123132174
O           -3.82227255313510       -5.27347675879771        4.16636005494405
O           -1.85023202017753       -5.79767454267276        5.06656077253571
C           -2.55119635829503       -6.86252441382958        5.62930343183426
C           -5.07197156564436       -1.42399175670916        1.58830531863830
C           -1.33089900128490       -2.23622472573986       -0.99264499351172
H           -2.54510546830388       -7.76426885143998        4.99136022291012
H           -3.57194749219491       -6.44405511486021        5.74196173723541
H           -2.09133598235598       -7.02043774843818        6.64022264233588
H            5.72707967266424        3.46798026205549        5.10135971236643
H            6.34060091246885        3.78468702308830        3.50069950143490
H            6.17933064298187        2.03010500085905        4.19342358084693
H           -0.91862729772622       -2.57650129080332       -0.01361370304871
H           -0.49769766914251       -1.60651221708571       -1.34094446550576
H           -1.52632419730509       -2.94569707152159       -1.75361447637286
H           -5.11788846557077       -2.41810833635233        1.17520213188926
H           -5.67929807973498       -0.69619639428435        1.04301666067831
H           -5.57598832326623       -1.42383358739762        2.57928294206544
H           -6.13050215934830        3.76035386975488       -2.23272855695873
H           -5.86615610071888        3.45938329385866       -4.02668959924245
H           -5.13479557532099        4.87790991548477       -2.98314551356402
C           -1.38192942069774        3.73616555005018        2.91232598411686
C           -1.84821468128685        2.59982427735607        3.49755545445181
C           -1.05946531454833        2.05730632010638        4.60922730982276
C            0.19893954712228        2.69376791964407        4.86302140881997
C            0.50425395911860        3.94630308659851        4.28768785650746
C           -0.26031777722226        4.46998310053134        3.25072669343212
C           -1.20488993561782        0.74454293276906        5.14851520323437
C           -0.06287609782692        0.02744069315890        5.60930570802864
C            1.19208754369866        0.71421540266195        5.78882868583885
N            1.19428660993148        2.06344359410476        5.62744624321596
C           -2.41361422770794        0.07928500213936        5.25249410304426
C           -2.45851584031083       -1.32662100968547        5.60237876023992
N           -1.29466212405906       -1.98318595734370        5.89916817085159
C           -0.14475655767527       -1.32117560077092        5.98824682881008
C            0.97209270935794       -1.98958449505532        6.53157704134458
C            2.21982707914082       -1.36973967291181        6.68703967237737
C            2.30561929262884       -0.09745313075593        6.26436900324455
C           -3.73018485967715        0.71367583494582        5.25810242262992
C           -4.89964478833448       -0.06184623426677        5.21204641615509
C           -4.82617965800088       -1.39228978090841        5.46901303780036
C           -3.67144193418464       -1.98914944386360        5.67265433266067
O           -3.75568638935321        2.07705011038914        5.52067969627343
O           -2.94192434743730        1.91263938797883        3.01658762327703
C            0.21273512614467        5.50086066357994        2.34765104514621
C           -6.06660304520411       -2.17604633098929        5.80641622556876
H            1.41756699010566        4.38133362238595        4.66974005703471
H           -1.82880610647429        4.11982501512100        2.06992133318584
H            3.26888037378556        0.32655662585251        6.31721410015598
H            0.87146188387207       -3.08471526305024        6.57830423410869
H           -3.67716811065157       -3.05999292755990        5.83019634570050
H           -5.77379677507622        0.43595144608221        4.71017130754348
O            1.34459852619901        5.82615848916894        2.44941456579099
O           -0.74718748219123        6.07961784856304        1.59848183464284
C           -0.21473095568964        7.24015934882472        1.05753806029483
C            3.53228080814219       -2.00967610361154        7.02506769044485
O            3.64093082622715       -3.14437803815732        7.50071391725347
O            4.56565258381079       -1.22937033368332        6.69086985080897
C            5.72579357310716       -1.80692399125161        7.22246151275881
O           -7.04801223588612       -1.95726935745904        5.14194115322235
O           -6.01514389321278       -2.93743591896022        6.94765316328794
C           -7.21292732384718       -3.62681918543340        7.15115816329978
C           -4.95459780685163        2.65960679932188        5.86868674392943
C           -3.68284113682406        2.59129188358641        2.05479246020704
H           -7.43119628931628       -4.22607794725959        6.20622607140901
H           -8.06548455146707       -2.91765848248592        7.29781126410398
H           -7.07314693247270       -4.33087306029711        7.91223421050944
H            6.57332189837178       -1.29353136199234        6.78341268688262
H            5.74663761932316       -2.84282155125561        6.88089468184451
H            5.69426191474290       -1.72781984964892        8.29460302186842
H           -4.10481209541493        3.44288266176275        2.60483747673152
H           -4.49244774344916        1.87419893016926        1.82433103764650
H           -3.18901540870812        2.85154642679373        1.06781919454921
H           -5.55414326821421        2.76698137191684        4.93950725322359
H           -4.78658370641210        3.62090640967288        6.25983200635257
H           -5.43485580473958        1.97242995129449        6.65265772412460
H            0.89164886030839        7.38838561720231        1.13776105146914
H           -0.62894889903848        8.04195665205089        1.64837664327952
H           -0.59282546386754        7.45699159724320        0.03719083132488
116
 energy: -22.717288337979 gnorm: 0.465211093859 xtb: 6.6.1 (8d0f1dd)
C           -2.99263587604035        0.68567050115004       -1.29995117368316
C           -2.17185277062165       -0.22916932248123       -0.62002611356729
C           -1.28104816094889        0.29695104261901        0.33202659171055
C           -0.93189554425426        1.68625648999849        0.28414431683164
C           -1.80225917336517        2.49047994682499       -0.47890272535052
C           -2.72658483777039        2.04954107874832       -1.39107378594313
C           -0.50956187000845       -0.49728422094512        1.33104131885890
C            0.73001454917249        0.07277277563124        1.57626840206225
C            1.08049326416300        1.46128369992169        1.41530954972133
N            0.10399525463268        2.34270131820500        0.88878996276755
C           -0.86097221324352       -1.80202444731124        2.02483827660149
C            0.18612226278614       -2.56753632471683        2.62593521947811
N            1.47275025261651       -2.29732714990334        2.23803075769164
C            1.71711822736751       -0.90736118190407        2.06993733422701
C            3.01219108015943       -0.47789533802439        2.53722595774370
C            3.21606065012252        0.89538202260606        2.43755194800733
C            2.31376309654661        1.87432286678358        1.95495752009831
C           -2.18014000282338       -2.00045367968382        2.45111562318710
C           -2.43324958690699       -2.83539563141353        3.53960188535261
C           -1.42993983553791       -3.67083863932713        4.00124016325636
C           -0.06144913186382       -3.60627511623548        3.59191453968138
O           -3.12273977393602       -1.30575816929347        1.75583688033099
O           -2.20314715583813       -1.65098466508892       -0.91740870156397
C           -3.44379498576825        3.05692886084320       -2.18622319030266
C           -1.73620359385180       -4.66956093400619        5.14274718275498
H           -1.69663576485701        3.53971917903237       -0.24984862743014
H           -3.72487893570265        0.30848536615714       -1.99473151967045
H            2.64851556857446        2.87510425287313        1.69389945886256
H            3.75613949348504       -1.11705022295529        2.96110291578998
H            0.47819198194824       -4.53758926106224        3.48032228601536
H           -3.41663617104155       -3.08407355827859        3.64186898376555
O           -4.60855564941083        2.72827421233116       -2.36845966095659
O           -2.91156598294637        4.33026720495360       -2.40542590299406
C           -3.84994029983771        5.15455061811639       -3.12625924266951
C            4.55399376235235        1.10918989044634        3.29615521868964
O            4.83441686380442        0.12510536323299        4.05721697244510
O            5.43988202788184        2.11534437225164        2.97676451322978
C            6.81363804669223        2.08821594789593        3.24747784765106
O           -2.91662318812045       -4.68074754594153        5.48901920672164
O           -0.69548570605185       -5.29905799202803        5.77842682192211
C           -1.16832473437403       -5.85504107982110        7.00988677966942
C           -4.44789485088632       -1.24863957782585        2.18386992679743
C           -1.46464084638058       -2.01478170849714       -2.10768340807165
H           -2.21369814794113       -5.63917969278243        7.28755260887660
H           -0.70866099048356       -5.32680572467274        7.88311732473534
H           -1.13332328210158       -6.99890107708899        6.98422824593126
H            7.26860008835206        1.78252633810917        2.37217820012738
H            7.08130322576524        1.05793465264993        3.72876651839107
H            7.10639322890743        3.01369210438909        3.82967277468435
H           -0.75845230781840       -1.24034171974372       -2.30324235408747
H           -2.17877567897911       -1.99475962120684       -2.87552886191345
H           -1.12837015752514       -2.98209158374086       -1.91907880827220
H           -5.21071442324433       -0.97233643163308        1.35059124482741
H           -4.44288755337435       -0.53989371065762        3.01293346654552
H           -4.95065802208857       -2.04117830247963        2.55009387198988
H           -3.30217113900034        5.74676186082395       -3.91490982437169
H           -4.25112229482802        5.87259213420046       -2.43001480529962
H           -4.72003430226115        4.78096512454548       -3.51368337632810
C           -2.46120565420012        3.86016536541451        3.33212609171321
C           -2.67381454975261        2.61212044150928        3.93017837541360
C           -1.65832300986217        2.09546214544982        4.88684288810478
C           -0.30002771144221        2.57267651484512        4.71908644055935
C           -0.12783254133406        3.87220528385395        4.28098572547779
C           -1.17895566742557        4.47453947437249        3.58977410744556
C           -1.85440493921875        0.81128364756081        5.47543694640760
C           -0.62558543835034        0.03492286772540        5.70075505330995
C            0.60315871927197        0.67118805596763        5.53647120786720
N            0.84417331101884        1.87071848867672        5.05391131587548
C           -3.11030147148697        0.16831712456231        5.96703097163270
C           -3.04425370925326       -1.22362878848315        6.15907412935394
N           -1.92440755014509       -1.86120564938365        6.48723829844972
C           -0.76253601802997       -1.23243381061038        6.35615548224883
C            0.53392651015505       -1.88464546847331        6.55039774709072
C            1.76396492506681       -1.35756911434891        6.26148711025302
C            1.79853491700069        0.03883178029569        5.93971377074708
C           -4.26082762179862        0.99947062497112        6.09747893074206
C           -5.50058996864737        0.35631997831330        6.04467523178613
C           -5.50806290300106       -1.02779789928152        5.71796138906850
C           -4.34647971145427       -1.75680544415838        5.95121608023042
O           -4.19103493557637        2.42796527616418        6.28550749978080
O           -3.62049569447416        1.64329509339120        3.34322078223602
C           -1.00909656940015        5.70471889966813        2.84355948097862
C           -6.71958514928831       -1.84451768011535        5.69539184268053
H            0.88456372848744        4.30312515608391        4.36603814084802
H           -3.01203861528406        4.04451521382857        2.43091026573170
H            2.66427143521472        0.59414951698009        5.99589134016980
H            0.62098900936373       -2.87611039282688        6.85174496162105
H           -4.40048344862370       -2.81532697390666        5.87999886911949
H           -6.35816323410818        0.92061179850920        6.11761564081188
O           -0.34115181370274        6.66457554108196        3.23719852637509
O           -1.60720125321784        5.78389283691597        1.62888488971025
C           -0.90427447738294        6.66522812237358        0.73102762717430
C            3.06404662072158       -1.99744293460882        6.76496304645679
O            2.94295764651783       -3.17664109528391        6.99483642738856
O            4.22579414676247       -1.28384823766881        6.94232339425424
C            5.14609442527963       -2.14416753602987        7.67534221626840
O           -7.83546517826155       -1.78231026614223        6.20926376288570
O           -6.48944615274738       -3.04017288444276        4.94703379782176
C           -7.47804095821633       -3.84815144001819        5.24204219962641
C           -3.28976045199293        2.61925165045848        7.38206765969434
C           -4.08755603356606        1.93705411736832        2.09822949504216
H           -7.44706844373236       -4.77310435207359        4.64393508695745
H           -8.51952243396615       -3.32353986831530        5.31017556589597
H           -7.44454345659176       -4.06792961016256        6.32428608131942
H            5.19863292893650       -2.04769885996320        8.78164429688150
H            6.08399373920842       -1.76719948946825        7.27155751418267
H            5.05789225195364       -3.27227649980164        7.23930299331690
H           -3.31477475017704        1.56200057141077        1.46461757443800
H           -4.44797941060627        3.02705020555298        1.87776849574948
H           -4.91496450220953        1.33152278832191        1.94615717771789
H           -2.52606030751681        3.54169979994564        6.99584267231776
H           -2.55279909058344        1.81808356368845        7.43211917802383
H           -3.67142102217683        2.89144339146751        8.37869101069944
H           -0.11739817330497        7.22969644103669        1.14139714493947
H           -1.62733159257867        7.34452664631503        0.31756483191444
H           -0.27662022526099        6.03449641220378        0.15489715545006
116
 energy: -22.734339624859 gnorm: 0.470996166300 xtb: 6.6.1 (8d0f1dd)
C           -2.47371702123090        0.34050624717311       -0.75903459968760
C           -1.66332949026337       -0.41971062481970        0.03729144871872
C           -0.71793997466460        0.21233335977738        0.94813027521204
C           -0.38008211960383        1.57991838705289        0.67397618227233
C           -1.23306469948080        2.31140951067620       -0.26143486532734
C           -2.36828742194373        1.73383777331409       -0.81936327084346
C            0.02605589270761       -0.61784090470561        1.89653419283912
C            1.31808226309983       -0.11732433851235        2.16158814978645
C            1.69140177138885        1.12198486133126        1.58279099049987
N            0.80459884100235        2.00848884492442        1.10581161100892
C           -0.40879663898586       -1.73783863201335        2.65810668053467
C            0.60228313195436       -2.40704590398792        3.36982404400862
N            1.81041012253431       -1.87698634709677        3.72017592936025
C            2.19368202396179       -0.79944430067008        3.05092554196237
C            3.45274450622512       -0.16316329296322        3.31912680249537
C            3.83068311448633        0.98209364615025        2.65712097428932
C            3.01122094494058        1.57829425001395        1.76580023232832
C           -1.80444797865376       -2.09651006480568        2.92554269651347
C           -1.97484377867546       -3.37627716438793        3.34269619980437
C           -0.89823405533413       -4.28980720896502        3.66261790984252
C            0.34114782946747       -3.73555495904910        3.81882756698543
O           -2.87891492416535       -1.13963000991556        2.72301734357299
O           -1.56682441415029       -1.86073513549041        0.03579103878232
C           -3.34776197444816        2.61477197295491       -1.53949166142787
C           -1.17281846566083       -5.71927779909758        3.83808130423756
H           -1.28675744199083        3.38994834284619       -0.47495383756220
H           -3.39821597235905        0.01029941124305       -1.16366584783455
H            3.18514397772706        2.59571345534577        1.35387545217587
H            4.13038270658652       -0.66302774311806        3.97517355249527
H            1.30738961699674       -4.27073112031525        4.03991387990487
H           -2.99095367028423       -3.64649281101348        3.55085849613370
O           -3.55773397133249        2.44195062645474       -2.68356478050011
O           -4.06064096417431        3.41246725407266       -0.61960365010207
C           -4.96457163625928        4.19099905016874       -1.40360732851842
C            5.19008332703620        1.43188647771201        3.12467473823459
O            5.40677750789602        2.38324657833316        3.87122853534475
O            6.23520518543953        0.71729645167456        2.54681131259910
C            7.24390850839455        0.94276870983323        3.53671104167665
O           -1.62561456646728       -6.44231083024517        2.99443654930072
O           -1.00613046304001       -6.35757193293180        5.05561862931482
C           -1.76129815819850       -7.51725758515607        5.04225544982474
C           -4.24759310261116       -1.30446456319796        3.17386175067093
C           -2.58184783124533       -2.64754586704741       -0.68242617279441
H           -1.14901305741634       -8.29328619742188        4.65947467377966
H           -2.48966279331922       -7.19788971788105        4.25207669358970
H           -2.26112428302528       -7.65701027980237        5.94274685371047
H            7.06861415872518        0.32791720864270        4.28894784723760
H            7.41675268076194        2.07909416328134        3.60822517872126
H            8.08552166436061        0.64388646335147        2.83978777377257
H           -2.11203769822506       -3.20835365907467       -1.51055812352074
H           -3.22736239162398       -1.88392684030400       -0.99911922981029
H           -2.83142592232716       -3.33510193116669        0.04523892191300
H           -4.87502250025988       -0.56610688545705        2.73696118108980
H           -4.49088826085342       -1.26449018730467        4.20424895688018
H           -4.61672773607023       -2.29578920088305        2.92795585662370
H           -6.00279620705712        3.73531278490806       -1.37907391099768
H           -4.69385605798193        4.50535687670321       -2.40934319439441
H           -5.04028104279526        5.28257109259386       -1.07048904531289
C           -2.59218796686759        3.62949403762777        2.55487545875550
C           -2.82821425147612        2.55393038219730        3.35702681542515
C           -1.69794774715059        2.17003830634222        4.23082727835027
C           -0.40956757922094        2.70076022598594        4.06715724095026
C           -0.27077862373183        3.64849106429673        3.07590383194708
C           -1.36132621424509        4.20931131888009        2.45285113249448
C           -1.94005346432366        1.09411425067083        5.23641024079011
C           -0.76502848408706        0.47796693735554        5.65217580119309
C            0.47355965111634        1.17660370247004        5.55063001674160
N            0.60364910752625        2.33378414748755        4.87057279127730
C           -3.07749940645394        0.63358857775089        5.77968938457847
C           -3.20575071798412       -0.77554325607121        6.26266853931299
N           -2.07736347135735       -1.53398416666799        6.45691463248419
C           -0.91265077383368       -0.84716711861810        6.19769395373118
C            0.23085719078879       -1.32462886718846        6.77795171131109
C            1.48080937606201       -0.66388051716257        6.77839344523511
C            1.63449860451862        0.67930419661698        6.31183819515272
C           -4.35464433310808        1.32810753572347        5.88223987860255
C           -5.62625102357686        0.61078456472231        5.95698745183286
C           -5.59194902102235       -0.74760720053460        6.19092458057819
C           -4.38632035941385       -1.35963153725618        6.49007890765410
O           -4.39174749226958        2.72582993781317        5.74985118591901
O           -4.07486614138881        1.89529913332758        3.05814986863519
C           -1.13024750736702        5.56730393428167        1.68799837279730
C           -6.84458352694269       -1.65359971277972        5.94163759366824
H            0.65275529991960        4.28643658907536        3.12658120094355
H           -3.32812164773842        3.91941490455961        1.80698284044820
H            2.50309830883316        1.23502679060482        6.25946505345204
H            0.15790309916149       -2.28465707941046        7.31796124241328
H           -4.42233509208944       -2.41026918600302        6.63183991238607
H           -6.57177878861568        1.05241743991272        5.60344877083503
O           -0.50223177789462        5.51320117850639        0.66932952325036
O           -1.61057684276216        6.70009339148678        2.25333029404373
C           -1.43422905871709        7.70908665993851        1.25123093319438
C            2.73517806924897       -1.55638200110142        7.03857216853522
O            2.75242449793075       -2.53380900177512        7.84629702416285
O            3.81388546679833       -1.08307207607585        6.27891970266860
C            4.82660316815241       -2.03631864571773        6.18065445438052
O           -7.72171208691346       -2.04357627955528        6.72644292333238
O           -6.91437217849569       -1.99174575441652        4.61929693034346
C           -7.97550578284099       -2.65353729114970        4.00380230346617
C           -3.89363763289632        3.33707104419592        6.83963322830936
C           -5.10003793134958        2.66564481470030        2.31742206745214
H           -8.38773199523051       -1.99590111154872        3.28194781273700
H           -8.92612061008515       -2.79130973545734        4.60354672850359
H           -7.48323852389993       -3.56735239597487        3.57433830772987
H            4.80347397469330       -2.73439328287598        5.32856596970957
H            4.89045722226190       -2.73805345373667        7.00874027545172
H            5.89546299594335       -1.50753061139274        6.11617287185013
H           -5.88926887370100        2.49196044501757        2.97518104621981
H           -5.44909089253519        2.46744182018805        1.30303611415834
H           -4.68988420790212        3.72252329639789        2.48566700047212
H           -2.97171238690406        3.02786871725248        7.13449058996663
H           -4.47094427440459        2.83735696507270        7.70321422530525
H           -3.64468929362472        4.48727002684994        6.79950923700599
H           -1.52014178917232        8.73821620200319        1.64201943179341
H           -2.10879009152780        7.34618927159538        0.44032611298946
H           -0.47743025751345        7.46268484369661        0.79560338650527
116
 energy: -22.763016149365 gnorm: 0.454846455490 xtb: 6.6.1 (8d0f1dd)
C           -2.88829058494726        0.00839343445078       -0.43485228926016
C           -2.06991244884083       -1.05161426596834        0.04317964250274
C           -1.03096150582021       -0.48422263137078        0.97454043684286
C           -0.72982301216169        0.92764480651620        0.96578785212533
C           -1.62418932190777        1.85674902900657        0.49789705141090
C           -2.72757106671771        1.38553741567832       -0.07960184699279
C           -0.12981813502549       -1.33872648774332        1.71911723290636
C            1.11050678109648       -0.76065975268166        2.06908030834455
C            1.40969667255353        0.54609800258586        1.72481655021976
N            0.54411994918234        1.43825351469003        1.31605082669333
C           -0.38030845094019       -2.59429363848672        2.36704608068914
C            0.65767369976740       -3.31325026387088        2.93358980942529
N            1.93648522336705       -2.83811522532702        3.14413947548408
C            2.13259730855921       -1.52418529901527        2.77212868877348
C            3.37979193699143       -0.95764424368665        3.04399779079362
C            3.70043825894036        0.35186631045802        2.59640771535652
C            2.69731732206822        1.01296344459950        1.90904231088108
C           -1.70188040141844       -3.08662071416673        2.70737933401942
C           -1.97143456075834       -4.28240730485739        3.40721122087859
C           -0.92326611775365       -5.15262736387182        3.46901384257086
C            0.39968817689038       -4.68776393748519        3.26938539932002
O           -2.70772474942801       -2.20640775289500        2.41423488321797
O           -1.86575355100927       -2.38558691473875       -0.42318658600522
C           -3.52860595079127        2.50972948010635       -0.69870898696908
C           -1.03630524084891       -6.58082988027389        4.09622979419595
H           -1.56178983168855        2.93328177997474        0.61358447307610
H           -3.82258913700344       -0.22950669313214       -0.88766862274059
H            3.01178316829406        1.95290037594610        1.46408783364442
H            3.88745900135720       -1.23853186998053        3.95124778008323
H            1.24357167950176       -5.46494743897933        3.37530117013906
H           -2.95676016182017       -4.69095094718538        3.55582933246205
O           -4.67507188324694        2.22119693849626       -1.07984688381661