150
 energy: -332.090527671295 gnorm: 0.357710498029 xtb: 6.7.1 (edcfbbe)
C           -0.95640000000000        4.57960000000000       -0.08770000000000
C           -0.04710000000000       -1.94440000000000        3.17410000000000
C           -3.53210000000000        1.30220000000000       -3.07960000000000
C           -3.06140000000000        0.54040000000000       -2.01410000000000
C           -2.28430000000000        1.19070000000000       -1.00510000000000
C           -1.85790000000000        2.52700000000000       -1.20840000000000
C           -2.33920000000000        3.21580000000000       -2.32100000000000
C           -3.18770000000000        2.62610000000000       -3.22460000000000
C           -1.90060000000000        0.52030000000000        0.20530000000000
C           -0.77070000000000        1.00790000000000        0.91190000000000
C           -0.29230000000000        2.31500000000000        0.64310000000000
N           -0.96420000000000        3.11410000000000       -0.29510000000000
C           -2.66400000000000       -0.53030000000000        0.82000000000000
C           -2.03510000000000       -1.34100000000000        1.79930000000000
N           -0.75040000000000       -1.01490000000000        2.26380000000000
C           -0.21180000000000        0.24780000000000        1.97140000000000
C            0.78530000000000        0.83580000000000        2.74690000000000
C            1.23260000000000        2.11290000000000        2.50570000000000
C            0.72320000000000        2.82600000000000        1.44700000000000
C           -4.08490000000000       -0.63860000000000        0.64950000000000
C           -4.76280000000000       -1.67470000000000        1.28640000000000
C           -4.11890000000000       -2.52270000000000        2.15430000000000
C           -2.78120000000000       -2.34990000000000        2.40580000000000
O           -4.85420000000000        0.34930000000000       -0.00500000000000
O           -3.27320000000000       -0.83270000000000       -1.92130000000000
H           -4.16100000000000        0.85590000000000       -3.83020000000000
H           -2.01800000000000        4.22130000000000       -2.52350000000000
H           -5.82820000000000       -1.76290000000000        1.15030000000000
H           -2.32870000000000       -2.97500000000000        3.15270000000000
H            1.16960000000000        0.33880000000000        3.61790000000000
H            1.10050000000000        3.81880000000000        1.27830000000000
C            0.31920000000000       -3.25880000000000        2.49700000000000
C            0.99940000000000       -4.23730000000000        3.44060000000000
C           -1.64780000000000        4.95470000000000        1.22090000000000
C           -1.59550000000000        6.44450000000000        1.51390000000000
C           -5.10020000000000        1.47080000000000        0.81190000000000
C           -4.39490000000000       -1.31280000000000       -2.62280000000000
S           -3.86260000000000        3.63350000000000       -4.68720000000000
F           -2.72990000000000        4.71000000000000       -4.40800000000000
F           -2.86710000000000        2.81880000000000       -5.61980000000000
F           -4.80570000000000        4.37010000000000       -3.64130000000000
F           -4.42950000000000        4.47670000000000       -5.90380000000000
F           -4.96480000000000        2.51010000000000       -4.89330000000000
S           -5.08880000000000       -3.86460000000000        3.08440000000000
F           -6.33850000000000       -3.55400000000000        2.16260000000000
F           -5.52890000000000       -2.70800000000000        4.07140000000000
F           -5.88770000000000       -4.95690000000000        3.90160000000000
F           -4.56100000000000       -4.90790000000000        2.01450000000000
F           -3.79340000000000       -4.10700000000000        3.95400000000000
S            2.49790000000000        2.91260000000000        3.67970000000000
F            3.63640000000000        2.28090000000000        2.78050000000000
F            2.47000000000000        4.19990000000000        2.75970000000000
F            3.51830000000000        3.58270000000000        4.67540000000000
F            1.26970000000000        3.47400000000000        4.49920000000000
F            2.44700000000000        1.60290000000000        4.56150000000000
H           -0.67130000000000       -2.10840000000000        4.05560000000000
H            0.86550000000000       -1.48230000000000        3.54910000000000
H            0.96650000000000       -3.04570000000000        1.63710000000000
H           -0.57780000000000       -3.71540000000000        2.06290000000000
H            1.92100000000000       -3.81770000000000        3.84610000000000
H            1.25490000000000       -5.17420000000000        2.94280000000000
H            0.35440000000000       -4.48020000000000        4.28610000000000
H           -4.58460000000000       -2.33570000000000       -2.29310000000000
H           -4.18970000000000       -1.31110000000000       -3.69420000000000
H           -5.26090000000000       -0.69180000000000       -2.38340000000000
H           -5.55790000000000        2.25830000000000        0.21090000000000
H           -4.14880000000000        1.80920000000000        1.22360000000000
H           -5.76250000000000        1.18330000000000        1.63100000000000
H           -1.44890000000000        5.08320000000000       -0.91940000000000
H            0.07670000000000        4.93330000000000       -0.10740000000000
H           -1.20170000000000        4.39010000000000        2.05060000000000
H           -2.68830000000000        4.60470000000000        1.19100000000000
H           -0.56470000000000        6.79440000000000        1.58760000000000
H           -2.09540000000000        6.69120000000000        2.45240000000000
H           -2.07690000000000        7.01910000000000        0.72130000000000
C            1.15230000000000        2.12690000000000        6.99140000000000
C           -0.13490000000000       -2.69100000000000       12.48480000000000
C           -3.22530000000000       -0.01260000000000        5.65290000000000
C           -2.81780000000000       -0.71770000000000        6.78750000000000
C           -1.81680000000000       -0.13230000000000        7.63240000000000
C           -1.03260000000000        0.93040000000000        7.10760000000000
C           -1.50490000000000        1.60270000000000        5.97820000000000
C           -2.60830000000000        1.16810000000000        5.28730000000000
C           -1.50020000000000       -0.66330000000000        8.93260000000000
C           -0.19200000000000       -0.43900000000000        9.43190000000000
C            0.67000000000000        0.48440000000000        8.78230000000000
N            0.22290000000000        1.20110000000000        7.66770000000000
C           -2.41240000000000       -1.42830000000000        9.74320000000000
C           -1.88290000000000       -2.24930000000000       10.77490000000000
N           -0.57000000000000       -2.06020000000000       11.21830000000000
C            0.26690000000000       -1.14480000000000       10.57560000000000
C            1.56500000000000       -0.91770000000000       11.01920000000000
C            2.39520000000000       -0.01980000000000       10.39720000000000
C            1.95020000000000        0.66860000000000        9.29610000000000
C           -3.84140000000000       -1.35090000000000        9.61310000000000
C           -4.61930000000000       -2.30630000000000       10.26810000000000
C           -4.06320000000000       -3.23280000000000       11.12050000000000
C           -2.72090000000000       -3.17910000000000       11.38860000000000
O           -4.39520000000000       -0.29840000000000        8.89470000000000
O           -3.26100000000000       -1.98750000000000        7.14210000000000
H           -4.02610000000000       -0.38550000000000        5.03760000000000
H           -1.01790000000000        2.49340000000000        5.62130000000000
H           -5.68490000000000       -2.33540000000000       10.12310000000000
H           -2.32050000000000       -3.89420000000000       12.08410000000000
H            1.95850000000000       -1.45840000000000       11.86030000000000
H            2.62900000000000        1.36510000000000        8.83910000000000
C            0.59900000000000       -4.00540000000000       12.26000000000000
C            1.05080000000000       -4.66270000000000       13.55460000000000
C            1.25070000000000        3.47700000000000        7.69010000000000
C            2.28920000000000        4.39630000000000        7.06490000000000
C           -5.79800000000000       -0.30230000000000        8.79200000000000
C           -4.11620000000000       -2.62430000000000        6.23860000000000
S           -3.19770000000000        2.21900000000000        3.81160000000000
F           -2.97160000000000        3.50770000000000        4.70000000000000
F           -1.69260000000000        2.29560000000000        3.34860000000000
F           -4.67520000000000        2.09020000000000        4.35670000000000
F           -3.64530000000000        3.07310000000000        2.57050000000000
F           -3.39230000000000        0.87090000000000        3.02980000000000
S           -5.12940000000000       -4.56040000000000       11.96720000000000
F           -6.37170000000000       -4.02430000000000       11.13960000000000
F           -5.42550000000000       -3.49020000000000       13.10330000000000
F           -6.01950000000000       -5.66660000000000       12.67240000000000
F           -4.74430000000000       -5.52850000000000       10.76760000000000
F           -3.83820000000000       -5.03740000000000       12.75790000000000
S            4.15150000000000        0.26530000000000       11.06350000000000
F            4.65570000000000       -0.76160000000000        9.96190000000000
F            4.29810000000000        1.45490000000000       10.02370000000000
F            5.61500000000000        0.50610000000000       11.61870000000000
F            3.50730000000000        1.26770000000000       12.11440000000000
F            3.91560000000000       -0.93710000000000       12.07190000000000
H           -1.00460000000000       -2.83750000000000       13.12940000000000
H            0.48650000000000       -1.98570000000000       13.04080000000000
H            1.46030000000000       -3.82890000000000       11.60420000000000
H           -0.04890000000000       -4.68690000000000       11.69510000000000
H            1.72330000000000       -4.01040000000000       14.11360000000000
H            1.57870000000000       -5.60070000000000       13.37370000000000
H            0.20090000000000       -4.88410000000000       14.20180000000000
H           -4.39310000000000       -3.59870000000000        6.64670000000000
H           -3.57800000000000       -2.77550000000000        5.30560000000000
H           -5.01660000000000       -2.03080000000000        6.07430000000000
H           -6.09190000000000        0.55320000000000        8.18160000000000
H           -6.23970000000000       -0.20420000000000        9.78510000000000
H           -6.13010000000000       -1.21990000000000        8.30390000000000
H            0.84540000000000        2.25790000000000        5.95310000000000
H            2.13140000000000        1.64660000000000        6.90930000000000
H            1.47690000000000        3.32030000000000        8.75170000000000
H            0.26320000000000        3.95520000000000        7.68070000000000
H            3.27700000000000        3.93110000000000        7.05830000000000
H            2.37160000000000        5.34640000000000        7.59520000000000
H            2.04280000000000        4.61660000000000        6.02430000000000
150
 energy: -332.188235620521 gnorm: 0.247063776589 xtb: 6.7.1 (edcfbbe)
C           -0.95434192302443        4.57088532497642       -0.08748893137977
C           -0.05470537728075       -1.93986974315174        3.16777267666694
C           -3.53140390710267        1.29586105981128       -3.08090680748407
C           -3.05991248861310        0.54458976047342       -2.01102096270111
C           -2.28227538458692        1.18598740443013       -1.00549723757383
C           -1.85451184437847        2.52323281682766       -1.20290112662956
C           -2.32904496028432        3.21921188911578       -2.31594494116984
C           -3.18076204610338        2.62067089816003       -3.21521505470358
C           -1.90508015602016        0.51774780887023        0.20379253859978
C           -0.77763912084274        1.00677874616443        0.91303848593129
C           -0.30923726384353        2.31863225099777        0.64819284582307
N           -0.97148473019689        3.11239089545270       -0.29136623829845
C           -2.66799541179664       -0.52124732815642        0.82536773616651
C           -2.03562573468959       -1.32737027940220        1.80763237004993
N           -0.74703199487136       -1.01589703336538        2.25473522793628
C           -0.21778569183413        0.24449278004806        1.97082598009836
C            0.77961296744825        0.82822217599087        2.74980226117149
C            1.22981971746688        2.10352682890509        2.48814190450288
C            0.71859627290007        2.83176122743259        1.43758920517168
C           -4.07904200291325       -0.63847232010966        0.65402926237112
C           -4.76591822411333       -1.66681350297010        1.28423501025520
C           -4.11132064674334       -2.52192692958834        2.13961668861198
C           -2.77249308364910       -2.34594816329867        2.41133055842013
O           -4.83999195480385        0.32580262424286       -0.01371008584155
O           -3.27474032872572       -0.80909965634181       -1.91400701814434
H           -4.15881584083429        0.84935158878804       -3.82948812294228
H           -2.01479072172487        4.22575830099787       -2.51267603423330
H           -5.82897432694853       -1.75198845789201        1.14334479449209
H           -2.31718647487207       -2.97321730834348        3.15025630662334
H            1.16545664762784        0.32900227835038        3.61572647080026
H            1.09532346109835        3.82108134253443        1.26736007103556
C            0.31554745480350       -3.25923789884022        2.48698854509472
C            0.99800315410339       -4.23211189202638        3.44242282503324
C           -1.64897843095521        4.94983008690239        1.22370448771018
C           -1.59289877991190        6.44463896927873        1.50891173494490
C           -5.09903905343689        1.45454701966388        0.80157659520198
C           -4.39117843644067       -1.30774293955297       -2.62140069615795
S           -3.85234099995273        3.61752531213192       -4.66466458397791
F           -2.72014068548009        4.73456901361864       -4.42319889083551
F           -2.85886815700619        2.81313509068312       -5.64334448405142
F           -4.82244782489244        4.38941576104465       -3.63628778624133
F           -4.42200494108797        4.46438286958695       -5.88666075034592
F           -4.98937684919958        2.50688436714252       -4.90698234120212
S           -5.07834380208028       -3.85062602650042        3.05683536582515
F           -6.36846563757574       -3.56881591651311        2.14723513712558
F           -5.55383469372967       -2.70378788403649        4.07657245476023
F           -5.88164177211267       -4.94527639493878        3.88187681770862
F           -4.56416910110258       -4.94128993128141        1.99600786741263
F           -3.78844756537813       -4.14669270751258        3.96089855978313
S            2.48341615418577        2.89804084694114        3.64345343613902
F            3.67085368491613        2.27420330949335        2.76595429625270
F            2.48864913015383        4.23052601933080        2.75144047240072
F            3.51252144778356        3.56867762677123        4.64393130805330
F            1.25339688284979        3.49034369599362        4.48440616042563
F            2.46287121586771        1.59260899535311        4.57439256723911
H           -0.67814631807342       -2.11160489879622        4.05114988720454
H            0.86165509112630       -1.47887584569983        3.53452776465738
H            0.97317922396114       -3.04395158366433        1.63964523669920
H           -0.57977489406992       -3.72131766482502        2.06518471897164
H            1.91973169444269       -3.81284808995080        3.84365680951345
H            1.25038341826661       -5.16467779987739        2.93914272162788
H            0.35065488513321       -4.47634465000562        4.28348609613576
H           -4.57099167419824       -2.32981500071750       -2.28539402722683
H           -4.19508752500426       -1.31463778183261       -3.69656235711002
H           -5.26654109388750       -0.69710867614494       -2.39089827959798
H           -5.55652264671996        2.23788381470155        0.19790452511017
H           -4.15808508569817        1.81283860831930        1.20264397771364
H           -5.76289912190768        1.18605777804680        1.62976676265566
H           -1.45472108120340        5.06976531323485       -0.91699539508749
H            0.07908234832297        4.92735538794929       -0.10056877684335
H           -1.19486507562131        4.39687166515448        2.05118352861753
H           -2.68878038884993        4.61514351720557        1.18050266637534
H           -0.56289386653310        6.79000202364703        1.58691480965619
H           -2.09391443804296        6.68167756849099        2.44669953663714
H           -2.07788956813224        7.01571721117612        0.71826802059728
C            1.14568981289769        2.12000507847407        7.00651505726205
C           -0.13826372768120       -2.68595421557511       12.47661093346664
C           -3.22693476420420       -0.01992108860374        5.65361264352478
C           -2.81656504180439       -0.70849500345487        6.79531990792615
C           -1.81122987465383       -0.13814506197139        7.63237941284359
C           -1.02160066357903        0.91959991826464        7.10705976062735
C           -1.49319906141493        1.60564648934851        5.98385452108084
C           -2.60406855194606        1.16318069588646        5.30486881392891
C           -1.50536132505118       -0.66326297759945        8.93145837267716
C           -0.19516112685461       -0.43955058635013        9.43264788791558
C            0.66550651091916        0.48404473011191        8.78132535753439
N            0.21926804630418        1.19958257212370        7.67460645779262
C           -2.41419873640876       -1.41966267638921        9.74547625282342
C           -1.88293394692824       -2.23513353046300       10.78100898184204
N           -0.57170822015254       -2.05711985243851       11.21761405785770
C            0.26211968859654       -1.14573601857190       10.57723765072398
C            1.56197316773232       -0.92477518894311       11.02506291767337
C            2.38565888222202       -0.02226526274376       10.39287125793235
C            1.94970414785689        0.67407647998401        9.28914175734510
C           -3.83579570460672       -1.35649290614835        9.61219301514876
C           -4.62181155044037       -2.30101841832433       10.26701685823138
C           -4.05430582504296       -3.22837986173686       11.11335293902085
C           -2.71005765208364       -3.17765181799859       11.39260504958631
O           -4.38406240606831       -0.31558590609446        8.90207383794813
O           -3.25216196115982       -1.95971019602065        7.15327746954023
H           -4.02677293974285       -0.39039372014917        5.03583466401541
H           -1.01159331362968        2.49638258682048        5.62537498410171
H           -5.68499348683028       -2.32653781226794       10.12239858470130
H           -2.30801785485770       -3.89047180572731       12.08385526112796
H            1.95160280429030       -1.46320298418861       11.86462626405081
H            2.62460747765055        1.36768529598670        8.83060054244987
C            0.59921009986137       -4.00630034437622       12.25170279887263
C            1.04811243616737       -4.65788958171091       13.55504671792294
C            1.24438095107716        3.47814227867731        7.70150013582621
C            2.28772802639670        4.39503741882342        7.07280681753396
C           -5.79107919652168       -0.30467925945937        8.79300141271697
C           -4.10988255745852       -2.61043735323129        6.25391882142002
S           -3.18578103491588        2.20173971284957        3.85227809464123
F           -2.97367641778613        3.53487329880561        4.71770566732205
F           -1.67093386578697        2.30337452405890        3.34305368012280
F           -4.70048453593076        2.09396914474000        4.36589413626946
F           -3.63686844614551        3.07382729827327        2.61046957694166
F           -3.39402115530841        0.85517086056707        3.02193978780380
S           -5.11411418952620       -4.54084616771529       11.95244097822123
F           -6.40049030476429       -4.03144608230672       11.13503095275099
F           -5.43742724006387       -3.48460729314276       13.12459389451276
F           -6.00902155187573       -5.65075178504405       12.66140261927742
F           -4.74636424323449       -5.55364422222023       10.75609421216213
F           -3.83551693942648       -5.06005204181338       12.77969057237902
S            4.12582579862842        0.26167424863290       11.05250171781657
F            4.67653685717210       -0.77333020644629        9.94968875253882
F            4.32111359572845        1.47670953810872       10.01858054506142
F            5.59547182141435        0.50309036272059       11.61078040488208
F            3.51087618470219        1.28290771049101       12.13497029044344
F            3.93493690054539       -0.95043888497961       12.09222035283845
H           -1.01040393000722       -2.84026335686511       13.11694101028284
H            0.49204892086833       -1.98353547438144       13.02810122701215
H            1.46525263760061       -3.82612803960747       11.60819972612761
H           -0.05333553650772       -4.68907802894588       11.69975917379852
H            1.72247884597861       -4.00630352137011       14.10920556976447
H            1.57409025799844       -5.59328389935365       13.36697124627650
H            0.19742593750946       -4.88124976595190       14.19759869400790
H           -4.38007313679572       -3.58586149981137        6.66198574345308
H           -3.58183094578601       -2.75861031534852        5.31780682616389
H           -5.01706523736749       -2.03142228706066        6.08347235047174
H           -6.07349422141997        0.55388441626962        8.18227983775091
H           -6.24657547534865       -0.20527950489615        9.78204869958710
H           -6.13944065990588       -1.21764306151089        8.30452017493166
H            0.82481658419634        2.24923910992435        5.97864935140147
H            2.12832038708636        1.64565045430940        6.92997678835242
H            1.48246213500824        3.32117709968526        8.75667698950579
H            0.26168434887911        3.95782764843811        7.67486194654878
H            3.27223197505018        3.92919678594810        7.06835470249946
H            2.36530406561573        5.33975950754826        7.60621595231892
H            2.03698554769497        4.62707803434222        6.04318441853427
150
 energy: -332.266121562445 gnorm: 0.084911001378 xtb: 6.7.1 (edcfbbe)
C           -0.95215840225970        4.56120922420003       -0.08869223041605
C           -0.06241801401524       -1.93343005805390        3.16052970579601
C           -3.53302334771583        1.29037523642561       -3.08538715532558
C           -3.05882301174846        0.54485683748559       -2.00981670721633
C           -2.27979571252398        1.18156878731565       -1.00727978567257
C           -1.85003978269588        2.52078103262215       -1.19737384511529
C           -2.31985074351045        3.22522144962249       -2.31220210638792
C           -3.17191380228280        2.61268318582544       -3.20152666930282
C           -1.90950156966056        0.51488862873132        0.20217322810024
C           -0.78288651501977        1.00600477847040        0.91454369059416
C           -0.32455561141549        2.32177089187278        0.65146184849268
N           -0.97957696785579        3.11010362595350       -0.28637333656158
C           -2.67175558298285       -0.51550724380441        0.82798216464010
C           -2.03543870510593       -1.31736348932072        1.81511443719184
N           -0.74382375477786       -1.01770371720158        2.24492496163112
C           -0.22436890341242        0.24166794270867        1.97183835406935
C            0.77697658473994        0.82092907934058        2.75352642095137
C            1.22439598259626        2.09111996646750        2.46547685441930
C            0.71632198644009        2.83884416946466        1.42873167517086
C           -4.07537187372597       -0.63756459011054        0.65688400754570
C           -4.77215625893842       -1.66105376510266        1.28327243954535
C           -4.10128325831998       -2.51563934566073        2.12415357837416
C           -2.76423141012666       -2.34347399032472        2.41961686659784
O           -4.82416603570028        0.30502384037376       -0.01607173831863
O           -3.27809689163354       -0.78307427223528       -1.90768296870254
H           -4.15945075562389        0.84723342231948       -3.83233928891043
H           -2.01339565063257        4.23104083328171       -2.50967505645853
H           -5.83224195979708       -1.74520847612840        1.13895402673884
H           -2.31105426827189       -2.97549417364169        3.15122364233149
H            1.16465231210085        0.32473505910106        3.61677389814173
H            1.09498249424869        3.82412409569430        1.26108334682797
C            0.31215329834586       -3.25991996365103        2.47788012192398
C            0.99700051069052       -4.22851732665460        3.44427810957955
C           -1.65065979926102        4.94489025101812        1.22653926820564
C           -1.59009990814619        6.44561049219564        1.50457853586025
C           -5.09635753868393        1.44526881528350        0.79396180097982
C           -4.38866343138772       -1.30472079036230       -2.62071100621168
S           -3.83472768212294        3.59095820364559       -4.62643945578603
F           -2.70369475837415        4.77003220313085       -4.44101359776514
F           -2.84461788127760        2.80393994802104       -5.67678180520104
F           -4.84770548824538        4.41610237552733       -3.62639998445566
F           -4.41031843418356        4.44695812716907       -5.86134888416400
F           -5.02352418711980        2.49887868273088       -4.92682757335610
S           -5.05614168921033       -3.82040685962081        3.01859966569434
F           -6.41004573026656       -3.58396905409385        2.13080741927944
F           -5.58767409634367       -2.69056761833683        4.09262094603668
F           -5.86781543491187       -4.92377062738958        3.86038840751689
F           -4.56341254562566       -4.98502033593673        1.97384680265478
F           -3.77441868915911       -4.19533474431730        3.97953459294171
S            2.45190215523626        2.87493950049895        3.59677205148198
F            3.71497209437974        2.26489073144162        2.75226569381306
F            2.50865357332760        4.27282240699344        2.74340190905712
F            3.49922580596657        3.55007394011851        4.60852785930515
F            1.22264815628820        3.51466888675310        4.47907650061368
F            2.48482573752966        1.57338045028381        4.60197135112967
H           -0.68309091660734       -2.11388328464704        4.04557023858152
H            0.85861341578497       -1.47954190403334        3.52086475800212
H            0.97820454460593       -3.04247437961217        1.64298754069035
H           -0.57973399450888       -3.72725496774620        2.06654760375139
H            1.91758699840558       -3.80744736267647        3.84076666793094
H            1.24654760215540       -5.15705805267892        2.93580345833298
H            0.34684271249230       -4.47211870689639        4.28065887213131
H           -4.55516187069146       -2.32509485741452       -2.27644450530145
H           -4.19760326549870       -1.31861099933182       -3.69771677382942
H           -5.27182857006961       -0.70242854219850       -2.39839214283057
H           -5.55919566590429        2.21836403165869        0.18240578581854
H           -4.16356920065027        1.82166215048992        1.18904077803357
H           -5.76159896280621        1.18625141781663        1.62510858818513
H           -1.45936853075596        5.05998251811173       -0.91219295115273
H            0.07985330936533        4.92151061191107       -0.09665905527098
H           -1.19140492815460        4.40389423383556        2.05191747244445
H           -2.68881352433754        4.62304947254973        1.17389454267314
H           -0.56104080818311        6.78600981819301        1.58546140068146
H           -2.09258485137430        6.67300133956877        2.44179482425053
H           -2.07802917104547        7.01187238265412        0.71521590390610
C            1.13987938353594        2.11308362147715        7.01714588958997
C           -0.14229568261120       -2.67923653140011       12.46885557558683
C           -3.23132682645810       -0.02762839412937        5.65266700206903
C           -2.81452466645510       -0.70452994322447        6.80091310910415
C           -1.80629474430325       -0.14182547150622        7.63371420497796
C           -1.00960438408972        0.91217491496159        7.10951702334338