116
 energy: -22.928061455056 gnorm: 0.329736929581 xtb: 6.6.1 (8d0f1dd)
C           -3.31122850772930        0.79849766164622       -0.92477639677520
C           -2.44380812530352       -0.12270372891954       -0.27661132624697
C           -1.41337090092821        0.39579727573559        0.56335275196199
C           -0.89266158675590        1.65801491088749        0.27377586709581
C           -1.72665675402493        2.51431363229076       -0.49448366572522
C           -2.95444148494349        2.13954154133227       -1.01494489940871
C           -0.74098268209890       -0.43411532818871        1.49825021926784
C            0.56872586496315        0.03782116815119        1.86248088067890
C            1.03782416582094        1.29402317993033        1.50887470833621
N            0.31238977034758        2.07067427098208        0.65193736800696
C           -1.29695700510141       -1.39996043042223        2.41574187746061
C           -0.38243517664656       -2.18060797534842        3.13232615520648
N            0.91308504082021       -1.90366887689689        3.30325166013478
C            1.37712470144904       -0.74872102533751        2.81811050966982
C            2.52149331701875       -0.17739833758153        3.39379298866852
C            2.95849061756259        1.02681208890480        2.95105897606587
C            2.24288949469137        1.78498308775960        2.03503020483770
C           -2.74860936222260       -1.74497937691422        2.38401158947411
C           -3.09416315450955       -2.91614440870436        3.00571134491758
C           -2.16786021984049       -3.77788778654213        3.63251872101904
C           -0.85708937311598       -3.40495313382985        3.68547234358092
O           -3.71994433332149       -0.94984598373544        1.67726658385724
O           -2.55702603277562       -1.47241711578389       -0.57241635275616
C           -3.84297843593025        3.13357444054366       -1.60938954875544
C           -2.68769581069131       -5.03867041417370        4.30484659386931
H           -1.39666850744143        3.51251503834900       -0.76806311868865
H           -4.27662633836220        0.55105838579656       -1.33106614114542
H            2.66329581305412        2.73912661909249        1.72562431984580
H            3.05775395548473       -0.69369546277216        4.16536137542516
H           -0.24710966264510       -4.12034095424229        4.22946223699121
H           -4.11477991332403       -3.04712728052358        3.03244694615357
O           -4.21824883374556        4.03433712717988       -0.87713382485991
O           -4.44510595673734        2.90643496899600       -2.81853501752979
C           -5.44216520282800        3.83300025693726       -3.02488532025093
C            4.23586651889298        1.50004220933226        3.59165660008449
O            5.05927614697201        0.66079890002952        3.91714215179376
O            4.47001334453535        2.86385149488593        3.72605651435371
C            5.79457498613219        3.08584475587818        4.15829123132174
O           -3.82227255313510       -5.27347675879771        4.16636005494405
O           -1.85023202017753       -5.79767454267276        5.06656077253571
C           -2.55119635829503       -6.86252441382958        5.62930343183426
C           -5.07197156564436       -1.42399175670916        1.58830531863830
C           -1.33089900128490       -2.23622472573986       -0.99264499351172
H           -2.54510546830388       -7.76426885143998        4.99136022291012
H           -3.57194749219491       -6.44405511486021        5.74196173723541
H           -2.09133598235598       -7.02043774843818        6.64022264233588
H            5.72707967266424        3.46798026205549        5.10135971236643
H            6.34060091246885        3.78468702308830        3.50069950143490
H            6.17933064298187        2.03010500085905        4.19342358084693
H           -0.91862729772622       -2.57650129080332       -0.01361370304871
H           -0.49769766914251       -1.60651221708571       -1.34094446550576
H           -1.52632419730509       -2.94569707152159       -1.75361447637286
H           -5.11788846557077       -2.41810833635233        1.17520213188926
H           -5.67929807973498       -0.69619639428435        1.04301666067831
H           -5.57598832326623       -1.42383358739762        2.57928294206544
H           -6.13050215934830        3.76035386975488       -2.23272855695873
H           -5.86615610071888        3.45938329385866       -4.02668959924245
H           -5.13479557532099        4.87790991548477       -2.98314551356402
C           -1.38192942069774        3.73616555005018        2.91232598411686
C           -1.84821468128685        2.59982427735607        3.49755545445181
C           -1.05946531454833        2.05730632010638        4.60922730982276
C            0.19893954712228        2.69376791964407        4.86302140881997
C            0.50425395911860        3.94630308659851        4.28768785650746
C           -0.26031777722226        4.46998310053134        3.25072669343212
C           -1.20488993561782        0.74454293276906        5.14851520323437
C           -0.06287609782692        0.02744069315890        5.60930570802864
C            1.19208754369866        0.71421540266195        5.78882868583885
N            1.19428660993148        2.06344359410476        5.62744624321596
C           -2.41361422770794        0.07928500213936        5.25249410304426
C           -2.45851584031083       -1.32662100968547        5.60237876023992
N           -1.29466212405906       -1.98318595734370        5.89916817085159
C           -0.14475655767527       -1.32117560077092        5.98824682881008
C            0.97209270935794       -1.98958449505532        6.53157704134458
C            2.21982707914082       -1.36973967291181        6.68703967237737
C            2.30561929262884       -0.09745313075593        6.26436900324455
C           -3.73018485967715        0.71367583494582        5.25810242262992
C           -4.89964478833448       -0.06184623426677        5.21204641615509
C           -4.82617965800088       -1.39228978090841        5.46901303780036
C           -3.67144193418464       -1.98914944386360        5.67265433266067
O           -3.75568638935321        2.07705011038914        5.52067969627343
O           -2.94192434743730        1.91263938797883        3.01658762327703
C            0.21273512614467        5.50086066357994        2.34765104514621
C           -6.06660304520411       -2.17604633098929        5.80641622556876
H            1.41756699010566        4.38133362238595        4.66974005703471
H           -1.82880610647429        4.11982501512100        2.06992133318584
H            3.26888037378556        0.32655662585251        6.31721410015598
H            0.87146188387207       -3.08471526305024        6.57830423410869
H           -3.67716811065157       -3.05999292755990        5.83019634570050
H           -5.77379677507622        0.43595144608221        4.71017130754348
O            1.34459852619901        5.82615848916894        2.44941456579099
O           -0.74718748219123        6.07961784856304        1.59848183464284
C           -0.21473095568964        7.24015934882472        1.05753806029483
C            3.53228080814219       -2.00967610361154        7.02506769044485
O            3.64093082622715       -3.14437803815732        7.50071391725347
O            4.56565258381079       -1.22937033368332        6.69086985080897
C            5.72579357310716       -1.80692399125161        7.22246151275881
O           -7.04801223588612       -1.95726935745904        5.14194115322235
O           -6.01514389321278       -2.93743591896022        6.94765316328794
C           -7.21292732384718       -3.62681918543340        7.15115816329978
C           -4.95459780685163        2.65960679932188        5.86868674392943
C           -3.68284113682406        2.59129188358641        2.05479246020704
H           -7.43119628931628       -4.22607794725959        6.20622607140901
H           -8.06548455146707       -2.91765848248592        7.29781126410398
H           -7.07314693247270       -4.33087306029711        7.91223421050944
H            6.57332189837178       -1.29353136199234        6.78341268688262
H            5.74663761932316       -2.84282155125561        6.88089468184451
H            5.69426191474290       -1.72781984964892        8.29460302186842
H           -4.10481209541493        3.44288266176275        2.60483747673152
H           -4.49244774344916        1.87419893016926        1.82433103764650
H           -3.18901540870812        2.85154642679373        1.06781919454921
H           -5.55414326821421        2.76698137191684        4.93950725322359
H           -4.78658370641210        3.62090640967288        6.25983200635257
H           -5.43485580473958        1.97242995129449        6.65265772412460
H            0.89164886030839        7.38838561720231        1.13776105146914
H           -0.62894889903848        8.04195665205089        1.64837664327952
H           -0.59282546386754        7.45699159724320        0.03719083132488
116
 energy: -22.571396510551 gnorm: 0.549076212585 xtb: 6.6.1 (8d0f1dd)
C           -3.30356330885088       -0.26429278224440       -1.25462653971517
C           -2.56774361935639       -0.90754917094532       -0.27440058868637
C           -1.60280332331167       -0.16803905585465        0.46943274581433
C           -1.57105044071494        1.23451862033801        0.21690108297479
C           -2.20418702765789        1.83230702303822       -0.95139853749061
C           -3.00014998384227        1.07096596803977       -1.80629006772270
C           -0.76049913616512       -0.77314523812985        1.41113925202523
C            0.30495922357024        0.02895833304238        1.76649829743726
C            0.35748818867544        1.40277430567492        1.51532950878432
N           -0.78866745495949        2.05188880483604        0.93119008820117
C           -0.83977939547620       -2.15743078136621        1.90321771683658
C            0.43182120326460       -2.76993621330199        2.14950906548297
N            1.57599971587062       -2.07281536465770        2.35329330173243
C            1.38614881220958       -0.69065525932798        2.40498081414784
C            2.45364695609283        0.11836902138102        2.78459732454763
C            2.54041187472825        1.44394280794262        2.43899807652634
C            1.43150934365574        2.09408875709383        2.04452849419877
C           -2.10238701522638       -2.94571359434062        2.31720873883317
C           -2.10911038185653       -4.33062971443509        2.48613141623515
C           -0.89101471726725       -4.93043937901532        2.68587431321639
C            0.20804058911089       -4.11172827629067        2.65868854855913
O           -3.31250251071065       -2.26042587449368        2.47023081322597
O           -2.56641143874702       -2.27967299373408       -0.15652152909826
C           -3.23568922487663        1.56293093535326       -3.22130700712946
C           -0.71594599546520       -6.39897548528297        3.04766264084937
H           -1.61016302443202        2.65254608918702       -1.17205442561742
H           -3.49657418836902       -1.00126470622963       -1.97817443483211
H            1.38180173798919        3.24556009906050        2.21767749149892
H            3.29287314134559       -0.39330775935330        3.31426704505488
H            1.01306811297471       -4.82022225360091        2.81884484457767
H           -2.94992473328948       -5.07008332182115        2.31593887056319
O           -3.73779491007022        2.64169230327409       -3.35362027671401
O           -2.84977471714314        0.69475757063331       -4.18869848836331
C           -3.18904727579368        1.14221329293510       -5.45682818032485
C            3.59089220934731        2.14818194765717        3.26008160712422
O            3.73791708597627        1.69147211260966        4.37308076715689
O            4.34738879294772        3.28515022983038        2.82485139174405
C            5.77847565794723        3.27289825069945        3.11177290798637
O           -1.61774841115605       -7.02202845956319        3.58160738614676
O            0.39000418241979       -7.11024901117643        2.51013651485032
C            0.00426419964494       -8.52805979494197        2.28222126057398
C           -3.17164609341606       -1.37596838013504        3.59857599069206
C           -3.79377799305368       -2.83792220404799       -0.55943728943850
H           -1.01089143776731       -8.32204258368984        1.63839250266219
H           -0.49555658401171       -9.05783754700724        3.05372894689583
H            0.67232931666190       -9.20332295676656        1.72420931258083
H            6.01943843168167        2.18881368851851        3.47963090497025
H            6.14474974788518        4.06333479226461        3.63077512482319
H            6.20716172811945        3.38451078502363        2.09699715025187
H           -3.56338485765633       -3.93714054187458       -0.78442890905914
H           -4.15166337646457       -2.35307662331272       -1.48029558866230
H           -4.19493441595238       -3.09705883917481        0.49026841929864
H           -3.73726820696571       -1.89179512744380        4.31208500559888
H           -3.71683141655552       -0.43942959960874        3.40584809749207
H           -2.19220074326435       -1.39295807398327        3.94652068999533
H           -4.26455872608384        1.23753760419060       -5.33308057383846
H           -2.82102756040889        0.28759961665253       -5.98942127130851
H           -2.75270393900875        2.14072241176502       -5.57416393602884
C           -2.00277189849026        4.73881924575258        4.33425815756032
C           -2.53569529978625        3.51752905888798        4.93714589288258
C           -1.54727277027942        2.57319089180470        5.14845806138526
C           -0.22707350899314        2.94158937643454        5.03184820545607
C            0.18238055223251        4.17051397457539        4.50733672947536
C           -0.66407196141346        5.10947254328422        4.09889339570003
C           -1.67702118512819        1.24055833067137        5.81808609055283
C           -0.69499439096769        0.32842088060103        5.66849456728192
C            0.61435196639746        0.88490605878866        5.71385896996754
N            0.86057157408007        2.16912258424662        5.43164048881009
C           -2.88402314456750        0.77114404933765        6.58948824330591
C           -3.18736957682123       -0.59633945719336        6.37414314098673
N           -2.09919199720069       -1.49717051990582        6.42382443031990
C           -0.91963766916840       -0.97396337295222        6.13565904190240
C            0.23525618503802       -1.79462018617232        6.47793648427244
C            1.41409598610207       -1.17474561338008        6.41289231316256
C            1.65379547732359        0.13418019634473        6.22285435305553
C           -3.73325033483487        1.68042035755392        7.27623049842501
C           -5.01413002695972        1.06769936913733        7.31941122723932
C           -5.48262304021385       -0.02107157183465        6.59643049488322
C           -4.50482033434013       -0.97678768492332        6.24446517656568
O           -3.60879397269592        2.89000401912507        8.01416851514474
O           -3.73923720227412        2.90880694318971        4.76635590500150
C           -0.32391118985331        6.46024916713922        3.68746101404280
C           -6.94639442364004        0.11213473616747        6.12324171656548
H            1.38465849646724        4.31534506727853        4.44738387811469
H           -2.64115818196780        5.35237411374672        3.85278888778901
H            2.71585677255160        0.42847578057991        6.08584292600058
H            0.18626673847880       -2.71183253028007        6.87507102371384
H           -4.81537295890086       -1.96353618656327        6.08508008317585
H           -5.72831715098267        1.65616973668607        7.78149983771636
O           -0.78028855447588        7.44194439076818        4.26542086568714
O            0.63818724319522        6.46989688397335        2.64136508223121
C            1.22360441871206        7.72421728694578        2.52199849163076
C            2.54580957804499       -2.06753768738258        6.64276869016128
O            2.57097123810637       -2.86430471661794        7.55757654864850
O            3.67061841313051       -1.88883526744094        5.79151545121350
C            4.71481536241071       -2.71055473622899        6.23206367192371
O           -7.63405052011494        1.13670614738898        6.18055156486428
O           -7.28146179426368       -1.19538680938446        5.61693211922290
C           -8.69639959050556       -1.43537851718774        5.91888084463468
C           -2.16098123864170        3.52971070597403        7.98620058248000
C           -4.32926048517129        2.56814247224862        3.45479410452264
H           -9.21959372669312       -0.64688467519978        5.64110821458094
H           -9.00315633157725       -1.60312847308874        6.92557408402426
H           -8.95129750911246       -2.43637117217692        5.58609390275806
H            4.54409872513125       -2.78742927548343        7.43692692714235
H            5.62610499518646       -2.28564021484263        6.08311466882718
H            4.73496299561911       -3.49416936087223        5.64010424200732
H           -5.33048496862150        3.13013281437878        3.39818741447738
H           -4.77545619674433        1.54527097156764        3.57986712832351
H           -3.75132999695805        2.94793309004690        2.60353000385549
H           -1.29529450280278        3.04406164018921        8.05119425174865
H           -2.36101386463848        3.86560494773335        9.00929269482790
H           -2.07827571418130        4.42613654957126        7.31841416649944
H            2.35760783937291        7.65118925817861        2.70291899315909
H            0.71865617184717        8.61671724762171        3.05054159166691
H            1.32576233524212        8.12638406695723        1.44066250520148
116
 energy: -22.555562391490 gnorm: 0.564649794391 xtb: 6.6.1 (8d0f1dd)
C           -2.71094719843063       -1.34473891111347       -2.21282039241495
C           -2.00033831995508       -1.84698753545148       -1.12726263007080
C           -1.06049384014398       -0.98372101005737       -0.26341861214562
C           -0.92223783024082        0.38494458127568       -0.65950498774612
C           -1.69477536013778        0.80284009383467       -1.76839162650184
C           -2.69141283574915        0.06891814074809       -2.52235756706354
C           -0.13189208199513       -1.41261672597145        0.77806775512631
C            0.85791217056656       -0.53824833446955        1.24777094348683
C            0.89441472462826        0.85178090847471        0.84372666264832
N           -0.05429160039632        1.25649918951593       -0.14546887710916
C           -0.17995221169862       -2.66196724869931        1.40784482369740
C            1.02283757353399       -3.14980488595611        1.91849312154707
N            2.11522089411124       -2.36986911794330        2.13992424051938
C            1.91084714788432       -0.94838295609093        2.04702436833787
C            2.88083353018570        0.13279467343555        2.39203058618285
C            2.68298447899576        1.49980950608653        2.13672107052910
C            1.70363166927868        1.83133312857120        1.29549946418774
C           -1.35693606942015       -3.29976656084578        1.82289156765834
C           -1.12348610303478       -4.68295285711831        1.97968514742428
C            0.19749396569847       -5.17002872088721        1.81376231497410
C            1.31491756438388       -4.49184236311779        1.96561521539950
O           -2.41788980853943       -2.40436708204374        2.20976414703996
O           -1.86312387685558       -3.25794381092553       -1.04526302522545
C           -3.41817608260458        0.52399763889746       -3.68700529482295
C            0.54242411110916       -6.57896292008148        1.71932255852716
H           -1.45797899941404        1.83103974681394       -2.12738417202151
H           -3.30165493773010       -1.96039812688307       -2.97714597648983
H            1.56272886362267        2.89892202379082        1.08103209261934
H            3.75844977873808       -0.16145830110362        2.79369905969110
H            2.10073929773964       -4.70641092311764        2.69205914892016
H           -2.04208053042989       -5.16286730956464        2.13000174142572
O           -2.79308904091393        1.11919388570505       -4.58606500802323
O           -4.77495502921832        0.31742792201848       -3.63063590961348
C           -5.49393866772829        0.12664179191680       -4.96404577200143
C            3.63393313064988        2.53600905810491        2.78758874416198
O            3.33176782089952        3.60384695974567        3.22005182467713
O            4.93490893034259        1.95503241059336        2.79101575184076
C            5.97027915483105        2.91182998653676        2.52355514412469
O            0.16499736443271       -7.46344287770281        0.88956918384148
O            1.51469306589998       -6.74448912980649        2.58287576008896
C            2.46054285451548       -7.77349919473490        2.41128255371568
C           -2.82047597729511       -2.55038072244613        3.50740723339562
C           -3.02549422481835       -3.74335568658014       -0.61582315348360
H            3.54199978770544       -7.33916035884513        2.17389008558749
H            1.98081159520061       -8.49821579819210        1.59367480737862
H            2.73821817774471       -8.51479468606836        3.12014495508515
H            6.18018494064309        3.32103093635423        1.51189646608537
H            6.85713483097853        2.23992633690013        2.65137390558994
H            6.08996406975020        3.65254256695129        3.19451892605430
H           -3.09490405483306       -4.51358289336517        0.22163964416173
H           -3.50025366144682       -4.25000043100117       -1.46689799101007
H           -3.77377756108696       -3.07565552759508       -0.15669999139908
H           -2.47667208112000       -3.59063420164153        3.73571690676212
H           -3.89330556826500       -2.62965505463855        3.51972599495259
H           -2.23449875928565       -1.78949114819114        4.01811157286678
H           -4.90712044433400       -0.65711220085277       -5.27546123507386
H           -5.52172336454725        1.09693523668075       -5.44906565580545
H           -6.44161900719934       -0.26248134016628       -4.84322715280551
C           -1.60070018907158        5.31349934105114        5.36401606020537
C           -2.20524516049769        4.13411849328392        5.79554544943746
C           -1.37237402741851        3.06756973272555        6.18868301699530
C            0.06438399682035        3.12499008296934        5.94084476349514
C            0.58435967787358        4.41998259750682        5.65040874757831
C           -0.21456750236410        5.44887838436530        5.23163102665002
C           -1.89210418087167        1.76863779017005        6.46279638153788
C           -1.15232843421738        0.68097699943929        6.17027663330654
C            0.34354413512187        0.85745969030166        6.07599035499172
N            0.94453055438359        2.07008290408235        6.22057710974090
C           -3.23666274117955        1.48234897791252        6.78787856276285
C           -3.88243128480693        0.28901483413478        6.47218547548422
N           -3.17960258688653       -0.59300606626375        5.75721332145565
C           -1.76732535419560       -0.59392690359373        6.01873969158455
C           -0.82320475527278       -1.74686277995783        6.09316607674057
C            0.56718069891257       -1.54543945518576        5.90379730838433
C            1.24006384489462       -0.23172356763639        6.29140716300860
C           -4.12096372141512        2.45890131313447        7.51508328741382
C           -5.48930942739907        2.24637193509374        7.65896934823765
C           -6.03568637376906        1.06736375477454        7.26540085493133
C           -5.28612396771733        0.10926491542529        6.61596429206785
O           -3.48196319206288        3.50250902673380        8.13486894596677
O           -3.73996945306953        3.96569127520196        5.79222657688219
C            0.08673621770279        6.82006563821899        4.79850325578688
C           -7.48885155151171        0.78084561401569        7.56982119159145
H            1.78327202271106        4.44619773099799        5.75343804707842
H           -2.26290928027392        6.03946843597183        4.95060275967294
H            2.15816311677114       -0.23243017267490        5.75578135368523
H           -1.23292160781317       -2.69015982774458        5.63279995951404
H           -5.65315869616714       -0.91688901232491        6.47445318089298
H           -6.20663414267929        2.86954895180252        8.19000334336128
O           -0.70897853288804        7.30042766743425        3.98888827522109
O            1.19743953489040        7.45559841835592        5.29879778489895
C            1.26365260272097        8.80108134418151        4.74894844015547
C            1.37603277379723       -2.86061162787937        5.74577040541033
O            0.68088496485314       -3.85323960572277        5.57158654791545
O            2.69848905542247       -3.01991166236482        5.75864983535498
C            2.98707641071162       -4.28672224421772        5.20499748582399
O           -8.04992468504546        1.38067265856095        8.43222543999376
O           -8.31901781699617       -0.06805779592492        6.79445472370779
C           -9.76959800649361        0.07447054694941        7.13223022110782
C           -4.14669771685610        4.71381660136470        8.07678648781591
C           -4.25662663340590        4.53868542590808        4.68827759074660
H           -9.86847614415117        0.78065299359484        7.91742281500033
H           -9.96103318560849       -0.79664804913260        7.47176729453559
H          -10.39797602631161        0.46913846569198        6.40446639491599
H            2.77966564828930       -5.07957755724394        5.79424631794826
H            4.01336640518676       -4.34619138898395        5.08021174131173
H            2.53351586369536       -4.43844143245491        4.30167799351024
H           -5.27722437675746        4.04010209744532        4.73903358647848
H           -3.52343927041664        4.31723166871056        3.87842022587853
H           -4.42118006258885        5.68804902366589        4.62857621359164
H           -4.56181713369119        5.22874913492273        9.01816139261071
H           -4.97735597227444        4.86887608335655        7.43452198816387
H           -3.40208140979022        5.43588400684845        7.69490500993385
H            1.51155324693296        9.35449420606570        5.59597968214384
H            0.26321356764771        9.15120569074311        4.26202467286961
H            2.18984410254301        8.90048212174404        4.24168824249871
116
 energy: -22.553664844266 gnorm: 0.604721858880 xtb: 6.6.1 (8d0f1dd)
C           -2.53226538759744       -2.00684305963332       -2.07724469406577
C           -1.09489851000771       -2.22744822647188       -1.63248987194844
C           -0.74147028169068       -1.47013017341205       -0.51568367534992
C           -1.33587333563406       -0.24662722251393       -0.20833383171357
C           -2.45882015734632        0.13537125599407       -1.00559738090449
C           -3.15192018749264       -0.86563436496515       -1.74408986427971
C            0.38932921366849       -1.70886024099700        0.30832725381528
C            0.96355773861505       -0.64453629528975        0.89002440348343
C            0.37477694402083        0.54936112407788        0.91381101415893
N           -0.88234152949442        0.71790384065362        0.64878706723280
C            0.90305373843992       -3.06147582701954        0.66088607121550
C            2.07641738196608       -3.15159885484077        1.18353168899259
N            2.77334033487248       -2.10079958969182        1.64913165707381
C            2.33354518643122       -0.79211792491892        1.39613641534539
C            3.20802498523566        0.36501960983852        1.66422585710326
C            2.57254594401198        1.61423852501009        1.58159728730376
C            1.23710703551943        1.67195689304099        1.22616620503616
C           -0.09910564841168       -4.06329500282657        0.69680601346697
C            0.10560211419841       -5.34158089677921        1.20932475134285
C            1.44811980527359       -5.57632055364061        1.66243699446300
C            2.41091994752771       -4.42301531309784        1.72548182954932
O           -1.47994326667458       -3.61178292696941        0.25682046538880
O           -0.07007775131074       -2.82182811748826       -2.27894069408420
C           -4.56545568967851       -0.69601760578178       -2.02703635973383
C            1.75642316922708       -6.72608168882055        2.60817180323029
H           -3.13055573383999        1.00547830166195       -0.93036691282184
H           -3.18823601382367       -2.80943117731257       -2.44763299292508
H            0.53538651372822        2.57927094284512        1.47047095273969
H            4.10170272987404        0.19019537625836        2.37230152133629
H            3.32720134898197       -4.60497935461892        2.43364481816707
H           -0.65335672035778       -6.06467409568612        1.22639361149111
O           -5.27413140778627       -1.69416518023264       -2.01264052887174