      -----------------------------------------------------------      
     |                   =====================                   |     
     |                           x T B                           |     
     |                   =====================                   |     
     |                         S. Grimme                         |     
     |          Mulliken Center for Theoretical Chemistry        |     
     |                    University of Bonn                     |     
      -----------------------------------------------------------      

   * xtb version 6.6.1 (8d0f1dd) compiled by 'runner@Mac-1690902418499.local' on 2023-08-01

   xtb is free software: you can redistribute it and/or modify it under
   the terms of the GNU Lesser General Public License as published by
   the Free Software Foundation, either version 3 of the License, or
   (at your option) any later version.
   
   xtb is distributed in the hope that it will be useful,
   but WITHOUT ANY WARRANTY; without even the implied warranty of
   MERCHANTABILITY or FITNESS FOR A PARTICULAR PURPOSE.  See the
   GNU Lesser General Public License for more details.
   
   Cite this work as:
   * C. Bannwarth, E. Caldeweyher, S. Ehlert, A. Hansen, P. Pracht,
     J. Seibert, S. Spicher, S. Grimme, WIREs Comput. Mol. Sci., 2020, 11,
     e01493. DOI: 10.1002/wcms.1493
   
   for GFN2-xTB:
   * C. Bannwarth, S. Ehlert and S. Grimme., J. Chem. Theory Comput., 2019,
     15, 1652-1671. DOI: 10.1021/acs.jctc.8b01176
   for GFN1-xTB:
   * S. Grimme, C. Bannwarth, P. Shushkov, J. Chem. Theory Comput., 2017,
     13, 1989-2009. DOI: 10.1021/acs.jctc.7b00118
   for GFN0-xTB:
   * P. Pracht, E. Caldeweyher, S. Ehlert, S. Grimme, ChemRxiv, 2019, preprint.
     DOI: 10.26434/chemrxiv.8326202.v1
   for GFN-FF:
   * S. Spicher and S. Grimme, Angew. Chem. Int. Ed., 2020, 59, 15665-15673.
     DOI: 10.1002/anie.202004239
   
   for ALPB and GBSA implicit solvation:
   * S. Ehlert, M. Stahn, S. Spicher, S. Grimme, J. Chem. Theory Comput.,
     2021, 17, 4250-4261. DOI: 10.1021/acs.jctc.1c00471
   
   for DFT-D4:
   * E. Caldeweyher, C. Bannwarth and S. Grimme, J. Chem. Phys., 2017,
     147, 034112. DOI: 10.1063/1.4993215
   * E. Caldeweyher, S. Ehlert, A. Hansen, H. Neugebauer, S. Spicher,
     C. Bannwarth and S. Grimme, J. Chem. Phys., 2019, 150, 154122.
     DOI: 10.1063/1.5090222
   * E. Caldeweyher, J.-M. Mewes, S. Ehlert and S. Grimme, Phys. Chem. Chem. Phys.
     2020, 22, 8499-8512. DOI: 10.1039/D0CP00502A
   
   for sTDA-xTB:
   * S. Grimme and C. Bannwarth, J. Chem. Phys., 2016, 145, 054103.
     DOI: 10.1063/1.4959605
   
   in the mass-spec context:
   * V. Asgeirsson, C. Bauer and S. Grimme, Chem. Sci., 2017, 8, 4879.
     DOI: 10.1039/c7sc00601b
   * J. Koopman and S. Grimme, ACS Omega 2019, 4, 12, 15120-15133.
     DOI: 10.1021/acsomega.9b02011
   
   for metadynamics refer to:
   * S. Grimme, J. Chem. Theory Comput., 2019, 155, 2847-2862
     DOI: 10.1021/acs.jctc.9b00143
   
   for SPH calculations refer to:
   * S. Spicher and S. Grimme, J. Chem. Theory Comput., 2021, 17, 1701-1714
     DOI: 10.1021/acs.jctc.0c01306
   
   with help from (in alphabetical order)
   P. Atkinson, C. Bannwarth, F. Bohle, G. Brandenburg, E. Caldeweyher
   M. Checinski, S. Dohm, S. Ehlert, S. Ehrlich, I. Gerasimov, C. Hölzer
   A. Katbashev, J. Koopman, C. Lavigne, S. Lehtola, F. März, M. Müller,
   F. Musil, H. Neugebauer, J. Pisarek, C. Plett, P. Pracht, F. Pultar,
   J. Seibert, P. Shushkov, S. Spicher, M. Stahn, M. Steiner, T. Strunk,
   J. Stückrath, T. Rose, and J. Unsleber
   
 * started run on 2025/03/14 at 17:17:23.027     

           -------------------------------------------------
          |                Calculation Setup                |
           -------------------------------------------------

          program call               : xtb stacked_dimer_8.0.mol --dipro 0.3 --chrg -2 --uhf 4
          coordinate file            : stacked_dimer_8.0.mol
          omp threads                :                     8

   ID    Z sym.   atoms
    1    6 C      1-9, 11, 12, 14-21, 24-35, 42, 43, 77-85, 87, 88, 90-97,
                  100-111, 118, 119
    2    7 N      10, 13, 86, 89
    3    8 O      22, 23, 98, 99
    4    1 H      36-41, 44-76, 112-117, 120-152

molecular fragmentation (1/2 indicates fragments):
111111111111111111111111111111111111111111111111111111111111111111111111
111122222222222222222222222222222222222222222222222222222222222222222222
22222222
# atoms in fragment 1/2:    76    76
 fragment masses (1/2) :      495.68      495.68
CMA distance (Bohr)    :  15.161
constraining FC (au)   :  0.0500
########################################################################
[WARNING] Please study the warnings concerning your input carefully
-1- prog_main_parseArguments: Unknown option '--dipro' provided
########################################################################

           -------------------------------------------------
          |                 G F N 2 - x T B                 |
           -------------------------------------------------

        Reference                      10.1021/acs.jctc.8b01176
      * Hamiltonian:
        H0-scaling (s, p, d)           1.850000    2.230000    2.230000
        zeta-weighting                 0.500000
      * Dispersion:
        s8                             2.700000
        a1                             0.520000
        a2                             5.000000
        s9                             5.000000
      * Repulsion:
        kExp                           1.500000    1.000000
        rExp                           1.000000
      * Coulomb:
        alpha                          2.000000
        third order                    shell-resolved
        anisotropic                    true
        a3                             3.000000
        a5                             4.000000
        cn-shift                       1.200000
        cn-exp                         4.000000
        max-rad                        5.000000

q/qsh data taken from xtbrestart
CAMM data taken from xtbrestart

          ...................................................
          :                      SETUP                      :
          :.................................................:
          :  # basis functions                 374          :
          :  # atomic orbitals                 374          :
          :  # shells                          226          :
          :  # electrons                       388          :
          :  max. iterations                   250          :
          :  Hamiltonian                  GFN2-xTB          :
          :  restarted?                       true          :
          :  GBSA solvation                  false          :
          :  PC potential                    false          :
          :  electronic temp.          300.0000000     K    :
          :  accuracy                    1.0000000          :
          :  -> integral cutoff          0.2500000E+02      :
          :  -> integral neglect         0.1000000E-07      :
          :  -> SCF convergence          0.1000000E-05 Eh   :
          :  -> wf. convergence          0.1000000E-03 e    :
          :  Broyden damping             0.4000000          :
          ...................................................

 iter      E             dE          RMSdq      gap      omega  full diag
   1   -212.6063107 -0.212606E+03  0.155E+00    0.94       0.0  T
   2   -212.6408670 -0.345564E-01  0.947E-01    0.83       1.0  T
   3   -212.5634546  0.774124E-01  0.660E-01    0.91       1.0  T
   4   -212.6532750 -0.898204E-01  0.252E-01    0.81       1.0  T
   5   -212.5395621  0.113713E+00  0.536E-01    0.65       1.0  T
   6   -212.6642470 -0.124685E+00  0.130E-01    0.86       1.0  T
   7   -212.6652808 -0.103379E-02  0.822E-02    0.84       1.0  T
   8   -212.6667119 -0.143105E-02  0.682E-02    0.89       1.0  T
   9   -212.6667772 -0.653110E-04  0.598E-02    0.90       1.0  T
  10   -212.6670021 -0.224957E-03  0.493E-02    0.91       1.0  T
  11   -212.6672552 -0.253120E-03  0.310E-02    0.93       1.0  T
  12   -212.6673503 -0.950815E-04  0.242E-02    0.93       1.0  T
  13   -212.6674485 -0.981857E-04  0.154E-02    0.90       1.0  T
  14   -212.6675125 -0.639967E-04  0.333E-03    0.88       2.4  T
  15   -212.6675147 -0.217634E-05  0.205E-03    0.87       4.0  T
  16   -212.6675153 -0.637698E-06  0.873E-04    0.87       9.3  T
  17   -212.6675155 -0.140040E-06  0.396E-04    0.87      20.5  T

   *** convergence criteria satisfied after 17 iterations ***

         #    Occupation            Energy/Eh            Energy/eV
      -------------------------------------------------------------
         1        2.0000           -0.5327410             -14.4966
       ...           ...                  ...                  ...
       190        2.0000           -0.1696984              -4.6177
       191        1.9969           -0.1521354              -4.1398
       192        1.9806           -0.1503852              -4.0922
       193        1.0203           -0.1429766              -3.8906
       194        1.0023           -0.1408736              -3.8334
       195        1.0000           -0.0758905              -2.0651
       196        1.0000           -0.0723010              -1.9674 (HOMO)
       197                         -0.0404371              -1.1003 (LUMO)
       198                         -0.0382253              -1.0402
       199                         -0.0359859              -0.9792
       200                         -0.0324894              -0.8841
       201                         -0.0234925              -0.6393
       ...                                ...                  ...
       374                          0.9103900              24.7730
      -------------------------------------------------------------
                  HL-Gap            0.0318640 Eh            0.8671 eV
             Fermi-level           -0.1015331 Eh           -2.7629 eV

 SCC (total)                   0 d,  0 h,  0 min,  1.833 sec
 SCC setup                      ...        0 min,  0.000 sec (  0.027%)
 Dispersion                     ...        0 min,  0.002 sec (  0.102%)
 classical contributions        ...        0 min,  0.000 sec (  0.025%)
 integral evaluation            ...        0 min,  0.009 sec (  0.488%)
 iterations                     ...        0 min,  1.743 sec ( 95.079%)
 molecular gradient             ...        0 min,  0.073 sec (  3.973%)
 printout                       ...        0 min,  0.006 sec (  0.306%)

         :::::::::::::::::::::::::::::::::::::::::::::::::::::
         ::                     SUMMARY                     ::
         :::::::::::::::::::::::::::::::::::::::::::::::::::::
         :: total energy            -209.417038984487 Eh    ::
         :: gradient norm              0.161774396100 Eh/a0 ::
         :: HOMO-LUMO gap              0.867062278268 eV    ::
         ::.................................................::
         :: SCC energy              -212.667515459819 Eh    ::
         :: -> isotropic ES            0.327351277687 Eh    ::
         :: -> anisotropic ES          0.070999707766 Eh    ::
         :: -> anisotropic XC          0.097093541727 Eh    ::
         :: -> dispersion             -0.208837425600 Eh    ::
         :: repulsion energy           3.242542730096 Eh    ::
         :: add. restraining           0.000000000000 Eh    ::
         :: total charge              -1.999987137433 e     ::
         :::::::::::::::::::::::::::::::::::::::::::::::::::::

           -------------------------------------------------
          |                Property Printout                |
           -------------------------------------------------

    * Orbital Energies and Occupations

         #    Occupation            Energy/Eh            Energy/eV
      -------------------------------------------------------------
         1        2.0000           -0.5327410             -14.4966
       ...           ...                  ...                  ...
       184        2.0000           -0.1976980              -5.3796
       185        2.0000           -0.1900368              -5.1712
       186        2.0000           -0.1834073              -4.9908
       187        2.0000           -0.1737751              -4.7287
       188        2.0000           -0.1727957              -4.7020
       189        2.0000           -0.1707671              -4.6468
       190        2.0000           -0.1696984              -4.6177
       191        1.9969           -0.1521354              -4.1398
       192        1.9806           -0.1503852              -4.0922
       193        1.0203           -0.1429766              -3.8906
       194        1.0023           -0.1408736              -3.8334
       195        1.0000           -0.0758905              -2.0651
       196        1.0000           -0.0723010              -1.9674 (HOMO)
       197                         -0.0404371              -1.1003 (LUMO)
       198                         -0.0382253              -1.0402
       199                         -0.0359859              -0.9792
       200                         -0.0324894              -0.8841
       201                         -0.0234925              -0.6393
       202                         -0.0189888              -0.5167
       203                         -0.0026019              -0.0708
       204                          0.0005174               0.0141
       205                          0.0242039               0.6586
       206                          0.0269488               0.7333
       207                          0.0272944               0.7427
       ...                                ...                  ...
       374                          0.9103900              24.7730
      -------------------------------------------------------------
                  HL-Gap            0.0318640 Eh            0.8671 eV
             Fermi-level           -0.1015331 Eh           -2.7629 eV

     #   Z          covCN         q      C6AA      α(0)
     1   6 C        2.926    -0.075    29.878     8.964
     2   6 C        2.865     0.110    25.562     8.287
     3   6 C        2.981    -0.031    28.756     8.796
     4   6 C        2.960     0.081    26.189     8.394
     5   6 C        2.931    -0.084    30.115     9.000
     6   6 C        2.969    -0.025    28.613     8.774
     7   6 C        2.983    -0.015    28.380     8.739
     8   6 C        3.003    -0.043    29.056     8.842
     9   6 C        2.951     0.077    26.281     8.408
    10   7 N        1.852    -0.315    29.012     7.983
    11   6 C        2.984    -0.032    28.778     8.800
    12   6 C        2.958     0.082    26.175     8.392
    13   7 N        1.851    -0.311    28.901     7.968
    14   6 C        2.951     0.079    26.243     8.402
    15   6 C        2.925    -0.059    29.473     8.903
    16   6 C        2.965    -0.016    28.401     8.741
    17   6 C        2.927    -0.057    29.429     8.896
    18   6 C        2.858     0.129    25.166     8.222
    19   6 C        2.921    -0.087    30.193     9.011
    20   6 C        2.969    -0.014    28.369     8.737
    21   6 C        2.931    -0.077    29.929     8.972
    22   8 O        1.723    -0.267    18.416     5.794
    23   8 O        1.703    -0.319    19.335     5.937
    24   6 C        3.903     0.026    20.080     6.370
    25   6 C        3.903     0.026    20.085     6.370
    26   6 C        3.903     0.025    20.099     6.373
    27   6 C        3.761    -0.093    22.317     6.734
    28   6 C        3.762    -0.098    22.412     6.748
    29   6 C        3.762    -0.114    22.725     6.795
    30   6 C        3.762    -0.098    22.419     6.750
    31   6 C        3.762    -0.100    22.458     6.755
    32   6 C        3.761    -0.101    22.468     6.757
    33   6 C        3.762    -0.098    22.414     6.749
    34   6 C        3.761    -0.097    22.395     6.746
    35   6 C        3.761    -0.099    22.443     6.753
    36   1 H        0.926     0.018     2.763     2.599
    37   1 H        0.926     0.003     3.008     2.712
    38   1 H        0.926     0.016     2.796     2.615
    39   1 H        0.926     0.029     2.597     2.520
    40   1 H        0.926     0.017     2.787     2.610
    41   1 H        0.926     0.008     2.919     2.672
    42   6 C        3.706     0.038    20.084     6.406
    43   6 C        3.651     0.061    19.866     6.402
    44   1 H        0.925     0.035     2.514     2.479
    45   1 H        0.925     0.013     2.848     2.639
    46   1 H        0.925     0.031     2.579     2.511
    47   1 H        0.925     0.030     2.589     2.516
    48   1 H        0.925     0.026     2.651     2.546
    49   1 H        0.925     0.013     2.843     2.637
    50   1 H        0.925     0.032     2.551     2.498
    51   1 H        0.925     0.012     2.857     2.643
    52   1 H        0.925     0.031     2.576     2.510
    53   1 H        0.925     0.032     2.555     2.499
    54   1 H        0.925     0.024     2.667     2.554
    55   1 H        0.925     0.016     2.802     2.617
    56   1 H        0.925     0.029     2.596     2.520
    57   1 H        0.925     0.040     2.452     2.449
    58   1 H        0.925     0.016     2.792     2.613
    59   1 H        0.925     0.033     2.540     2.492
    60   1 H        0.925     0.016     2.790     2.612
    61   1 H        0.925     0.037     2.489     2.467
    62   1 H        0.925     0.061     2.187     2.313
    63   1 H        0.925     0.046     2.373     2.409
    64   1 H        0.925     0.008     2.919     2.672
    65   1 H        0.925     0.019     2.751     2.594
    66   1 H        0.925     0.014     2.828     2.630
    67   1 H        0.925     0.034     2.532     2.488
    68   1 H        0.925     0.021     2.715     2.577
    69   1 H        0.925     0.029     2.607     2.525
    70   1 H        0.925     0.013     2.841     2.636
    71   1 H        0.925     0.029     2.595     2.519
    72   1 H        0.924     0.032     2.563     2.504
    73   1 H        0.924     0.005     2.977     2.698
    74   1 H        0.925     0.032     2.554     2.499
    75   1 H        0.925     0.069     2.102     2.267
    76   1 H        0.924     0.013     2.844     2.637
    77   6 C        2.926    -0.065    29.624     8.926
    78   6 C        2.865     0.119    25.390     8.260
    79   6 C        2.981    -0.028    28.695     8.787
    80   6 C        2.960     0.083    26.139     8.386
    81   6 C        2.931    -0.076    29.900     8.968
    82   6 C        2.969    -0.012    28.301     8.726
    83   6 C        2.983    -0.015    28.372     8.737
    84   6 C        3.003    -0.043    29.055     8.842
    85   6 C        2.951     0.077    26.275     8.407
    86   7 N        1.852    -0.305    28.751     7.947
    87   6 C        2.984    -0.031    28.760     8.797
    88   6 C        2.958     0.079    26.227     8.400
    89   7 N        1.851    -0.319    29.127     7.999
    90   6 C        2.951     0.076    26.312     8.413
    91   6 C        2.925    -0.064    29.600     8.922
    92   6 C        2.965    -0.019    28.491     8.755
    93   6 C        2.927    -0.058    29.434     8.897
    94   6 C        2.858     0.122    25.317     8.247
    95   6 C        2.921    -0.094    30.371     9.037
    96   6 C        2.969    -0.025    28.622     8.776
    97   6 C        2.931    -0.086    30.143     9.004
    98   8 O        1.706    -0.274    18.546     5.814
    99   8 O        1.703    -0.315    19.266     5.926
   100   6 C        3.903     0.017    20.226     6.393
   101   6 C        3.903     0.026    20.085     6.370
   102   6 C        3.903     0.025    20.103     6.373
   103   6 C        3.761    -0.095    22.366     6.742
   104   6 C        3.762    -0.099    22.442     6.753
   105   6 C        3.762    -0.098    22.414     6.749
   106   6 C        3.762    -0.100    22.449     6.754
   107   6 C        3.762    -0.099    22.426     6.751
   108   6 C        3.761    -0.099    22.428     6.751
   109   6 C        3.762    -0.095    22.359     6.740
   110   6 C        3.824    -0.137    23.123     6.843
   111   6 C        3.761    -0.101    22.484     6.759
   112   1 H        0.926     0.027     2.631     2.537
   113   1 H        0.926     0.017     2.776     2.605
   114   1 H        0.926     0.018     2.763     2.599
   115   1 H        0.926     0.020     2.729     2.583
   116   1 H        0.926     0.008     2.919     2.672
   117   1 H        0.926     0.003     2.999     2.708
   118   6 C        3.644     0.056    19.977     6.425
   119   6 C        3.651     0.055    19.955     6.416
   120   1 H        0.925     0.024     2.678     2.559
   121   1 H        0.925     0.014     2.824     2.628
   122   1 H        0.925     0.038     2.476     2.461
   123   1 H        0.925     0.046     2.366     2.405
   124   1 H        0.925     0.053     2.286     2.364
   125   1 H        0.943     0.069     2.095     2.263
   126   1 H        0.925     0.027     2.631     2.537
   127   1 H        0.925     0.011     2.880     2.654
   128   1 H        0.925     0.019     2.749     2.593
   129   1 H        0.925     0.038     2.479     2.462
   130   1 H        0.925     0.031     2.572     2.508
   131   1 H        0.925     0.015     2.814     2.623
   132   1 H        0.925     0.033     2.549     2.497
   133   1 H        0.925     0.029     2.598     2.520
   134   1 H        0.925     0.014     2.823     2.627
   135   1 H        0.925     0.035     2.513     2.479
   136   1 H        0.925     0.015     2.817     2.625
   137   1 H        0.925     0.025     2.658     2.550
   138   1 H        0.925     0.024     2.676     2.558
   139   1 H        0.925     0.035     2.519     2.482
   140   1 H        0.925     0.012     2.850     2.640
   141   1 H        0.925     0.030     2.586     2.515
   142   1 H        0.925     0.012     2.854     2.642
   143   1 H        0.925     0.036     2.497     2.471
   144   1 H        0.925     0.032     2.560     2.502
   145   1 H        0.925     0.024     2.667     2.554
   146   1 H        0.925     0.012     2.854     2.642
   147   1 H        0.925     0.034     2.529     2.487
   148   1 H        0.924     0.026     2.647     2.544
   149   1 H        0.924     0.035     2.519     2.482
   150   1 H        0.925     0.040     2.443     2.444
   151   1 H        0.924     0.012     2.862     2.646
   152   1 H        0.924     0.035     2.516     2.481

 Mol. C6AA /au·bohr⁶  :     246799.287423
 Mol. C8AA /au·bohr⁸  :    5763228.015460
 Mol. α(0) /au        :        770.113402


Wiberg/Mayer (AO) data.
largest (>0.10) Wiberg bond orders for each atom

 ---------------------------------------------------------------------------
     #   Z sym  total        # sym  WBO       # sym  WBO       # sym  WBO
 ---------------------------------------------------------------------------
     1   6 C    3.940 --     2 C    1.409     6 C    1.346    37 H    0.964
     2   6 C    3.884 --     1 C    1.409     3 C    1.272    23 O    0.977
     3   6 C    3.978 --     2 C    1.272     4 C    1.207     7 C    1.201
     4   6 C    3.979 --    10 N    1.322     5 C    1.268     3 C    1.207
     5   6 C    3.916 --     6 C    1.444     4 C    1.268    36 H    0.965
     6   6 C    3.945 --     5 C    1.444     1 C    1.346    24 C    0.978
     7   6 C    3.946 --     8 C    1.247     3 C    1.201    11 C    1.185
     8   6 C    3.984 --     7 C    1.247    14 C    1.224     9 C    1.222
     9   6 C    3.974 --    10 N    1.292    17 C    1.280     8 C    1.222
    10   7 N    2.955 --     4 C    1.322     9 C    1.292
    11   6 C    3.977 --    18 C    1.264    12 C    1.212     7 C    1.185
    12   6 C    3.978 --    13 N    1.313    21 C    1.273    11 C    1.212
    13   7 N    2.952 --    12 C    1.313    14 C    1.298
    14   6 C    3.972 --    13 N    1.298    15 C    1.270     8 C    1.224
    15   6 C    3.914 --    16 C    1.413    14 C    1.270    39 H    0.965
    16   6 C    3.952 --    15 C    1.413    17 C    1.397    26 C    0.977
    17   6 C    3.909 --    16 C    1.397     9 C    1.280    38 H    0.964
    18   6 C    3.895 --    19 C    1.375    11 C    1.264    22 O    1.038
    19   6 C    3.938 --    18 C    1.375    20 C    1.350    41 H    0.958
    20   6 C    3.952 --    21 C    1.446    19 C    1.350    25 C    0.980
    21   6 C    3.926 --    20 C    1.446    12 C    1.273    40 H    0.962
    22   8 O    2.234 --    18 C    1.038    42 C    0.989
    23   8 O    2.102 --    43 C    0.991     2 C    0.977
    24   6 C    3.987 --    35 C    0.999    33 C    0.990    34 C    0.989
                             6 C    0.978
    25   6 C    3.988 --    27 C    0.999    28 C    0.988    29 C    0.988
                            20 C    0.980
    26   6 C    3.988 --    32 C    1.000    30 C    0.989    31 C    0.989
                            16 C    0.977
    27   6 C    3.998 --    25 C    0.999    68 H    0.986    70 H    0.986
                            69 H    0.985
    28   6 C    3.995 --    25 C    0.988    65 H    0.988    66 H    0.986
                            67 H    0.984
    29   6 C    3.990 --    25 C    0.988    64 H    0.986    62 H    0.973
                            63 H    0.969
    30   6 C    3.995 --    26 C    0.989    54 H    0.988    55 H    0.986
                            53 H    0.984
    31   6 C    3.995 --    26 C    0.989    61 H    0.987    60 H    0.986
                            59 H    0.984
    32   6 C    3.997 --    26 C    1.000    58 H    0.985    56 H    0.985
                            57 H    0.985
    33   6 C    3.995 --    24 C    0.990    52 H    0.987    51 H    0.986
                            50 H    0.984
    34   6 C    3.995 --    24 C    0.989    48 H    0.988    49 H    0.986
                            47 H    0.984
    35   6 C    3.997 --    24 C    0.999    45 H    0.986    44 H    0.986
                            46 H    0.985
    36   1 H    0.999 --     5 C    0.965
    37   1 H    0.999 --     1 C    0.964
    38   1 H    0.999 --    17 C    0.964
    39   1 H    0.999 --    15 C    0.965
    40   1 H    0.999 --    21 C    0.962
    41   1 H    0.999 --    19 C    0.958
    42   6 C    3.951 --    22 O    0.989    74 H    0.970    76 H    0.966
                            75 H    0.925
    43   6 C    3.964 --    23 O    0.991    71 H    0.983    73 H    0.979
                            72 H    0.973
    44   1 H    0.999 --    35 C    0.986
    45   1 H    0.999 --    35 C    0.986
    46   1 H    0.999 --    35 C    0.985
    47   1 H    0.999 --    34 C    0.984
    48   1 H    0.999 --    34 C    0.988
    49   1 H    0.999 --    34 C    0.986
    50   1 H    0.999 --    33 C    0.984
    51   1 H    0.999 --    33 C    0.986
    52   1 H    0.999 --    33 C    0.987
    53   1 H    0.999 --    30 C    0.984
    54   1 H    0.999 --    30 C    0.988
    55   1 H    0.999 --    30 C    0.986
    56   1 H    0.999 --    32 C    0.985
    57   1 H    0.998 --    32 C    0.985
    58   1 H    0.999 --    32 C    0.985
    59   1 H    0.999 --    31 C    0.984
    60   1 H    0.999 --    31 C    0.986
    61   1 H    0.999 --    31 C    0.987
    62   1 H    0.996 --    29 C    0.973
    63   1 H    0.998 --    29 C    0.969
    64   1 H    0.999 --    29 C    0.986
    65   1 H    1.000 --    28 C    0.988
    66   1 H    0.999 --    28 C    0.986
    67   1 H    0.999 --    28 C    0.984
    68   1 H    0.999 --    27 C    0.986
    69   1 H    0.999 --    27 C    0.985
    70   1 H    0.999 --    27 C    0.986
    71   1 H    0.999 --    43 C    0.983
    72   1 H    0.999 --    43 C    0.973
    73   1 H    1.000 --    43 C    0.979
    74   1 H    0.998 --    42 C    0.970
    75   1 H    0.995 --    42 C    0.925
    76   1 H    0.999 --    42 C    0.966
    77   6 C    3.934 --    78 C    1.407    82 C    1.342   113 H    0.961
    78   6 C    3.894 --    77 C    1.407    79 C    1.288    99 O    0.985
    79   6 C    3.978 --    78 C    1.288    80 C    1.205    83 C    1.183
    80   6 C    3.977 --    86 N    1.324    81 C    1.266    79 C    1.205
    81   6 C    3.925 --    82 C    1.458    80 C    1.266   112 H    0.964
    82   6 C    3.954 --    81 C    1.458    77 C    1.342   100 C    0.982
    83   6 C    3.944 --    84 C    1.248    87 C    1.199    79 C    1.183
    84   6 C    3.981 --    83 C    1.248    90 C    1.225    85 C    1.218
    85   6 C    3.972 --    86 N    1.288    93 C    1.287    84 C    1.218
    86   7 N    2.955 --    80 C    1.324    85 C    1.288
    87   6 C    3.978 --    94 C    1.251    88 C    1.213    83 C    1.199
    88   6 C    3.978 --    89 N    1.311    97 C    1.277    87 C    1.213
    89   7 N    2.950 --    88 C    1.311    90 C    1.295
    90   6 C    3.972 --    89 N    1.295    91 C    1.269    84 C    1.225
    91   6 C    3.919 --    92 C    1.417    90 C    1.269   115 H    0.966
    92   6 C    3.948 --    91 C    1.417    93 C    1.388   102 C    0.977
    93   6 C    3.914 --    92 C    1.388    85 C    1.287   114 H    0.964
    94   6 C    3.889 --    95 C    1.391    87 C    1.251    98 O    1.032
    95   6 C    3.942 --    94 C    1.391    96 C    1.349   117 H    0.961
    96   6 C    3.943 --    97 C    1.437    95 C    1.349   101 C    0.978
    97   6 C    3.921 --    96 C    1.437    88 C    1.277   116 H    0.964
    98   8 O    2.212 --    94 C    1.032   118 C    0.998
    99   8 O    2.117 --    78 C    0.985   119 C    0.982
   100   6 C    3.988 --   111 C    0.998   109 C    0.987    82 C    0.982
                           110 C    0.976
   101   6 C    3.987 --   103 C    0.999   104 C    0.990   105 C    0.989
                            96 C    0.978
   102   6 C    3.987 --   108 C    0.999   106 C    0.990   107 C    0.989
                            92 C    0.977
   103   6 C    3.998 --   101 C    0.999   144 H    0.986   146 H    0.985
                           145 H    0.985
   104   6 C    3.995 --   101 C    0.990   141 H    0.987   142 H    0.986
                           143 H    0.984
   105   6 C    3.995 --   101 C    0.989   138 H    0.988   140 H    0.986
                           139 H    0.984
   106   6 C    3.995 --   102 C    0.990   130 H    0.987   131 H    0.986
                           129 H    0.983
   107   6 C    3.995 --   102 C    0.989   137 H    0.988   136 H    0.986
                           135 H    0.984
   108   6 C    3.997 --   102 C    0.999   134 H    0.986   133 H    0.985
                           132 H    0.985
   109   6 C    3.995 --   128 H    0.988   100 C    0.987   127 H    0.986
                           126 H    0.984
   110   6 C    3.983 --   124 H    0.979   100 C    0.976   123 H    0.948
                           125 H    0.930
   111   6 C    3.997 --   100 C    0.998   120 H    0.986   121 H    0.986
                           122 H    0.985
   112   1 H    0.999 --    81 C    0.964
   113   1 H    0.999 --    77 C    0.961
   114   1 H    0.999 --    93 C    0.964
   115   1 H    0.999 --    91 C    0.966
   116   1 H    0.999 --    97 C    0.964
   117   1 H    0.999 --    95 C    0.961
   118   6 C    3.963 --    98 O    0.998   150 H    0.982   152 H    0.976
                           151 H    0.976
   119   6 C    3.956 --    99 O    0.982   148 H    0.973   149 H    0.972
                           147 H    0.971
   120   1 H    0.999 --   111 C    0.986
   121   1 H    0.999 --   111 C    0.986
   122   1 H    0.999 --   111 C    0.985
   123   1 H    0.998 --   110 C    0.948
   124   1 H    0.997 --   110 C    0.979
   125   1 H    0.994 --   110 C    0.930
   126   1 H    0.999 --   109 C    0.984
   127   1 H    0.999 --   109 C    0.986
   128   1 H    1.000 --   109 C    0.988
   129   1 H    0.999 --   106 C    0.983
   130   1 H    0.999 --   106 C    0.987
   131   1 H    0.999 --   106 C    0.986
   132   1 H    0.999 --   108 C    0.985
   133   1 H    0.999 --   108 C    0.985
   134   1 H    0.999 --   108 C    0.986
   135   1 H    0.999 --   107 C    0.984
   136   1 H    0.999 --   107 C    0.986
   137   1 H    0.999 --   107 C    0.988
   138   1 H    0.999 --   105 C    0.988
   139   1 H    0.999 --   105 C    0.984
   140   1 H    0.999 --   105 C    0.986
   141   1 H    0.999 --   104 C    0.987
   142   1 H    0.999 --   104 C    0.986
   143   1 H    0.999 --   104 C    0.984
   144   1 H    0.999 --   103 C    0.986
   145   1 H    0.999 --   103 C    0.985
   146   1 H    0.999 --   103 C    0.985
   147   1 H    0.998 --   119 C    0.971
   148   1 H    0.999 --   119 C    0.973
   149   1 H    0.999 --   119 C    0.972
   150   1 H    0.998 --   118 C    0.982
   151   1 H    0.999 --   118 C    0.976
   152   1 H    0.998 --   118 C    0.976
 ---------------------------------------------------------------------------

Topologies differ in bond orders
Writing corrected topology to xtbtopo.mol

molecular dipole:
                 x           y           z       tot (Debye)
 q only:        2.835       0.849     -16.979
   full:        2.054       0.386     -17.179      43.986
molecular quadrupole (traceless):
                xx          xy          yy          xz          yz          zz
 q only:      134.625     -13.022     132.395      12.965      66.781    -267.019
  q+dip:      145.690      -3.853     129.992       8.030      52.746    -275.682
   full:      142.569      -6.728     128.375       3.766      61.420    -270.944


           -------------------------------------------------
          | TOTAL ENERGY             -209.417038984487 Eh   |
          | GRADIENT NORM               0.161774396100 Eh/α |
          | HOMO-LUMO GAP               0.867062278268 eV   |
           -------------------------------------------------
########################################################################
[WARNING] Runtime exception occurred
-2- restart_readRestart: Multiplicity missmatch in restart file.
-1- restart_readRestart: Number of electron missmatch in restart file.
########################################################################

------------------------------------------------------------------------
 * finished run on 2025/03/14 at 17:17:24.888     
------------------------------------------------------------------------
 total:
 * wall-time:     0 d,  0 h,  0 min,  1.861 sec
 *  cpu-time:     0 d,  0 h,  0 min,  7.304 sec
 * ratio c/w:     3.925 speedup
 SCF:
 * wall-time:     0 d,  0 h,  0 min,  1.834 sec
 *  cpu-time:     0 d,  0 h,  0 min,  7.262 sec
 * ratio c/w:     3.960 speedup

Stack distance: 8.0 Å
Electron Transfer integral J: None eV
Hole Transfer integral J: None eV

      -----------------------------------------------------------      
     |                   =====================                   |     
     |                           x T B                           |     
     |                   =====================                   |     
     |                         S. Grimme                         |     
     |          Mulliken Center for Theoretical Chemistry        |     
     |                    University of Bonn                     |     
      -----------------------------------------------------------      

   * xtb version 6.6.1 (8d0f1dd) compiled by 'runner@Mac-1690902418499.local' on 2023-08-01

   xtb is free software: you can redistribute it and/or modify it under
   the terms of the GNU Lesser General Public License as published by
   the Free Software Foundation, either version 3 of the License, or
   (at your option) any later version.
   
   xtb is distributed in the hope that it will be useful,
   but WITHOUT ANY WARRANTY; without even the implied warranty of
   MERCHANTABILITY or FITNESS FOR A PARTICULAR PURPOSE.  See the
   GNU Lesser General Public License for more details.
   
   Cite this work as:
   * C. Bannwarth, E. Caldeweyher, S. Ehlert, A. Hansen, P. Pracht,
     J. Seibert, S. Spicher, S. Grimme, WIREs Comput. Mol. Sci., 2020, 11,
     e01493. DOI: 10.1002/wcms.1493
   
   for GFN2-xTB:
   * C. Bannwarth, S. Ehlert and S. Grimme., J. Chem. Theory Comput., 2019,
     15, 1652-1671. DOI: 10.1021/acs.jctc.8b01176
   for GFN1-xTB:
   * S. Grimme, C. Bannwarth, P. Shushkov, J. Chem. Theory Comput., 2017,
     13, 1989-2009. DOI: 10.1021/acs.jctc.7b00118
   for GFN0-xTB:
   * P. Pracht, E. Caldeweyher, S. Ehlert, S. Grimme, ChemRxiv, 2019, preprint.
     DOI: 10.26434/chemrxiv.8326202.v1
   for GFN-FF:
   * S. Spicher and S. Grimme, Angew. Chem. Int. Ed., 2020, 59, 15665-15673.
     DOI: 10.1002/anie.202004239
   
   for ALPB and GBSA implicit solvation:
   * S. Ehlert, M. Stahn, S. Spicher, S. Grimme, J. Chem. Theory Comput.,
     2021, 17, 4250-4261. DOI: 10.1021/acs.jctc.1c00471
   
   for DFT-D4:
   * E. Caldeweyher, C. Bannwarth and S. Grimme, J. Chem. Phys., 2017,
     147, 034112. DOI: 10.1063/1.4993215
   * E. Caldeweyher, S. Ehlert, A. Hansen, H. Neugebauer, S. Spicher,
     C. Bannwarth and S. Grimme, J. Chem. Phys., 2019, 150, 154122.
     DOI: 10.1063/1.5090222
   * E. Caldeweyher, J.-M. Mewes, S. Ehlert and S. Grimme, Phys. Chem. Chem. Phys.
     2020, 22, 8499-8512. DOI: 10.1039/D0CP00502A
   
   for sTDA-xTB:
   * S. Grimme and C. Bannwarth, J. Chem. Phys., 2016, 145, 054103.
     DOI: 10.1063/1.4959605
   
   in the mass-spec context:
   * V. Asgeirsson, C. Bauer and S. Grimme, Chem. Sci., 2017, 8, 4879.
     DOI: 10.1039/c7sc00601b
   * J. Koopman and S. Grimme, ACS Omega 2019, 4, 12, 15120-15133.
     DOI: 10.1021/acsomega.9b02011
   
   for metadynamics refer to:
   * S. Grimme, J. Chem. Theory Comput., 2019, 155, 2847-2862
     DOI: 10.1021/acs.jctc.9b00143
   
   for SPH calculations refer to:
   * S. Spicher and S. Grimme, J. Chem. Theory Comput., 2021, 17, 1701-1714
     DOI: 10.1021/acs.jctc.0c01306
   
   with help from (in alphabetical order)
   P. Atkinson, C. Bannwarth, F. Bohle, G. Brandenburg, E. Caldeweyher
   M. Checinski, S. Dohm, S. Ehlert, S. Ehrlich, I. Gerasimov, C. Hölzer
   A. Katbashev, J. Koopman, C. Lavigne, S. Lehtola, F. März, M. Müller,
   F. Musil, H. Neugebauer, J. Pisarek, C. Plett, P. Pracht, F. Pultar,
   J. Seibert, P. Shushkov, S. Spicher, M. Stahn, M. Steiner, T. Strunk,
   J. Stückrath, T. Rose, and J. Unsleber
   
 * started run on 2025/03/14 at 17:18:05.885     

           -------------------------------------------------
          |                Calculation Setup                |
           -------------------------------------------------

          program call               : xtb stacked_dimer_8.0.mol --dipro 0.3 --chrg 0 --uhf 2
          coordinate file            : stacked_dimer_8.0.mol
          omp threads                :                     8

   ID    Z sym.   atoms
    1    6 C      1-9, 11, 12, 14-21, 24-35, 42, 43, 77-85, 87, 88, 90-97,
                  100-111, 118, 119
    2    7 N      10, 13, 86, 89
    3    8 O      22, 23, 98, 99
    4    1 H      36-41, 44-76, 112-117, 120-152

molecular fragmentation (1/2 indicates fragments):
111111111111111111111111111111111111111111111111111111111111111111111111
111122222222222222222222222222222222222222222222222222222222222222222222
22222222
# atoms in fragment 1/2:    76    76
 fragment masses (1/2) :      495.68      495.68
CMA distance (Bohr)    :  15.161
constraining FC (au)   :  0.0500
########################################################################
[WARNING] Please study the warnings concerning your input carefully
-1- prog_main_parseArguments: Unknown option '--dipro' provided
########################################################################

           -------------------------------------------------
          |                 G F N 2 - x T B                 |
           -------------------------------------------------

        Reference                      10.1021/acs.jctc.8b01176
      * Hamiltonian:
        H0-scaling (s, p, d)           1.850000    2.230000    2.230000
        zeta-weighting                 0.500000
      * Dispersion:
        s8                             2.700000
        a1                             0.520000
        a2                             5.000000
        s9                             5.000000
      * Repulsion:
        kExp                           1.500000    1.000000
        rExp                           1.000000
      * Coulomb:
        alpha                          2.000000
        third order                    shell-resolved
        anisotropic                    true
        a3                             3.000000
        a5                             4.000000
        cn-shift                       1.200000
        cn-exp                         4.000000
        max-rad                        5.000000

q/qsh data taken from xtbrestart
CAMM data taken from xtbrestart

          ...................................................
          :                      SETUP                      :
          :.................................................:
          :  # basis functions                 374          :
          :  # atomic orbitals                 374          :
          :  # shells                          226          :
          :  # electrons                       386          :
          :  max. iterations                   250          :
          :  Hamiltonian                  GFN2-xTB          :
          :  restarted?                       true          :
          :  GBSA solvation                  false          :
          :  PC potential                    false          :
          :  electronic temp.          300.0000000     K    :
          :  accuracy                    1.0000000          :
          :  -> integral cutoff          0.2500000E+02      :
          :  -> integral neglect         0.1000000E-07      :
          :  -> SCF convergence          0.1000000E-05 Eh   :
          :  -> wf. convergence          0.1000000E-03 e    :
          :  Broyden damping             0.4000000          :
          ...................................................

 iter      E             dE          RMSdq      gap      omega  full diag
   1   -212.2725490 -0.212273E+03  0.492E-01    1.77       0.0  T
   2   -212.3087247 -0.361758E-01  0.383E-01    1.48       1.0  T
   3   -212.3206205 -0.118958E-01  0.254E-01    1.63       1.0  T
   4   -212.3214245 -0.803949E-03  0.193E-01    1.56       1.0  T
   5   -212.3217676 -0.343130E-03  0.908E-02    1.58       1.0  T
   6   -212.3230136 -0.124604E-02  0.292E-02    1.59       1.0  T
   7   -212.3231570 -0.143361E-03  0.132E-02    1.59       1.0  T
   8   -212.3231762 -0.192540E-04  0.490E-03    1.59       1.7  T
   9   -212.3231767 -0.409953E-06  0.261E-03    1.59       3.1  T
  10   -212.3231778 -0.112375E-05  0.584E-04    1.59      13.9  T
  11   -212.3231778 -0.965954E-08  0.333E-04    1.59      24.3  T
  12   -212.3231778 -0.811397E-08  0.162E-04    1.59      49.9  T

   *** convergence criteria satisfied after 12 iterations ***

         #    Occupation            Energy/Eh            Energy/eV
      -------------------------------------------------------------
         1        2.0000           -0.7172440             -19.5172
       ...           ...                  ...                  ...
       188        2.0000           -0.3642828              -9.9126
       189        2.0000           -0.3638714              -9.9014
       190        2.0000           -0.3622726              -9.8579
       191        1.9999           -0.3488273              -9.4921
       192        1.9950           -0.3449629              -9.3869
       193        1.0050           -0.3348956              -9.1130
       194        1.0001           -0.3312079              -9.0126 (HOMO)
       195                         -0.2728538              -7.4247 (LUMO)
       196                         -0.2684698              -7.3054
       197                         -0.2309704              -6.2850
       198                         -0.2272238              -6.1831
       199                         -0.2267468              -6.1701
       ...                                ...                  ...
       374                          0.7168053              19.5053
      -------------------------------------------------------------
                  HL-Gap            0.0583541 Eh            1.5879 eV
             Fermi-level           -0.3209809 Eh           -8.7343 eV

 transition dipole moment (au) for excitation:         193         194
     X       Y       Z   
   0.0098   0.0011   0.0773  total (au/Debye):    0.078   0.198
 dE (eV)             :    0.100
 oscillator strength :  0.21128E-04

 SCC (total)                   0 d,  0 h,  0 min,  1.085 sec
 SCC setup                      ...        0 min,  0.001 sec (  0.046%)
 Dispersion                     ...        0 min,  0.002 sec (  0.190%)
 classical contributions        ...        0 min,  0.000 sec (  0.040%)
 integral evaluation            ...        0 min,  0.011 sec (  0.986%)
 iterations                     ...        0 min,  0.953 sec ( 87.871%)
 molecular gradient             ...        0 min,  0.074 sec (  6.839%)
 printout                       ...        0 min,  0.044 sec (  4.027%)

         :::::::::::::::::::::::::::::::::::::::::::::::::::::
         ::                     SUMMARY                     ::
         :::::::::::::::::::::::::::::::::::::::::::::::::::::
         :: total energy            -209.072701325507 Eh    ::
         :: gradient norm              0.133535393027 Eh/a0 ::
         :: HOMO-LUMO gap              1.587895965773 eV    ::
         ::.................................................::
         :: SCC energy              -212.323177800840 Eh    ::
         :: -> isotropic ES            0.120258731867 Eh    ::
         :: -> anisotropic ES          0.035129454771 Eh    ::
         :: -> anisotropic XC          0.108259387070 Eh    ::
         :: -> dispersion             -0.202865149623 Eh    ::
         :: repulsion energy           3.242542730096 Eh    ::
         :: add. restraining           0.000000000000 Eh    ::
         :: total charge               0.000017544559 e     ::
         :::::::::::::::::::::::::::::::::::::::::::::::::::::

           -------------------------------------------------
          |                Property Printout                |
           -------------------------------------------------

    * Orbital Energies and Occupations

         #    Occupation            Energy/Eh            Energy/eV
      -------------------------------------------------------------
         1        2.0000           -0.7172440             -19.5172
       ...           ...                  ...                  ...
       182        2.0000           -0.3912209             -10.6457
       183        2.0000           -0.3888009             -10.5798
       184        2.0000           -0.3873117             -10.5393
       185        2.0000           -0.3797792             -10.3343
       186        2.0000           -0.3754727             -10.2171
       187        2.0000           -0.3675481             -10.0015
       188        2.0000           -0.3642828              -9.9126
       189        2.0000           -0.3638714              -9.9014
       190        2.0000           -0.3622726              -9.8579
       191        1.9999           -0.3488273              -9.4921
       192        1.9950           -0.3449629              -9.3869
       193        1.0050           -0.3348956              -9.1130
       194        1.0001           -0.3312079              -9.0126 (HOMO)
       195                         -0.2728538              -7.4247 (LUMO)
       196                         -0.2684698              -7.3054
       197                         -0.2309704              -6.2850
       198                         -0.2272238              -6.1831
       199                         -0.2267468              -6.1701
       200                         -0.2232246              -6.0742
       201                         -0.2146739              -5.8416
       202                         -0.2100393              -5.7155
       203                         -0.1942496              -5.2858
       204                         -0.1897999              -5.1647
       205                         -0.1688907              -4.5957
       ...                                ...                  ...
       374                          0.7168053              19.5053
      -------------------------------------------------------------
                  HL-Gap            0.0583541 Eh            1.5879 eV
             Fermi-level           -0.3209809 Eh           -8.7343 eV

     #   Z          covCN         q      C6AA      α(0)
     1   6 C        2.926    -0.057    29.422     8.895
     2   6 C        2.865     0.140    24.936     8.185
     3   6 C        2.981    -0.027    28.673     8.784
     4   6 C        2.960     0.090    26.007     8.365
     5   6 C        2.931    -0.057    29.421     8.895
     6   6 C        2.969     0.011    27.761     8.642
     7   6 C        2.983     0.033    27.262     8.565
     8   6 C        3.003    -0.030    28.740     8.794
     9   6 C        2.951     0.090    25.993     8.362
    10   7 N        1.852    -0.256    27.517     7.775
    11   6 C        2.984    -0.030    28.748     8.795
    12   6 C        2.958     0.087    26.059     8.373
    13   7 N        1.851    -0.262    27.664     7.795
    14   6 C        2.951     0.091    25.987     8.361
    15   6 C        2.925    -0.048    29.191     8.860
    16   6 C        2.965     0.014    27.694     8.632
    17   6 C        2.927    -0.043    29.067     8.842
    18   6 C        2.858     0.151    24.716     8.149
    19   6 C        2.921    -0.078    29.952     8.975
    20   6 C        2.969     0.011    27.772     8.644
    21   6 C        2.931    -0.061    29.527     8.911
    22   8 O        1.723    -0.254    18.204     5.761
    23   8 O        1.703    -0.304    19.064     5.895
    24   6 C        3.903     0.027    20.064     6.367
    25   6 C        3.903     0.026    20.073     6.368
    26   6 C        3.903     0.026    20.086     6.371
    27   6 C        3.761    -0.104    22.530     6.766
    28   6 C        3.762    -0.107    22.590     6.775
    29   6 C        3.762    -0.121    22.860     6.816
    30   6 C        3.762    -0.107    22.596     6.776
    31   6 C        3.762    -0.107    22.598     6.776
    32   6 C        3.761    -0.110    22.646     6.784
    33   6 C        3.762    -0.106    22.580     6.774
    34   6 C        3.761    -0.106    22.574     6.773
    35   6 C        3.761    -0.111    22.673     6.788
    36   1 H        0.926     0.062     2.175     2.306
    37   1 H        0.926     0.048     2.339     2.392
    38   1 H        0.926     0.054     2.268     2.355
    39   1 H        0.926     0.060     2.203     2.321
    40   1 H        0.926     0.048     2.349     2.397
    41   1 H        0.926     0.043     2.413     2.429
    42   6 C        3.706     0.021    20.361     6.450
    43   6 C        3.651     0.051    20.021     6.427
    44   1 H        0.925     0.040     2.449     2.447
    45   1 H        0.925     0.038     2.472     2.459
    46   1 H        0.925     0.039     2.458     2.452
    47   1 H        0.925     0.037     2.488     2.466
    48   1 H        0.925     0.035     2.517     2.481
    49   1 H        0.925     0.039     2.458     2.452
    50   1 H        0.925     0.038     2.478     2.462
    51   1 H        0.925     0.039     2.467     2.456
    52   1 H        0.925     0.036     2.509     2.477
    53   1 H        0.925     0.040     2.453     2.449
    54   1 H        0.925     0.034     2.525     2.485
    55   1 H        0.925     0.040     2.455     2.450
    56   1 H        0.925     0.038     2.476     2.460
    57   1 H        0.925     0.039     2.467     2.456
    58   1 H        0.925     0.038     2.470     2.458
    59   1 H        0.925     0.040     2.447     2.446
    60   1 H        0.925     0.040     2.454     2.450
    61   1 H        0.925     0.036     2.500     2.472
    62   1 H        0.925     0.056     2.249     2.345
    63   1 H        0.925     0.046     2.373     2.409
    64   1 H        0.925     0.031     2.573     2.509
    65   1 H        0.925     0.031     2.568     2.506
    66   1 H        0.925     0.037     2.487     2.466
    67   1 H        0.925     0.039     2.460     2.453
    68   1 H        0.925     0.033     2.545     2.495
    69   1 H        0.925     0.032     2.564     2.504
    70   1 H        0.925     0.036     2.507     2.476
    71   1 H        0.925     0.052     2.292     2.367
    72   1 H        0.924     0.029     2.594     2.519
    73   1 H        0.924     0.028     2.614     2.528
    74   1 H        0.925     0.053     2.288     2.366
    75   1 H        0.925     0.083     1.945     2.181
    76   1 H        0.924     0.034     2.533     2.489
    77   6 C        2.926    -0.056    29.402     8.892
    78   6 C        2.865     0.140    24.941     8.186
    79   6 C        2.981    -0.027    28.657     8.781
    80   6 C        2.960     0.090    25.997     8.363
    81   6 C        2.931    -0.057    29.427     8.896
    82   6 C        2.969     0.011    27.766     8.643
    83   6 C        2.983     0.034    27.243     8.562
    84   6 C        3.003    -0.030    28.737     8.794
    85   6 C        2.951     0.090    25.994     8.362
    86   7 N        1.852    -0.256    27.505     7.773
    87   6 C        2.984    -0.029    28.709     8.789
    88   6 C        2.958     0.088    26.042     8.370
    89   7 N        1.851    -0.257    27.548     7.779
    90   6 C        2.951     0.090    26.000     8.363
    91   6 C        2.925    -0.049    29.206     8.863
    92   6 C        2.965     0.013    27.716     8.635
    93   6 C        2.927    -0.044    29.083     8.844
    94   6 C        2.858     0.149    24.766     8.157
    95   6 C        2.921    -0.080    29.994     8.981
    96   6 C        2.969     0.010    27.787     8.646
    97   6 C        2.931    -0.061    29.517     8.910
    98   8 O        1.706    -0.258    18.282     5.773
    99   8 O        1.703    -0.303    19.043     5.892
   100   6 C        3.903     0.019    20.198     6.388
   101   6 C        3.903     0.026    20.073     6.368
   102   6 C        3.903     0.026    20.087     6.371
   103   6 C        3.761    -0.106    22.578     6.774
   104   6 C        3.762    -0.108    22.605     6.777
   105   6 C        3.762    -0.107    22.595     6.776
   106   6 C        3.762    -0.107    22.593     6.776
   107   6 C        3.762    -0.107    22.592     6.776
   108   6 C        3.761    -0.110    22.646     6.784
   109   6 C        3.762    -0.105    22.547     6.769
   110   6 C        3.824    -0.143    23.228     6.858
   111   6 C        3.761    -0.113    22.699     6.792
   112   1 H        0.926     0.062     2.179     2.309
   113   1 H        0.926     0.043     2.408     2.427
   114   1 H        0.926     0.053     2.279     2.361
   115   1 H        0.926     0.060     2.201     2.320
   116   1 H        0.926     0.051     2.303     2.373
   117   1 H        0.926     0.044     2.396     2.421
   118   6 C        3.644     0.041    20.213     6.462
   119   6 C        3.651     0.048    20.083     6.437
   120   1 H        0.925     0.038     2.473     2.459
   121   1 H        0.925     0.035     2.521     2.483
   122   1 H        0.925     0.040     2.448     2.447
   123   1 H        0.925     0.042     2.424     2.435
   124   1 H        0.925     0.045     2.378     2.411
   125   1 H        0.943     0.086     1.917     2.165
   126   1 H        0.925     0.032     2.560     2.502
   127   1 H        0.925     0.032     2.553     2.498
   128   1 H        0.925     0.034     2.528     2.487
   129   1 H        0.925     0.040     2.453     2.449
   130   1 H        0.925     0.035     2.521     2.483
   131   1 H        0.925     0.039     2.462     2.454
   132   1 H        0.925     0.038     2.470     2.458
   133   1 H        0.925     0.038     2.471     2.458
   134   1 H        0.925     0.038     2.477     2.461
   135   1 H        0.925     0.040     2.450     2.448
   136   1 H        0.925     0.039     2.462     2.454
   137   1 H        0.925     0.035     2.518     2.482
   138   1 H        0.925     0.034     2.532     2.488
   139   1 H        0.925     0.041     2.434     2.440
   140   1 H        0.925     0.038     2.473     2.459
   141   1 H        0.925     0.034     2.534     2.490
   142   1 H        0.925     0.038     2.475     2.460
   143   1 H        0.925     0.041     2.431     2.438
   144   1 H        0.925     0.035     2.513     2.479
   145   1 H        0.925     0.034     2.529     2.487
   146   1 H        0.925     0.037     2.493     2.469
   147   1 H        0.925     0.056     2.247     2.344
   148   1 H        0.924     0.027     2.623     2.533
   149   1 H        0.924     0.038     2.475     2.460
   150   1 H        0.925     0.059     2.215     2.327
   151   1 H        0.924     0.036     2.504     2.475
   152   1 H        0.924     0.047     2.359     2.402

 Mol. C6AA /au·bohr⁶  :     239685.302343
 Mol. C8AA /au·bohr⁸  :    5629899.194927
 Mol. α(0) /au        :        758.713107


Wiberg/Mayer (AO) data.
largest (>0.10) Wiberg bond orders for each atom

 ---------------------------------------------------------------------------
     #   Z sym  total        # sym  WBO       # sym  WBO       # sym  WBO
 ---------------------------------------------------------------------------
     1   6 C    3.942 --     2 C    1.468     6 C    1.302    37 H    0.961
     2   6 C    3.936 --     1 C    1.468     3 C    1.276    23 O    1.003
     3   6 C    3.981 --     2 C    1.276     4 C    1.203     7 C    1.200
     4   6 C    3.979 --    10 N    1.346     5 C    1.246     3 C    1.203
     5   6 C    3.959 --     6 C    1.523     4 C    1.246    36 H    0.961
     6   6 C    3.977 --     5 C    1.523     1 C    1.302    24 C    0.984
     7   6 C    3.986 --     8 C    1.326    11 C    1.209     3 C    1.200
     8   6 C    3.984 --     7 C    1.326    14 C    1.191     9 C    1.189
     9   6 C    3.980 --    10 N    1.345    17 C    1.270     8 C    1.189
    10   7 N    3.022 --     4 C    1.346     9 C    1.345
    11   6 C    3.980 --    18 C    1.249     7 C    1.209    12 C    1.204
    12   6 C    3.978 --    13 N    1.337    21 C    1.256    11 C    1.204
    13   7 N    3.021 --    14 C    1.353    12 C    1.337
    14   6 C    3.979 --    13 N    1.353    15 C    1.256     8 C    1.191
    15   6 C    3.918 --    16 C    1.430    14 C    1.256    39 H    0.962
    16   6 C    3.974 --    15 C    1.430    17 C    1.408    26 C    0.982
    17   6 C    3.911 --    16 C    1.408     9 C    1.270    38 H    0.962
    18   6 C    3.932 --    19 C    1.413    11 C    1.249    22 O    1.075
    19   6 C    3.941 --    18 C    1.413    20 C    1.320    41 H    0.955
    20   6 C    3.977 --    21 C    1.501    19 C    1.320    25 C    0.984
    21   6 C    3.957 --    20 C    1.501    12 C    1.256    40 H    0.960
    22   8 O    2.268 --    18 C    1.075    42 C    0.976
    23   8 O    2.123 --     2 C    1.003    43 C    0.978
    24   6 C    3.991 --    35 C    1.000    33 C    0.987    34 C    0.986
                             6 C    0.984
    25   6 C    3.991 --    27 C    1.000    28 C    0.986    29 C    0.985
                            20 C    0.984
    26   6 C    3.990 --    32 C    1.000    30 C    0.987    31 C    0.986
                            16 C    0.982
    27   6 C    3.997 --    25 C    1.000    68 H    0.985    70 H    0.984
                            69 H    0.984
    28   6 C    3.994 --    65 H    0.987    25 C    0.986    66 H    0.984
                            67 H    0.983
    29   6 C    3.991 --    25 C    0.985    64 H    0.985    62 H    0.975
                            63 H    0.969
    30   6 C    3.994 --    26 C    0.987    54 H    0.987    55 H    0.984
                            53 H    0.983
    31   6 C    3.993 --    61 H    0.987    26 C    0.986    60 H    0.984
                            59 H    0.983
    32   6 C    3.996 --    26 C    1.000    56 H    0.984    57 H    0.984
                            58 H    0.984
    33   6 C    3.994 --    24 C    0.987    52 H    0.987    51 H    0.984
                            50 H    0.983
    34   6 C    3.994 --    48 H    0.987    24 C    0.986    49 H    0.984
                            47 H    0.984
    35   6 C    3.996 --    24 C    1.000    44 H    0.985    45 H    0.985
                            46 H    0.984
    36   1 H    0.996 --     5 C    0.961
    37   1 H    0.997 --     1 C    0.961
    38   1 H    0.996 --    17 C    0.962
    39   1 H    0.996 --    15 C    0.962
    40   1 H    0.997 --    21 C    0.960
    41   1 H    0.998 --    19 C    0.955
    42   6 C    3.934 --    22 O    0.976    74 H    0.968    76 H    0.965
                            75 H    0.924
    43   6 C    3.951 --    71 H    0.980    73 H    0.980    23 O    0.978
                            72 H    0.975
    44   1 H    0.998 --    35 C    0.985
    45   1 H    0.998 --    35 C    0.985
    46   1 H    0.998 --    35 C    0.984
    47   1 H    0.999 --    34 C    0.984
    48   1 H    0.999 --    34 C    0.987
    49   1 H    0.998 --    34 C    0.984
    50   1 H    0.999 --    33 C    0.983
    51   1 H    0.997 --    33 C    0.984
    52   1 H    0.999 --    33 C    0.987
    53   1 H    0.998 --    30 C    0.983
    54   1 H    0.999 --    30 C    0.987
    55   1 H    0.998 --    30 C    0.984
    56   1 H    0.999 --    32 C    0.984
    57   1 H    0.998 --    32 C    0.984
    58   1 H    0.998 --    32 C    0.984
    59   1 H    0.998 --    31 C    0.983
    60   1 H    0.997 --    31 C    0.984
    61   1 H    0.999 --    31 C    0.987
    62   1 H    0.997 --    29 C    0.975
    63   1 H    0.998 --    29 C    0.969
    64   1 H    0.998 --    29 C    0.985
    65   1 H    0.999 --    28 C    0.987
    66   1 H    0.998 --    28 C    0.984
    67   1 H    0.998 --    28 C    0.983
    68   1 H    0.999 --    27 C    0.985
    69   1 H    0.999 --    27 C    0.984
    70   1 H    0.998 --    27 C    0.984
    71   1 H    0.997 --    43 C    0.980
    72   1 H    0.999 --    43 C    0.975
    73   1 H    0.999 --    43 C    0.980
    74   1 H    0.997 --    42 C    0.968
    75   1 H    0.993 --    42 C    0.924
    76   1 H    0.998 --    42 C    0.965
    77   6 C    3.941 --    78 C    1.469    82 C    1.300   113 H    0.960
    78   6 C    3.936 --    77 C    1.469    79 C    1.276    99 O    1.003
    79   6 C    3.981 --    78 C    1.276    80 C    1.202    83 C    1.201
    80   6 C    3.978 --    86 N    1.347    81 C    1.246    79 C    1.202
    81   6 C    3.958 --    82 C    1.521    80 C    1.246   112 H    0.961
    82   6 C    3.976 --    81 C    1.521    77 C    1.300   100 C    0.985
    83   6 C    3.986 --    84 C    1.325    87 C    1.210    79 C    1.201
    84   6 C    3.983 --    83 C    1.325    90 C    1.192    85 C    1.189
    85   6 C    3.979 --    86 N    1.344    93 C    1.270    84 C    1.189
    86   7 N    3.022 --    80 C    1.347    85 C    1.344
    87   6 C    3.980 --    94 C    1.247    83 C    1.210    88 C    1.205
    88   6 C    3.978 --    89 N    1.338    97 C    1.255    87 C    1.205
    89   7 N    3.022 --    90 C    1.353    88 C    1.338
    90   6 C    3.979 --    89 N    1.353    91 C    1.256    84 C    1.192
    91   6 C    3.920 --    92 C    1.431    90 C    1.256   115 H    0.962
    92   6 C    3.974 --    91 C    1.431    93 C    1.408   102 C    0.982
    93   6 C    3.914 --    92 C    1.408    85 C    1.270   114 H    0.962
    94   6 C    3.931 --    95 C    1.425    87 C    1.247    98 O    1.073
    95   6 C    3.942 --    94 C    1.425    96 C    1.320   117 H    0.958
    96   6 C    3.977 --    97 C    1.506    95 C    1.320   101 C    0.983
    97   6 C    3.958 --    96 C    1.506    88 C    1.255   116 H    0.961
    98   8 O    2.252 --    94 C    1.073   118 C    0.985
    99   8 O    2.132 --    78 C    1.003   119 C    0.974
   100   6 C    3.989 --   111 C    0.999   109 C    0.986    82 C    0.985
                           110 C    0.973
   101   6 C    3.991 --   103 C    1.000   104 C    0.987   105 C    0.986
                            96 C    0.983
   102   6 C    3.990 --   108 C    1.000   106 C    0.987   107 C    0.987
                            92 C    0.982
   103   6 C    3.996 --   101 C    1.000   144 H    0.985   146 H    0.984
                           145 H    0.984
   104   6 C    3.994 --   101 C    0.987   141 H    0.987   142 H    0.984
                           143 H    0.983
   105   6 C    3.994 --   138 H    0.987   101 C    0.986   140 H    0.984
                           139 H    0.983
   106   6 C    3.994 --   102 C    0.987   130 H    0.987   131 H    0.984
                           129 H    0.983
   107   6 C    3.994 --   137 H    0.987   102 C    0.987   136 H    0.984
                           135 H    0.983
   108   6 C    3.996 --   102 C    1.000   132 H    0.984   133 H    0.984
                           134 H    0.984
   109   6 C    3.994 --   128 H    0.987   100 C    0.986   127 H    0.984
                           126 H    0.984
   110   6 C    3.981 --   124 H    0.980   100 C    0.973   123 H    0.949
                           125 H    0.926
   111   6 C    3.995 --   100 C    0.999   120 H    0.985   121 H    0.985
                           122 H    0.984
   112   1 H    0.996 --    81 C    0.961
   113   1 H    0.997 --    77 C    0.960
   114   1 H    0.997 --    93 C    0.962
   115   1 H    0.996 --    91 C    0.962
   116   1 H    0.997 --    97 C    0.961
   117   1 H    0.997 --    95 C    0.958
   118   6 C    3.946 --    98 O    0.985   150 H    0.980   152 H    0.976
                           151 H    0.975
   119   6 C    3.947 --    99 O    0.974   148 H    0.973   149 H    0.973
                           147 H    0.969
   120   1 H    0.998 --   111 C    0.985
   121   1 H    0.998 --   111 C    0.985
   122   1 H    0.998 --   111 C    0.984
   123   1 H    0.998 --   110 C    0.949
   124   1 H    0.998 --   110 C    0.980
   125   1 H    0.991 --   110 C    0.926
   126   1 H    0.999 --   109 C    0.984
   127   1 H    0.998 --   109 C    0.984
   128   1 H    0.999 --   109 C    0.987
   129   1 H    0.998 --   106 C    0.983
   130   1 H    0.999 --   106 C    0.987
   131   1 H    0.998 --   106 C    0.984
   132   1 H    0.998 --   108 C    0.984
   133   1 H    0.999 --   108 C    0.984
   134   1 H    0.998 --   108 C    0.984
   135   1 H    0.998 --   107 C    0.983
   136   1 H    0.998 --   107 C    0.984
   137   1 H    0.999 --   107 C    0.987
   138   1 H    0.999 --   105 C    0.987
   139   1 H    0.998 --   105 C    0.983
   140   1 H    0.998 --   105 C    0.984
   141   1 H    0.999 --   104 C    0.987
   142   1 H    0.998 --   104 C    0.984
   143   1 H    0.998 --   104 C    0.983
   144   1 H    0.999 --   103 C    0.985
   145   1 H    0.999 --   103 C    0.984
   146   1 H    0.998 --   103 C    0.984
   147   1 H    0.996 --   119 C    0.969
   148   1 H    0.999 --   119 C    0.973
   149   1 H    0.998 --   119 C    0.973
   150   1 H    0.996 --   118 C    0.980
   151   1 H    0.998 --   118 C    0.975
   152   1 H    0.997 --   118 C    0.976
 ---------------------------------------------------------------------------

Topologies differ in bond orders
Writing corrected topology to xtbtopo.mol

molecular dipole:
                 x           y           z       tot (Debye)
 q only:       -0.761      -0.238      -0.514
   full:       -1.494      -0.674      -0.691       4.521
molecular quadrupole (traceless):
                xx          xy          yy          xz          yz          zz
 q only:       23.930       6.522      -1.503      -2.126     -17.989     -22.427
  q+dip:       32.113      14.082      -4.643      -8.875     -27.446     -27.470
   full:       28.269      10.699      -6.542     -13.964     -17.443     -21.727


           -------------------------------------------------
          | TOTAL ENERGY             -209.072701325507 Eh   |
          | GRADIENT NORM               0.133535393027 Eh/α |
          | HOMO-LUMO GAP               1.587895965773 eV   |
           -------------------------------------------------
########################################################################
[WARNING] Runtime exception occurred
-2- restart_readRestart: Multiplicity missmatch in restart file.
-1- restart_readRestart: Number of electron missmatch in restart file.
########################################################################

------------------------------------------------------------------------
 * finished run on 2025/03/14 at 17:18:06.999     
------------------------------------------------------------------------
 total:
 * wall-time:     0 d,  0 h,  0 min,  1.114 sec
 *  cpu-time:     0 d,  0 h,  0 min,  3.690 sec
 * ratio c/w:     3.314 speedup
 SCF:
 * wall-time:     0 d,  0 h,  0 min,  1.086 sec
 *  cpu-time:     0 d,  0 h,  0 min,  3.648 sec
 * ratio c/w:     3.360 speedup

Stack distance: 8.0 Å
Electron Transfer integral J: None eV
Hole Transfer integral J: None eV

