116
 energy: -22.928061455056 gnorm: 0.329736929581 xtb: 6.6.1 (8d0f1dd)
C           -3.31122850772930        0.79849766164622       -0.92477639677520
C           -2.44380812530352       -0.12270372891954       -0.27661132624697
C           -1.41337090092821        0.39579727573559        0.56335275196199
C           -0.89266158675590        1.65801491088749        0.27377586709581
C           -1.72665675402493        2.51431363229076       -0.49448366572522
C           -2.95444148494349        2.13954154133227       -1.01494489940871
C           -0.74098268209890       -0.43411532818871        1.49825021926784
C            0.56872586496315        0.03782116815119        1.86248088067890
C            1.03782416582094        1.29402317993033        1.50887470833621
N            0.31238977034758        2.07067427098208        0.65193736800696
C           -1.29695700510141       -1.39996043042223        2.41574187746061
C           -0.38243517664656       -2.18060797534842        3.13232615520648
N            0.91308504082021       -1.90366887689689        3.30325166013478
C            1.37712470144904       -0.74872102533751        2.81811050966982
C            2.52149331701875       -0.17739833758153        3.39379298866852
C            2.95849061756259        1.02681208890480        2.95105897606587
C            2.24288949469137        1.78498308775960        2.03503020483770
C           -2.74860936222260       -1.74497937691422        2.38401158947411
C           -3.09416315450955       -2.91614440870436        3.00571134491758
C           -2.16786021984049       -3.77788778654213        3.63251872101904
C           -0.85708937311598       -3.40495313382985        3.68547234358092
O           -3.71994433332149       -0.94984598373544        1.67726658385724
O           -2.55702603277562       -1.47241711578389       -0.57241635275616
C           -3.84297843593025        3.13357444054366       -1.60938954875544
C           -2.68769581069131       -5.03867041417370        4.30484659386931
H           -1.39666850744143        3.51251503834900       -0.76806311868865
H           -4.27662633836220        0.55105838579656       -1.33106614114542
H            2.66329581305412        2.73912661909249        1.72562431984580
H            3.05775395548473       -0.69369546277216        4.16536137542516
H           -0.24710966264510       -4.12034095424229        4.22946223699121
H           -4.11477991332403       -3.04712728052358        3.03244694615357
O           -4.21824883374556        4.03433712717988       -0.87713382485991
O           -4.44510595673734        2.90643496899600       -2.81853501752979
C           -5.44216520282800        3.83300025693726       -3.02488532025093
C            4.23586651889298        1.50004220933226        3.59165660008449
O            5.05927614697201        0.66079890002952        3.91714215179376
O            4.47001334453535        2.86385149488593        3.72605651435371
C            5.79457498613219        3.08584475587818        4.15829123132174
O           -3.82227255313510       -5.27347675879771        4.16636005494405
O           -1.85023202017753       -5.79767454267276        5.06656077253571
C           -2.55119635829503       -6.86252441382958        5.62930343183426
C           -5.07197156564436       -1.42399175670916        1.58830531863830
C           -1.33089900128490       -2.23622472573986       -0.99264499351172
H           -2.54510546830388       -7.76426885143998        4.99136022291012
H           -3.57194749219491       -6.44405511486021        5.74196173723541
H           -2.09133598235598       -7.02043774843818        6.64022264233588
H            5.72707967266424        3.46798026205549        5.10135971236643
H            6.34060091246885        3.78468702308830        3.50069950143490
H            6.17933064298187        2.03010500085905        4.19342358084693
H           -0.91862729772622       -2.57650129080332       -0.01361370304871
H           -0.49769766914251       -1.60651221708571       -1.34094446550576
H           -1.52632419730509       -2.94569707152159       -1.75361447637286
H           -5.11788846557077       -2.41810833635233        1.17520213188926
H           -5.67929807973498       -0.69619639428435        1.04301666067831
H           -5.57598832326623       -1.42383358739762        2.57928294206544
H           -6.13050215934830        3.76035386975488       -2.23272855695873
H           -5.86615610071888        3.45938329385866       -4.02668959924245
H           -5.13479557532099        4.87790991548477       -2.98314551356402
C           -1.38192942069774        3.73616555005018        2.91232598411686
C           -1.84821468128685        2.59982427735607        3.49755545445181
C           -1.05946531454833        2.05730632010638        4.60922730982276
C            0.19893954712228        2.69376791964407        4.86302140881997
C            0.50425395911860        3.94630308659851        4.28768785650746
C           -0.26031777722226        4.46998310053134        3.25072669343212
C           -1.20488993561782        0.74454293276906        5.14851520323437
C           -0.06287609782692        0.02744069315890        5.60930570802864
C            1.19208754369866        0.71421540266195        5.78882868583885
N            1.19428660993148        2.06344359410476        5.62744624321596
C           -2.41361422770794        0.07928500213936        5.25249410304426
C           -2.45851584031083       -1.32662100968547        5.60237876023992
N           -1.29466212405906       -1.98318595734370        5.89916817085159
C           -0.14475655767527       -1.32117560077092        5.98824682881008
C            0.97209270935794       -1.98958449505532        6.53157704134458
C            2.21982707914082       -1.36973967291181        6.68703967237737
C            2.30561929262884       -0.09745313075593        6.26436900324455
C           -3.73018485967715        0.71367583494582        5.25810242262992
C           -4.89964478833448       -0.06184623426677        5.21204641615509
C           -4.82617965800088       -1.39228978090841        5.46901303780036
C           -3.67144193418464       -1.98914944386360        5.67265433266067
O           -3.75568638935321        2.07705011038914        5.52067969627343
O           -2.94192434743730        1.91263938797883        3.01658762327703
C            0.21273512614467        5.50086066357994        2.34765104514621
C           -6.06660304520411       -2.17604633098929        5.80641622556876
H            1.41756699010566        4.38133362238595        4.66974005703471
H           -1.82880610647429        4.11982501512100        2.06992133318584
H            3.26888037378556        0.32655662585251        6.31721410015598
H            0.87146188387207       -3.08471526305024        6.57830423410869
H           -3.67716811065157       -3.05999292755990        5.83019634570050
H           -5.77379677507622        0.43595144608221        4.71017130754348
O            1.34459852619901        5.82615848916894        2.44941456579099
O           -0.74718748219123        6.07961784856304        1.59848183464284
C           -0.21473095568964        7.24015934882472        1.05753806029483
C            3.53228080814219       -2.00967610361154        7.02506769044485
O            3.64093082622715       -3.14437803815732        7.50071391725347
O            4.56565258381079       -1.22937033368332        6.69086985080897
C            5.72579357310716       -1.80692399125161        7.22246151275881
O           -7.04801223588612       -1.95726935745904        5.14194115322235
O           -6.01514389321278       -2.93743591896022        6.94765316328794
C           -7.21292732384718       -3.62681918543340        7.15115816329978
C           -4.95459780685163        2.65960679932188        5.86868674392943
C           -3.68284113682406        2.59129188358641        2.05479246020704
H           -7.43119628931628       -4.22607794725959        6.20622607140901
H           -8.06548455146707       -2.91765848248592        7.29781126410398
H           -7.07314693247270       -4.33087306029711        7.91223421050944
H            6.57332189837178       -1.29353136199234        6.78341268688262
H            5.74663761932316       -2.84282155125561        6.88089468184451
H            5.69426191474290       -1.72781984964892        8.29460302186842
H           -4.10481209541493        3.44288266176275        2.60483747673152
H           -4.49244774344916        1.87419893016926        1.82433103764650
H           -3.18901540870812        2.85154642679373        1.06781919454921
H           -5.55414326821421        2.76698137191684        4.93950725322359
H           -4.78658370641210        3.62090640967288        6.25983200635257
H           -5.43485580473958        1.97242995129449        6.65265772412460
H            0.89164886030839        7.38838561720231        1.13776105146914
H           -0.62894889903848        8.04195665205089        1.64837664327952
H           -0.59282546386754        7.45699159724320        0.03719083132488
116
 energy: -22.760209574326 gnorm: 0.440322940498 xtb: 6.6.1 (8d0f1dd)
C           -2.94037207481913        0.02526151229221       -1.69848328630765
C           -2.47859437194985       -0.59388182096786       -0.53440340335820
C           -1.78165381519216        0.18977313307799        0.43048230181147
C           -1.49817669961059        1.53284344458845        0.16565616960181
C           -2.00429401020713        2.19076847990493       -1.02619206256056
C           -2.77387718866519        1.40399336561985       -1.84640301597730
C           -1.08179594036070       -0.39617924023459        1.59444456107964
C            0.14137927559628        0.19049536582236        1.93664228519932
C            0.30110898571833        1.59871439783966        1.62938403875922
N           -0.58999123154259        2.26914993385736        0.84111363053345
C           -1.40557770035010       -1.60438823157063        2.27016864382527
C           -0.35874442603071       -2.35129994437875        2.91640440975032
N            0.79159310656111       -1.75427963823647        3.31284463178612
C            0.99805612042461       -0.52089811809390        2.77650849363085
C            2.19048434627277        0.20575803182547        3.15793197745618
C            2.51716211328799        1.45348104410344        2.71361184546109
C            1.53604508370719        2.20588756592363        2.00498793040303
C           -2.75020246508613       -2.12602012543392        2.27678521641742
C           -3.05777579987204       -3.45134590085768        2.52809345929317
C           -2.04750218167732       -4.26098761370502        3.00283835239500
C           -0.78032799385143       -3.66163868760821        3.24925964175949
O           -3.62903048856969       -1.09836321111472        2.15591954190793
O           -3.03318237463712       -1.92486948670198       -0.33173683709130
C           -3.25232266235587        2.08504970169811       -3.05761749109770
C           -2.36244429395298       -5.68908385826687        3.25426881773568
H           -1.52732535095123        3.12028003808949       -1.46986772769153
H           -3.57860231882207       -0.56444627144371       -2.30541061599431
H            1.96178259592621        3.20582984595366        1.79334617913269
H            2.73690161285679       -0.20691623964618        3.91034803621796
H           -0.06798636706216       -4.36357268506692        3.68089739394332
H           -4.00666662164401       -3.84070286880544        2.36136910564683
O           -2.42773330792313        2.60424060721868       -3.77807494015807
O           -4.60910690516412        2.29142942826864       -3.34647545765165
C           -4.88804347234321        2.59112333650081       -4.73475008239812
C            3.64511962684929        2.14931146405942        3.43509387387062
O            4.48430480583639        1.50651083846889        3.99447432164946
O            3.62575933086423        3.50132430789101        3.25887972358932
C            4.38459633519053        4.14691346060987        4.26464170825939
O           -3.55059305675604       -6.11375934971580        3.45167548553244
O           -1.35548060522716       -6.64741727885580        3.67308285250795
C           -1.77833278800407       -7.96880196212596        3.86894679854050
C           -4.92573831384570       -1.52766070337740        2.23214190658803
C           -2.10768981068205       -2.84590176331981       -0.65590756458389
H           -1.68927587679969       -8.13179869939485        5.00592077743279
H           -1.19476641187903       -8.56963293415600        3.19338619908593
H           -2.89716510082527       -8.28158940099342        3.59941974718525
H            4.09519502231220        3.70496332493272        5.04912309552864
H            4.05432706009968        5.16535143514991        4.18664522516472
H            5.54604702557422        3.95282425907076        4.22081500753361
H           -2.30118603385533       -3.20672774438467       -1.66809071790268
H           -2.40655106055203       -3.67062078259136       -0.04531839931406
H           -1.01102572548410       -2.66322647423532       -0.57270746221723
H           -5.08834486993067       -1.96245290967715        1.24911464330581
H           -5.52318106997533       -0.62337243680059        2.23976331445016
H           -5.21204409208093       -2.01530828878515        3.26119417960090
H           -4.55983240187535        3.62856466593359       -4.86061211499278
H           -5.90418291502608        2.51951898191557       -4.99116967449516
H           -4.32964200013918        1.74939679269620       -5.34104122399466
C           -1.56134670800923        4.27522333136891        4.16910299268759
C           -1.89785157156698        3.15630757331696        4.93083944061058
C           -0.88766401709647        2.55847404847849        5.82749406474957
C            0.35995033754786        3.22113993828576        5.93633161935944
C            0.65849651455916        4.43236240847189        5.30218412558147
C           -0.28214358729569        4.91164281489846        4.34124657895775
C           -1.05715614083547        1.22367401937376        6.28154193692051
C            0.07679288973232        0.36519333279279        6.27535704743502
C            1.30523237370706        1.03880687421203        6.11635798634058
N            1.45393684658202        2.36230135016661        5.99654398753724
C           -2.37648008285281        0.59471424150842        6.47201115773438
C           -2.43931447410143       -0.82731789827129        6.31030045643040
N           -1.33603775575456       -1.62425407289416        6.26929575071822
C           -0.17423639168784       -1.03745274905062        6.39691476493576
C            1.03355058997315       -1.74026316882225        6.38333868979229
C            2.28845961993855       -1.15302519870569        6.39721746481679
C            2.47800978393098        0.24833847405545        6.31195726269820
C           -3.51248809288284        1.30434549818594        6.87897143160378
C           -4.72770736728956        0.58556394006793        6.93650952194392
C           -4.90468764005299       -0.72825218480134        6.46844137184793
C           -3.74117120862736       -1.39581350164725        6.05696058747527
O           -3.40860943021522        2.64951565083981        7.46630910944869
O           -2.91437902356095        2.26924848564948        4.57621552364783
C            0.38331942571876        5.59626262765766        3.23128299948457
C           -6.23772087627641       -1.23925597744806        6.09043840341758
H            1.67237672013385        4.69105353066345        5.13181297630503
H           -1.87368277064802        4.25173494278103        3.20297872622670
H            3.46252836641714        0.48774855706500        6.08795353566483
H            1.01730676803101       -2.74500901032349        6.80184948717852
H           -3.74493192886661       -2.42991170401255        5.48189907955397
H           -5.47623798434443        1.21488597827394        7.23545965048770
O            1.23087050246585        6.43566726620678        3.53138909857343
O            0.01920597131649        5.16752468541200        1.99098291491821
C            0.31994162358297        6.17011725127146        1.10656112898557
C            3.55795674024016       -2.02663174673666        6.49626796977588
O            3.52008558748218       -3.19174092972099        6.85586399492033
O            4.70588893879045       -1.58905575619010        5.95311721212999
C            5.59330711730269       -2.61752532423144        5.65473310355734
O           -7.08656128769469       -0.45132392082383        6.36985421928634
O           -6.44946981731010       -2.43704925503436        5.37187436404612
C           -7.77438367612769       -2.90748985260014        5.48310679072319
C           -4.22541743227342        3.70770637026287        6.88819887474879
C           -2.82577464005548        1.79554537018968        3.18303256152462
H           -8.61035552545444       -2.07874591587771        5.36629476031222
H           -8.18615831032125       -3.02377247459735        6.55367211767502
H           -7.88086255902590       -3.92520375224577        4.96562638172522
H            5.64858970253313       -3.46811679021418        6.35044038761204
H            6.52376915279772       -2.14212114933924        5.67376429484859
H            5.47905239344474       -3.04029940884387        4.60153282990828
H           -3.86158114184820        1.56951783447734        2.96648452633263
H           -2.32644078149137        0.87092999118659        2.92182591518732
H           -2.58840482586124        2.58291392416834        2.47370690814337
H           -4.60670212612868        3.29506238763538        5.90307301240222
H           -3.60704167127386        4.62855313099818        6.80435863993432
H           -5.00513562948587        3.73790043472944        7.57505420449078
H           -0.45277003479163        7.04127242906724        1.05277039290227
H            0.55654822652340        5.67122332591726        0.09240411574483
H            1.15082865152381        6.78073473578132        1.35274648600318
116
 energy: -22.789139658541 gnorm: 0.422190642499 xtb: 6.6.1 (8d0f1dd)
C           -3.59367223906469       -0.07773965081374       -1.52568652784069
C           -2.65988363318571       -0.65513601499980       -0.65939589195441
C           -1.74643190167473        0.06285527510842        0.08192512855560
C           -1.38650029110747        1.32584607720276       -0.49179147855711
C           -2.24042642229571        1.85169382831340       -1.53765182978145
C           -3.28958143380756        1.15086550475371       -2.02682056046876
C           -1.10890894836295       -0.27174939610077        1.33776931926217
C            0.01416041100798        0.45171875700964        1.64037805017974
C            0.30629167009470        1.71118640194805        1.06261451562671
N           -0.36479415991071        2.12617225781536       -0.02732923319187
C           -1.29767072835892       -1.41399688987136        2.16029541724063
C           -0.19003227470492       -2.18819333911394        2.61077623053994
N            1.08775347537215       -1.67349944907235        2.54170471351688
C            1.06184101011145       -0.28660151025946        2.38242559599109
C            2.20846793445909        0.47452163386802        2.67855707236275
C            2.35952299825668        1.75065814457893        2.11000598220683
C            1.47058784952300        2.34904495800162        1.31379833336651
C           -2.56252297753965       -1.79833180375710        2.67560968170063
C           -2.70638533118754       -2.98901931381471        3.29490238086427
C           -1.58963730294706       -3.82468130266638        3.53872843306456
C           -0.37570315796564       -3.45158280826467        3.04520371620895
O           -3.51600731010219       -0.79433929278730        2.35866582214865
O           -2.37322827429705       -1.98233926484066       -0.66196301276153
C           -4.29281683825096        1.61496047958212       -3.16971377230845
C           -1.73429488366010       -5.12047608265651        4.26510710368925
H           -2.00780783029001        2.89800192972427       -1.89000074191208
H           -4.40840142762768       -0.58379921166650       -2.00098161683043
H            1.65881702751564        3.30663958946707        0.86441111116274
H            2.98395541865259        0.04422983826404        3.18618792771429
H            0.60335279007627       -3.90169829707956        3.12789489481695
H           -3.62264955830082       -3.30164197123358        3.81979830716344
O           -4.89696328036622        2.69534842076670       -3.00494472108461
O           -4.40091251939581        0.85439567075686       -4.31578848450452
C           -5.23283617072748        1.45822713347401       -5.21550053757248
C            3.63240545401223        2.71124679180363        2.32914453698115
O            4.49214355115555        2.51569814627253        3.17524001845264
O            3.72379679608272        3.79634880841065        1.52912461484004
C            4.83349386746533        4.50872617869128        1.97330310607379
O           -2.72911401743521       -5.33916192747573        4.84304204063560
O           -0.67375055404597       -6.06501575672705        4.05316414351626
C           -1.01622303758534       -7.29127414420359        4.67626583767435
C           -4.87478816235920       -1.27558949151363        2.67229269753471
C           -0.98022297085726       -2.23124475851188       -1.07735097669851
H           -0.24538001743212       -8.08328649734388        4.56354041800003
H           -2.09044602733426       -7.54213722472757        4.48981952963551
H           -0.81850536401693       -6.99754458796331        5.65916653130071
H            4.73388453292874        4.65768867267356        3.05448009954129
H            4.62810820983186        5.53556169648219        1.64416537771530
H            5.66830312999385        3.91826529018902        1.64688872633701
H           -0.50930135888649       -2.34558626375485       -0.00460306177145
H           -0.47380737611234       -1.45598841481887       -1.61875370924686
H           -0.98477759512574       -3.17791114207925       -1.64741730711077
H           -4.87587588195489       -2.17022589172682        2.00389488764889
H           -5.78431018777219       -0.62777675255997        2.34234516827072
H           -5.09259114940360       -1.76714562291028        3.59906468108141
H           -6.23072956061551        1.75151080567012       -4.73311212544290
H           -5.30796000830461        1.01733356302421       -6.23247974146160
H           -4.79055082504044        2.32542196319460       -5.57388427248202
C           -0.81171967235563        4.11432816714052        4.17723346330360
C           -1.41958081095346        2.93501196201936        4.48688896813510
C           -0.61725249105991        2.11413378056336        5.44757395471302
C            0.69552213236685        2.50149282635164        5.85054409935568
C            1.22623300315455        3.77518773513036        5.49463514884855
C            0.43196038302104        4.55962418087405        4.62978924582381
C           -1.13065545782923        0.75192907998070        5.68649810642625
C           -0.10584304980198       -0.24289562688561        5.95778341069029
C            1.20698854588880        0.17428511136546        6.28975383534883
N            1.54951000403202        1.50068501704651        6.31502088845926
C           -2.48118335336184        0.32390834334009        5.79318704098792
C           -2.74882326760545       -1.04228706495991        5.83250703784294
N           -1.85198593398279       -1.95117392870521        6.20102361277440
C           -0.49725511663326       -1.63848981090324        6.00542077597926
C            0.50300348379346       -2.59273847383169        6.40843337926334
C            1.70577481764637       -2.10076931142642        6.89705470218765
C            2.02037925681825       -0.76393573513835        6.98582267783134
C           -3.52514386155463        1.26754047985382        6.05143662622859
C           -4.84914088530342        0.73314423453437        6.01204034652044
C           -5.11161801240100       -0.65587721673355        5.85371857224678
C           -4.09355313092062       -1.53106554451622        5.79574018622745
O           -3.20505866151915        2.50437781705996        6.58459815158979
O           -2.56709563130057        2.56539907602147        3.84381478652478
C            0.84282291304498        5.93939270172122        4.13072595466996
C           -6.38413672457068       -1.22423288205191        5.85357244101174
H            2.21135254683492        4.13465236271899        5.69275222946259
H           -1.29502748152460        4.70015288549866        3.47463080933318
H            2.90370501087855       -0.44274807837174        7.38963950288322
H            0.34203600286038       -3.67991082616396        6.35378464695256
H           -4.21545484870226       -2.52546385976541        5.90649802088035
H           -5.66249374706413        1.42381046963982        6.12103729373659
O            1.97981087129886        6.02507910719762        3.69798412749956
O           -0.15324981096047        6.97472424774359        4.18275623675745
C            0.51385348949314        8.08783431604372        3.72788752057382
C            2.75689304403695       -3.04069142945824        7.29550564394980
O            2.46550768227202       -4.20952642388130        7.36024048047128
O            4.03686517996092       -2.52415193916778        7.52283032451689
C            5.00720476597344       -3.59116074073791        7.29687518413217
O           -7.34897630708413       -0.60424442891100        6.32469150643410
O           -6.47764031867703       -2.48137393764386        5.41548503805136
C           -7.81058305399681       -2.94438784443355        5.78491097380081
C           -4.39829980269030        3.21389676641102        7.09523893510629
C           -3.12962174716272        3.58913583487793        2.95380927696162
H           -8.62596537794515       -2.15312660881841        5.72600793807775
H           -7.81547009208671       -3.36100198906402        6.83096853106433
H           -7.72734583479308       -3.98217375712118        5.36982111112750
H            5.10560284522245       -3.96485359554407        8.31106716126284
H            6.02870399041232       -3.07649051787430        7.19699610150667
H            4.82730312920766       -4.26097769076262        6.47050011597578
H           -3.92204531163159        3.10276274102021        2.42476085397875
H           -2.37638958419003        3.95658042469049        2.27686078181201
H           -3.52277476039875        4.53158780042989        3.36068301714048
H           -5.27709311791209        3.26635539505634        6.31555439645644
H           -4.08353806448959        4.21740521387262        7.28576109824720
H           -4.76213532679929        2.79550304831737        8.02654539783216
H            1.24725869968125        8.26622637711557        4.51389399809107
H           -0.17806535276700        8.93937716695380        3.50777487080255
H            1.05800277947263        7.75653779313957        2.67540319945309
116
 energy: -22.816847989657 gnorm: 0.421250158053 xtb: 6.6.1 (8d0f1dd)
C           -3.85498087486494       -0.35170339966744       -1.75646281530303
C           -2.60789716391831       -0.78872705027400       -1.24406994190062
C           -1.87429938677193        0.19397908650428       -0.44967234533704
C           -1.91177342340872        1.59054993623774       -0.76176480298649
C           -2.95913025002682        1.91104377368143       -1.64948748126749
C           -3.89284675333761        1.00315679343407       -2.04885188955886
C           -1.14807317479898       -0.11336717191932        0.85840147180782
C           -0.11263272869824        0.75246987159551        1.14922056259704
C           -0.01080711376360        2.00344281764006        0.45808710337232
N           -0.96976688061875        2.44673487512484       -0.39215445251977
C           -1.20603691020762       -1.34081398536136        1.68087588014822
C           -0.07278277422495       -1.63476975546442        2.51606476534045
N            0.99632058942110       -0.79431173211770        2.74325442013383
C            0.95734423951877        0.34430604868178        2.02254837358594
C            2.06970160725309        1.24039403221863        2.19551888130887
C            2.09293373039458        2.48683010788058        1.59830142462142
C            0.96325017795608        2.92945440000793        0.80675029049322
C           -2.40399260287256       -2.10280679520792        1.89431699660043
C           -2.41547776978920       -3.26828295522905        2.56511400472952
C           -1.26687399488656       -3.72071167875498        3.22892468698749
C           -0.16472708806987       -2.80343992889100        3.29567822792935
O           -3.65841296845370       -1.52300005336494        1.68260981650350
O           -2.36478252308513       -2.08296682181280       -1.55553463584570
C           -4.92963700477783        1.57558027831135       -2.95281470535903
C           -1.16439469626695       -4.88558979959719        4.19081040946881
H           -2.99534201454599        2.97935230784446       -1.96386179287504
H           -4.59040205066258       -0.95273668779285       -2.24276719290558
H            0.99759656604013        3.88751792785821        0.21291211748390
H            2.91478156497323        0.90904839387512        2.71163392920486
H            0.53457442591113       -2.92137887177503        4.14265828062605
H           -3.38774090663198       -3.64443767573697        2.79930678241721
O           -4.72775360787508        2.72600170500288       -3.27533498816221