116
 energy: -22.928061455056 gnorm: 0.329736929581 xtb: 6.6.1 (8d0f1dd)
C           -3.31122850772930        0.79849766164622       -0.92477639677520
C           -2.44380812530352       -0.12270372891954       -0.27661132624697
C           -1.41337090092821        0.39579727573559        0.56335275196199
C           -0.89266158675590        1.65801491088749        0.27377586709581
C           -1.72665675402493        2.51431363229076       -0.49448366572522
C           -2.95444148494349        2.13954154133227       -1.01494489940871
C           -0.74098268209890       -0.43411532818871        1.49825021926784
C            0.56872586496315        0.03782116815119        1.86248088067890
C            1.03782416582094        1.29402317993033        1.50887470833621
N            0.31238977034758        2.07067427098208        0.65193736800696
C           -1.29695700510141       -1.39996043042223        2.41574187746061
C           -0.38243517664656       -2.18060797534842        3.13232615520648
N            0.91308504082021       -1.90366887689689        3.30325166013478
C            1.37712470144904       -0.74872102533751        2.81811050966982
C            2.52149331701875       -0.17739833758153        3.39379298866852
C            2.95849061756259        1.02681208890480        2.95105897606587
C            2.24288949469137        1.78498308775960        2.03503020483770
C           -2.74860936222260       -1.74497937691422        2.38401158947411
C           -3.09416315450955       -2.91614440870436        3.00571134491758
C           -2.16786021984049       -3.77788778654213        3.63251872101904
C           -0.85708937311598       -3.40495313382985        3.68547234358092
O           -3.71994433332149       -0.94984598373544        1.67726658385724
O           -2.55702603277562       -1.47241711578389       -0.57241635275616
C           -3.84297843593025        3.13357444054366       -1.60938954875544
C           -2.68769581069131       -5.03867041417370        4.30484659386931
H           -1.39666850744143        3.51251503834900       -0.76806311868865
H           -4.27662633836220        0.55105838579656       -1.33106614114542
H            2.66329581305412        2.73912661909249        1.72562431984580
H            3.05775395548473       -0.69369546277216        4.16536137542516
H           -0.24710966264510       -4.12034095424229        4.22946223699121
H           -4.11477991332403       -3.04712728052358        3.03244694615357
O           -4.21824883374556        4.03433712717988       -0.87713382485991
O           -4.44510595673734        2.90643496899600       -2.81853501752979
C           -5.44216520282800        3.83300025693726       -3.02488532025093
C            4.23586651889298        1.50004220933226        3.59165660008449
O            5.05927614697201        0.66079890002952        3.91714215179376
O            4.47001334453535        2.86385149488593        3.72605651435371
C            5.79457498613219        3.08584475587818        4.15829123132174
O           -3.82227255313510       -5.27347675879771        4.16636005494405
O           -1.85023202017753       -5.79767454267276        5.06656077253571
C           -2.55119635829503       -6.86252441382958        5.62930343183426
C           -5.07197156564436       -1.42399175670916        1.58830531863830
C           -1.33089900128490       -2.23622472573986       -0.99264499351172
H           -2.54510546830388       -7.76426885143998        4.99136022291012
H           -3.57194749219491       -6.44405511486021        5.74196173723541
H           -2.09133598235598       -7.02043774843818        6.64022264233588
H            5.72707967266424        3.46798026205549        5.10135971236643
H            6.34060091246885        3.78468702308830        3.50069950143490
H            6.17933064298187        2.03010500085905        4.19342358084693
H           -0.91862729772622       -2.57650129080332       -0.01361370304871
H           -0.49769766914251       -1.60651221708571       -1.34094446550576
H           -1.52632419730509       -2.94569707152159       -1.75361447637286
H           -5.11788846557077       -2.41810833635233        1.17520213188926
H           -5.67929807973498       -0.69619639428435        1.04301666067831
H           -5.57598832326623       -1.42383358739762        2.57928294206544
H           -6.13050215934830        3.76035386975488       -2.23272855695873
H           -5.86615610071888        3.45938329385866       -4.02668959924245
H           -5.13479557532099        4.87790991548477       -2.98314551356402
C           -1.38192942069774        3.73616555005018        2.91232598411686
C           -1.84821468128685        2.59982427735607        3.49755545445181
C           -1.05946531454833        2.05730632010638        4.60922730982276
C            0.19893954712228        2.69376791964407        4.86302140881997
C            0.50425395911860        3.94630308659851        4.28768785650746
C           -0.26031777722226        4.46998310053134        3.25072669343212
C           -1.20488993561782        0.74454293276906        5.14851520323437
C           -0.06287609782692        0.02744069315890        5.60930570802864
C            1.19208754369866        0.71421540266195        5.78882868583885
N            1.19428660993148        2.06344359410476        5.62744624321596
C           -2.41361422770794        0.07928500213936        5.25249410304426
C           -2.45851584031083       -1.32662100968547        5.60237876023992
N           -1.29466212405906       -1.98318595734370        5.89916817085159
C           -0.14475655767527       -1.32117560077092        5.98824682881008
C            0.97209270935794       -1.98958449505532        6.53157704134458
C            2.21982707914082       -1.36973967291181        6.68703967237737
C            2.30561929262884       -0.09745313075593        6.26436900324455
C           -3.73018485967715        0.71367583494582        5.25810242262992
C           -4.89964478833448       -0.06184623426677        5.21204641615509
C           -4.82617965800088       -1.39228978090841        5.46901303780036
C           -3.67144193418464       -1.98914944386360        5.67265433266067
O           -3.75568638935321        2.07705011038914        5.52067969627343
O           -2.94192434743730        1.91263938797883        3.01658762327703
C            0.21273512614467        5.50086066357994        2.34765104514621
C           -6.06660304520411       -2.17604633098929        5.80641622556876
H            1.41756699010566        4.38133362238595        4.66974005703471
H           -1.82880610647429        4.11982501512100        2.06992133318584
H            3.26888037378556        0.32655662585251        6.31721410015598
H            0.87146188387207       -3.08471526305024        6.57830423410869
H           -3.67716811065157       -3.05999292755990        5.83019634570050
H           -5.77379677507622        0.43595144608221        4.71017130754348
O            1.34459852619901        5.82615848916894        2.44941456579099
O           -0.74718748219123        6.07961784856304        1.59848183464284
C           -0.21473095568964        7.24015934882472        1.05753806029483
C            3.53228080814219       -2.00967610361154        7.02506769044485
O            3.64093082622715       -3.14437803815732        7.50071391725347
O            4.56565258381079       -1.22937033368332        6.69086985080897
C            5.72579357310716       -1.80692399125161        7.22246151275881
O           -7.04801223588612       -1.95726935745904        5.14194115322235
O           -6.01514389321278       -2.93743591896022        6.94765316328794
C           -7.21292732384718       -3.62681918543340        7.15115816329978
C           -4.95459780685163        2.65960679932188        5.86868674392943
C           -3.68284113682406        2.59129188358641        2.05479246020704
H           -7.43119628931628       -4.22607794725959        6.20622607140901
H           -8.06548455146707       -2.91765848248592        7.29781126410398
H           -7.07314693247270       -4.33087306029711        7.91223421050944
H            6.57332189837178       -1.29353136199234        6.78341268688262
H            5.74663761932316       -2.84282155125561        6.88089468184451
H            5.69426191474290       -1.72781984964892        8.29460302186842
H           -4.10481209541493        3.44288266176275        2.60483747673152
H           -4.49244774344916        1.87419893016926        1.82433103764650
H           -3.18901540870812        2.85154642679373        1.06781919454921
H           -5.55414326821421        2.76698137191684        4.93950725322359
H           -4.78658370641210        3.62090640967288        6.25983200635257
H           -5.43485580473958        1.97242995129449        6.65265772412460
H            0.89164886030839        7.38838561720231        1.13776105146914
H           -0.62894889903848        8.04195665205089        1.64837664327952
H           -0.59282546386754        7.45699159724320        0.03719083132488
116
 energy: -22.691908352418 gnorm: 0.477255316293 xtb: 6.6.1 (8d0f1dd)
C           -2.71002924802460        0.18013377869883       -2.22720191874750
C           -2.24045151808299       -0.63105489137125       -1.14469570330313
C           -1.75500161630153        0.06846639228418        0.02277205081394
C           -1.45052112444826        1.37447473859609        0.00355201228079
C           -2.09388970011566        2.12611535364472       -1.01306258554130
C           -2.73078213030910        1.55020549960535       -2.13501249043513
C           -1.15005112952485       -0.62223630484983        1.14796167091152
C            0.08038410958127       -0.10695564194692        1.67788056283350
C            0.47222421078976        1.29076041411307        1.46721334535504
N           -0.38759879818266        2.05143434028682        0.73188599633896
C           -1.64858204682734       -1.75391721640010        1.87110899039928
C           -0.85810761377294       -2.51573236915452        2.82310311146559
N            0.42712982808649       -2.10690360845124        3.03468429142715
C            0.91690658892927       -0.90874437815744        2.49222676778834
C            2.14500127703583       -0.23940458318419        2.83584919346910
C            2.55049819677575        1.12613612843918        2.70858772278183
C            1.62824522611063        1.98671717663739        1.96423089500812
C           -3.02075176187800       -1.97706722684640        2.04959164769921
C           -3.43251642784854       -3.13947654500309        2.56977403397056
C           -2.59018725150162       -4.03145291598444        3.19092444256639
C           -1.29799478717536       -3.64068223106698        3.40819421987223
O           -3.77100193231180       -0.92789467508292        1.43296534572850
O           -2.06651936549830       -2.01578014765937       -1.08124713765192
C           -3.29949427498014        2.43395747686112       -3.24358078955220
C           -2.98431423699116       -5.18998052781579        4.02411168577741
H           -1.86931457027546        3.18234629688831       -1.02128272106195
H           -2.99149016269575       -0.22455153581268       -3.17588946746740
H            1.86546306228647        2.90897548446006        1.43687067980386
H            2.77775205651724       -0.97330910430019        3.36393443314319
H           -0.71492257935842       -4.28733891880626        3.94035769552638
H           -4.55322888773064       -3.49244599570877        2.58848115243801
O           -2.73308586060128        2.60130704447003       -4.31797566304081
O           -4.45883202724870        3.10051362670224       -2.83635081237512
C           -5.00708704373822        3.95989627025010       -3.84659866717780
C            3.86927534930378        1.54950679459323        3.12228795348223
O            4.56246031203246        0.92077291839765        3.87901532348726
O            4.31480740910692        2.57654537825721        2.33216757196213
C            5.56460305966697        2.96363299787891        2.51313532121813
O           -3.79750354315568       -5.04548428941122        4.98032739199215
O           -2.08089846694049       -6.24021707435825        3.96711527047117
C           -2.51408109858130       -7.42388742832294        4.50724768523639
C           -5.09733843050722       -1.19125645169974        1.15240799214102
C           -0.87442923193766       -2.35043439160294       -1.77595732437599
H           -3.54239853769070       -7.85843601992916        4.24820653299956
H           -2.48939154850541       -7.39580157674619        5.67557339083382
H           -1.57722998339298       -8.00501209021158        4.27355353522800
H            5.78998600344740        3.46977640965193        3.45930900344898
H            5.76996101875443        3.51966245177098        1.55608575494124
H            6.33437775933082        2.27263783466626        2.73541986792856
H           -0.43155650802357       -3.24936138661043       -1.30296518184074
H           -0.13844750252451       -1.49340319879100       -1.73584868823914
H           -0.92652583302907       -2.50602469966905       -2.90288879918105
H           -5.22754953185701       -2.14714374669236        0.50375997728354
H           -5.60357860832179       -0.37569642352614        0.66178878662779
H           -5.53211558954579       -1.21463131542532        2.20294566997075
H           -4.38298520601002        3.80074660706077       -4.80871369219508
H           -5.20609105536274        5.03496194987910       -3.57273577005740
H           -6.08566996788497        3.56499915721129       -3.98516860112233
C           -1.61216145899987        4.04583030265903        3.67107017651956
C           -1.88707393889653        2.87982079643954        4.38144693267280
C           -0.87153119471575        2.28871443667204        5.25123944445244
C            0.44423461813341        2.90327135599656        5.04505190670228
C            0.67684932665334        4.10993850887137        4.50999208792671
C           -0.38051711824404        4.59418986772820        3.72504773766372
C           -0.99256983562032        1.04419789364092        5.87313925514602
C            0.20379855029678        0.37304795575441        6.25087309378871
C            1.43860877427648        1.03132049078330        6.08168830190408
N            1.51025240620677        2.32658454501075        5.67677168146935
C           -2.19929135177403        0.39913048177705        6.20748502156322
C           -2.17995279810655       -1.04062682708082        6.47046880921657
N           -1.07579206478147       -1.63560427266142        7.18799772735550
C            0.05985474546387       -0.90927299709405        6.97683511947859
C            1.21342593654427       -1.56991565647269        7.18582614668443
C            2.47232857580030       -1.04914525236318        7.21667743094642
C            2.59728408011579        0.31366713367756        6.75391391546116
C           -3.46032767094814        1.08348785832269        6.36775484712423
C           -4.60711835141483        0.26025629958736        6.46537438187967
C           -4.67381015906841       -1.08873211516876        6.20635723135231
C           -3.48860005701158       -1.72798983695244        6.37776121328691
O           -3.90203576194631        2.34234684448297        6.96542993550181
O           -3.07319686644573        2.24147775154681        4.26773612575791
C           -0.21284068345094        5.85463668271681        2.98669914749889
C           -6.11069317734872       -1.60238421084893        5.97342029466402
H            1.59359763371357        4.72752048988827        4.67830075406923
H           -2.36901824083664        4.24897343595047        2.92093923093777
H            3.57071044351520        0.70017096855724        6.87921687283421
H            1.15199654195349       -2.58107631671416        7.60689490353434
H           -3.43919053195703       -2.84808551671235        6.34592555276030
H           -5.49382220718347        0.92817644845525        6.72666049431210
O            0.61168335739796        6.54776473352615        3.57344101129416
O           -0.98947559467444        6.15504562162555        1.93508929243465
C           -0.90683801829557        7.57107038202802        1.58109299024553
C            3.74792858076564       -1.87873251582834        7.43918927234597
O            3.82434501371929       -3.01998806067668        7.00963743372533
O            4.81881765718296       -1.45857830056149        8.18926967525349
C            5.59617138209066       -2.59174542973976        8.36066302319905
O           -7.11927732896990       -1.02467763242261        5.62245647996022
O           -6.35820630815529       -2.89938108138562        6.46370989715689
C           -7.38283750132829       -3.65381330726053        5.86850469181459
C           -2.85870443344921        3.21675790213459        7.48568312267091
C           -3.87601950902059        2.04879764538152        3.15784277755617
H           -8.31533488290144       -2.97114231776025        5.62367649919141
H           -7.60846108365836       -4.56072835490512        6.25579278610958
H           -6.91094816422672       -3.93948355161027        4.90455562782240
H            5.09427262093345       -3.49520410653147        8.24774548454799
H            5.99765929831042       -2.61463046109538        9.41394146493958
H            6.41147857380650       -2.70965846805681        7.66682751968474
H           -3.44935786906431        1.28795208080937        2.54868171607355
H           -4.20884382078728        2.95860692920872        2.43245024218478
H           -4.92003697054520        1.75318761968580        3.41433771440589
H           -3.16050569663942        3.86556906493949        8.31296983141921
H           -2.73639834862606        3.94368433184677        6.67817682944945
H           -1.88885076014826        2.79583634675043        7.55992259526886
H           -1.95495709145367        7.89369084810779        1.61875885359141
H           -0.49823679382305        7.65158796020097        0.47661506036770
H           -0.29912548694501        7.97987335291549        2.46541990213923
116
 energy: -22.699738301518 gnorm: 0.458898165644 xtb: 6.6.1 (8d0f1dd)
C           -3.40984517699940        0.44336483083132       -1.82891062974494
C           -2.85653034469268       -0.35805736382101       -0.90451188644056
C           -1.67333030897704        0.08442865456541       -0.27705129959333
C           -0.97656696562108        1.19607250026734       -0.89112910941921
C           -1.66021220077725        1.98526402878863       -1.92325692011634
C           -2.74987375493052        1.47406858165532       -2.52069072246926
C           -1.16277128090166       -0.48611710750781        1.04510156076517
C            0.09278751065893       -0.04170290316939        1.38251249821682
C            0.63754767405219        1.09495184038042        0.75176727592784
N           -0.02424718937456        1.80757749902370       -0.20306711910398
C           -1.78831403160986       -1.37538816255838        1.93067159680380
C           -0.88255503114638       -2.17770073230076        2.65786799724288
N            0.45339623352515       -1.93568469201050        2.68217945167545
C            0.89567397660551       -0.82937671278922        2.27606733851453
C            1.98996639741103       -0.19560855684498        2.83957695572498
C            2.33484777797110        1.04568842845375        2.50875340177410
C            1.76533358153312        1.63375434637056        1.43240296539889
C           -3.19626984903447       -1.51600838008903        2.27723673376468
C           -3.59686624180894       -2.76550829492045        2.76957335782264
C           -2.68285456867992       -3.75847150723474        3.01549181367160
C           -1.36854250994561       -3.30424693680348        3.29217087581384
O           -3.91548978383624       -0.38024858547091        1.91857995288949
O           -3.53233579105816       -1.60260682437038       -0.54377653877637
C           -3.77047357638787        2.22896534941319       -3.43553878349449
C           -3.17063367039728       -4.93956078088219        3.85739698196231
H           -1.23829761696228        2.89063082686170       -2.24214054533570
H           -4.42640874842378        0.11126789797596       -1.98500708361087
H            2.10597882200183        2.54217283216438        1.02046808040224
H            2.63124479529321       -0.71071226031350        3.48083436499301
H           -0.71725318130574       -3.76656833390830        3.97567258804691
H           -4.60470919892440       -3.07593954784253        2.66227506623652
O           -4.98413705856502        2.33816854264997       -3.30572932894215
O           -3.26750082740575        2.85640687492472       -4.48941369782847
C           -3.94417036705666        4.03622514545645       -4.92456777071672
C            3.53978708348519        1.73559680099817        3.09450337344651
O            4.40717874750008        1.26345016853528        3.79448062912391
O            3.52925384795116        2.99836120289594        2.58389212147345
C            4.38873388430341        3.93079240540288        3.25193013981537
O           -3.68227177033934       -5.93199832701495        3.41543471212345
O           -3.07836095509039       -4.86804271478305        5.26211462998608
C           -2.98817364468292       -6.21703090054617        5.76355798764613
C           -5.31727944935871       -0.64942982072258        1.93842828841896
C           -2.66137118335313       -2.67872276169147       -0.67386414352198
H           -2.93026212631336       -6.89366219288386        4.90843323628064
H           -3.48273740681148       -6.55728289573563        6.60996621529384
H           -2.08323737411387       -6.02240740763455        6.27758120225860
H            4.11923453475602        4.52881521140724        4.13937634164621
H            4.48134029937878        4.84146588114874        2.72269141323166
H            5.36580838191995        3.37805126821799        3.39088375601887
H           -3.02381053508990       -3.68939512514963       -0.55009509912177
H           -1.85590763259532       -2.53628023346816        0.03020333077991
H           -2.16435119430134       -2.60932674469273       -1.69095565393244
H           -5.48355837185783       -1.62438215681260        1.43075821521687
H           -5.61091917587987        0.17208708412996        1.16373715591258
H           -5.85530857294152       -0.34198806051750        2.81913117061731
H           -3.18041030168320        4.72655272376144       -5.22381616996145
H           -4.49297797764005        4.35190406564846       -4.05132216478656
H           -4.58345317744500        3.59992237866022       -5.66842232388376
C           -1.47745333144488        3.95336996214891        3.78828832752055
C           -1.60734409280297        2.67056038866146        4.21161336980664
C           -0.59303244995755        1.93484186051439        4.89989726359766
C            0.66664627522706        2.67685477316810        5.05932045274872
C            0.86895105563612        3.80755225456968        4.29177608011752
C           -0.12730532030583        4.48115616287860        3.60034389890852
C           -0.80547983905557        0.77633762658189        5.72110731971541
C            0.30755656586367        0.25967257636939        6.41493763391272
C            1.52627769912192        1.05685335884217        6.41598132893569
N            1.61207667131780        2.27570812721672        5.86540018175285
C           -1.98152853198812        0.03908161439887        6.02088305898413
C           -1.95933425060150       -1.37870742848488        6.24211273127296
N           -0.88068698090800       -1.81519036519660        6.82233167668368
C            0.16921488234977       -1.02411056927422        6.99083643137030
C            1.44303963037049       -1.39590085207755        7.62278018275391
C            2.65085086459329       -0.86264689568472        7.20713795038715
C            2.71945451782040        0.43558976453715        6.71542148340421
C           -3.16892064018479        0.68381046389086        6.29016924189796
C           -4.35134550760030       -0.05293905560774        6.11687071462095
C           -4.27670142560027       -1.42472853592078        5.92197461199475
C           -3.06152020184927       -2.16433650567758        5.88620895125422
O           -3.21798619993423        2.01528893346707        6.69420393046878
O           -2.73562712464830        1.80367342317092        3.89981553601601
C            0.25319451778783        5.83317757796006        2.96358938859533
C           -5.49539870810350       -2.22092466884542        5.67688405708656
H            1.85174776146360        4.08199605801805        3.89590822364901
H           -2.30705037151197        4.51911671371089        3.26755190777387
H            3.58748892574338        0.80986900151129        6.26575890905465
H            1.52158026765588       -2.47510413524584        7.93288447463495
H           -3.13509538347211       -3.31722561093252        5.91107549953482
H           -5.18404433880712        0.49714904586473        5.71983336953466
O            1.31812965560098        6.38218143699251        2.90070436559577
O           -0.81139977911026        6.56547187204421        2.56328636321274
C           -0.52275670331269        7.74750957666478        1.95087251262913
C            3.84818804373553       -1.67391921198439        7.63169963060722
O            4.93528175695663       -1.22171159760715        7.54855031763837
O            3.53083045215231       -2.81440584258194        8.30832779951357
C            4.71326523383013       -3.44533930749780        8.90434624653569
O           -6.64386142113400       -1.74555862990602        5.47144607368094
O           -5.27488246208049       -3.60307353447367        5.52695327977252
C           -6.42814182888535       -4.26864356278548        5.95773705881998
C           -2.14138141482250        2.47642324657463        7.61371341243484
C           -3.88793706698161        2.38752251395068        3.40803488709061
H           -6.45722733312506       -5.45822899290623        5.86695253733449
H           -7.39500340417520       -3.81057258583046        5.55727879621256
H           -6.44075749696539       -4.17474627195394        7.01927170188145
H            5.67330785382490       -3.20082731680962        8.33811741453336
H            4.68974854337373       -4.60538831069115        8.77478640621339
H            4.77181129131447       -3.11227665823479       10.07334825052565
H           -3.88488889188930        2.43602372934350        2.22309716365700
H           -3.98753497297775        3.30995948681024        3.90258738536701
H           -4.71416720185424        1.63109702368188        3.66216491564928
H           -1.15578580074514        2.31590180247899        7.27222373487808
H           -2.31553818798512        2.02736318238137        8.54241873858151
H           -2.18131203035804        3.56500701782936        7.76508500004722
H           -0.56124468243886        7.87566660465888        0.90175011978471
H            0.59700277251202        7.86967908368350        2.31137825078265
H           -1.24346959588949        8.37124373077439        2.38482655147784
116
 energy: -22.717493854405 gnorm: 0.482902377789 xtb: 6.6.1 (8d0f1dd)
C           -3.28789808536005       -0.10575009949373       -1.80329794812563
C           -2.57080924185989       -0.67864752796261       -0.75909868772518
C           -1.71878269429432        0.18145114879388        0.04828032578742
C           -1.44131223496201        1.46972915273052       -0.45194119090557
C           -2.16451888154083        1.93288872107125       -1.50456119868545
C           -2.99389606685754        1.14759287536643       -2.23662178093752
C           -1.31374588841828       -0.18474403483803        1.39414089246704
C           -0.08372378998169        0.51035174125733        1.72578648762028
C            0.31132590736788        1.64813282556025        1.03889881557161
N           -0.49384716151311        2.26419433435081        0.07674052276294
C           -1.70990254536663       -1.39923258319826        2.08100241876030
C           -0.71813127486048       -1.98437651443271        2.82310304187807
N            0.53545666362821       -1.38412280340629        2.85872586249248
C            0.79116774129726       -0.14897241390950        2.57748680991403
C            1.95461217021100        0.55351065556291        2.87303850680898
C            2.36201162457284        1.73832791383902        2.22286811878782
C            1.44236596618214        2.35183663717219        1.34078357588632
C           -3.07814679859616       -1.88734299391296        2.45569815853017
C           -3.25261266765285       -3.17782919887981        3.09681025957205
C           -2.10702779326301       -3.66398239937743        3.78767849351770
C           -0.92855679545717       -3.06751298420119        3.69337911305533
O           -4.09350650121313       -1.05835645155123        1.94002924857322
O           -2.56793028755196       -2.03982034409215       -0.69231281230505
C           -3.36655012824698        1.81420831984793       -3.53581564630053
C           -2.37795393667609       -4.97151487998557        4.37494699978358
H           -1.87270385754685        2.90154394932864       -1.82503980002680
H           -3.84134297471088       -0.69324941174256       -2.53993493569855
H            1.67647395314661        3.36381125296430        1.02461990932088
H            2.79108377841080        0.06847789368798        3.35123228659800
H           -0.10722566694483       -3.69058949128220        3.96910394912373
H           -4.13600111148164       -3.76563555026706        2.98279513038198
O           -3.76711663693522        1.19977924507052       -4.50775853526052