156
 energy: -222.318585607699 gnorm: 0.089092880705 xtb: 6.7.1 (edcfbbe)
C           -1.30970000000000        1.68420000000000        0.65450000000000
C           -0.99550000000000        0.34950000000000        0.37360000000000
C            0.27930000000000       -0.15170000000000        0.81140000000000
C            1.26540000000000        0.80080000000000        1.16940000000000
C            0.90750000000000        2.11750000000000        1.39710000000000
C           -0.39280000000000        2.56470000000000        1.19970000000000
C            0.62890000000000       -1.55040000000000        0.77070000000000
C            2.01130000000000       -1.88670000000000        0.58060000000000
C            3.02480000000000       -0.92060000000000        0.76080000000000
C            2.68150000000000        0.43380000000000        1.18760000000000
C           -0.32850000000000       -2.61970000000000        0.88530000000000
C            0.01520000000000       -3.91460000000000        0.43170000000000
C            1.38340000000000       -4.22610000000000        0.01930000000000
C            2.39200000000000       -3.18120000000000        0.16980000000000
C            3.72240000000000       -3.46150000000000       -0.09240000000000
C            4.72040000000000       -2.51020000000000        0.07130000000000
C            4.34530000000000       -1.24830000000000        0.50890000000000
C           -1.60740000000000       -2.45360000000000        1.51530000000000
C           -2.53630000000000       -3.49660000000000        1.42800000000000
C           -2.22660000000000       -4.72410000000000        0.87390000000000
C           -0.93140000000000       -4.92360000000000        0.41550000000000
O           -1.84880000000000       -1.30340000000000        2.24450000000000
O           -1.81320000000000       -0.48090000000000       -0.37380000000000
O            3.54670000000000        1.24580000000000        1.47890000000000
O            1.68790000000000       -5.34090000000000       -0.37930000000000
C           -3.19070000000000       -1.09470000000000        2.61390000000000
C           -2.97830000000000        0.12370000000000       -0.88250000000000
C           -3.30090000000000       -5.81930000000000        0.80480000000000
C           -2.73060000000000       -7.13840000000000        0.25040000000000
C           -4.43800000000000       -5.34700000000000       -0.11780000000000
C           -0.81170000000000        4.01040000000000        1.49210000000000
C           -2.04120000000000        3.99940000000000        2.41840000000000
C            0.31970000000000        4.79200000000000        2.18580000000000
C           -1.16140000000000        4.71790000000000        0.17180000000000
C            6.19190000000000       -2.79760000000000       -0.25670000000000
C            7.08080000000000       -2.40990000000000        0.94000000000000
C            6.59600000000000       -1.96890000000000       -1.48860000000000
C            6.42230000000000       -4.28900000000000       -0.56630000000000
H            6.48280000000000       -0.90260000000000       -1.29780000000000
H            5.97130000000000       -2.22260000000000       -2.34430000000000
H            7.63450000000000       -2.15360000000000       -1.76100000000000
H            8.12810000000000       -2.62620000000000        0.73160000000000
H            6.79530000000000       -2.96640000000000        1.83120000000000
H            7.00290000000000       -1.34840000000000        1.16850000000000
H            7.47610000000000       -4.48490000000000       -0.76180000000000
H            5.86340000000000       -4.59890000000000       -1.44840000000000
H            6.11900000000000       -4.91410000000000        0.27290000000000
H            3.96170000000000       -4.45250000000000       -0.42990000000000
H            5.08430000000000       -0.47910000000000        0.63950000000000
H           -0.62410000000000       -5.88150000000000        0.03920000000000
H           -3.51420000000000       -3.35640000000000        1.84510000000000
H           -3.50140000000000       -7.90750000000000        0.21310000000000
H           -1.92350000000000       -7.50970000000000        0.88100000000000
H           -2.34800000000000       -7.00660000000000       -0.76100000000000
H           -4.89580000000000       -4.43320000000000        0.25860000000000
H           -5.21710000000000       -6.10440000000000       -0.19690000000000
H           -4.06060000000000       -5.14330000000000       -1.11930000000000
H           -3.26530000000000       -0.09790000000000        3.04790000000000
H           -3.49520000000000       -1.82840000000000        3.35910000000000
H           -3.83400000000000       -1.15080000000000        1.73570000000000
H           -3.51430000000000       -0.61170000000000       -1.48320000000000
H           -2.71150000000000        0.97050000000000       -1.51600000000000
H           -3.62260000000000        0.44620000000000       -0.06420000000000
H           -2.29020000000000        2.04850000000000        0.41720000000000
H            1.68270000000000        2.79320000000000        1.70800000000000
H           -1.44860000000000        5.75380000000000        0.34920000000000
H           -1.98910000000000        4.22290000000000       -0.33420000000000
H           -0.30670000000000        4.71510000000000       -0.50380000000000
H            0.62970000000000        4.29300000000000        3.10290000000000
H           -0.00460000000000        5.80000000000000        2.44200000000000
H            1.18880000000000        4.88520000000000        1.53570000000000
H           -2.34100000000000        5.01230000000000        2.68500000000000
H           -1.81980000000000        3.45520000000000        3.33480000000000
H           -2.89350000000000        3.51630000000000        1.94350000000000
C           -3.85720000000000       -6.08830000000000        2.21460000000000
H           -4.58000000000000       -6.90320000000000        2.20370000000000
H           -4.35410000000000       -5.20860000000000        2.61950000000000
H           -3.05120000000000       -6.35560000000000        2.89690000000000
C           -1.78630000000000        2.44640000000000        5.74770000000000
C           -2.07560000000000        1.12280000000000        5.38900000000000
C           -0.99860000000000        0.16930000000000        5.38980000000000
C            0.32130000000000        0.68040000000000        5.41910000000000
C            0.54810000000000        2.01350000000000        5.71210000000000
C           -0.49460000000000        2.90270000000000        5.94100000000000
C           -1.19980000000000       -1.25790000000000        5.32590000000000
C           -0.12250000000000       -2.07550000000000        4.84120000000000
C            1.18920000000000       -1.56430000000000        4.74860000000000
C            1.46630000000000       -0.19190000000000        5.16320000000000
C           -2.40620000000000       -1.92000000000000        5.75710000000000
C           -2.68870000000000       -3.22810000000000        5.29040000000000
C           -1.66310000000000       -4.01670000000000        4.60910000000000
C           -0.33200000000000       -3.42810000000000        4.49600000000000
C            0.73290000000000       -4.21550000000000        4.09470000000000
C            2.02900000000000       -3.72420000000000        4.02940000000000
C            2.22920000000000       -2.38890000000000        4.35540000000000
C           -3.30170000000000       -1.36240000000000        6.73440000000000
C           -4.55320000000000       -1.96790000000000        6.90520000000000
C           -4.89540000000000       -3.15660000000000        6.28580000000000
C           -3.92380000000000       -3.80200000000000        5.53270000000000
O           -2.85710000000000       -0.31190000000000        7.51810000000000
O           -3.33490000000000        0.71160000000000        4.98780000000000
O            2.61180000000000        0.21280000000000        5.28840000000000
O           -1.89630000000000       -5.14410000000000        4.20040000000000
C           -3.76810000000000        0.14150000000000        8.49010000000000
C           -4.33150000000000        1.70590000000000        5.01740000000000
C           -6.29170000000000       -3.75650000000000        6.50090000000000
C           -6.50750000000000       -5.01470000000000        5.63730000000000
C           -7.35840000000000       -2.71650000000000        6.11010000000000
C           -0.24890000000000        4.31700000000000        6.49090000000000
C           -0.65230000000000        4.33400000000000        7.97560000000000
C            1.23490000000000        4.71780000000000        6.37540000000000
C           -1.08770000000000        5.35600000000000        5.72420000000000
C            3.20970000000000       -4.67490000000000        3.78380000000000
C            4.45270000000000       -3.89890000000000        3.31060000000000
C            2.85820000000000       -5.72770000000000        2.71460000000000
C            3.53990000000000       -5.39030000000000        5.10450000000000
H            2.53850000000000       -5.25400000000000        1.79040000000000
H            2.05950000000000       -6.38850000000000        3.04620000000000
H            3.72130000000000       -6.35150000000000        2.48570000000000
H            5.24870000000000       -4.58250000000000        3.01780000000000
H            4.84690000000000       -3.25870000000000        4.09840000000000
H            4.21080000000000       -3.27330000000000        2.45420000000000
H            4.37930000000000       -6.07350000000000        4.98060000000000
H            2.68480000000000       -5.96520000000000        5.45820000000000
H            3.80020000000000       -4.66970000000000        5.87900000000000
H            0.52960000000000       -5.24610000000000        3.87030000000000
H            3.21490000000000       -1.96170000000000        4.33980000000000
H           -4.10240000000000       -4.78210000000000        5.13210000000000
H           -5.26720000000000       -1.51160000000000        7.56280000000000
H           -7.51820000000000       -5.40140000000000        5.76340000000000
H           -5.81670000000000       -5.80880000000000        5.91770000000000
H           -6.36740000000000       -4.79130000000000        4.58010000000000
H           -7.29250000000000       -1.82510000000000        6.73180000000000
H           -8.36170000000000       -3.12600000000000        6.22290000000000
H           -7.23360000000000       -2.41030000000000        5.07200000000000
H           -3.30260000000000        0.95670000000000        9.04500000000000
H           -4.00640000000000       -0.66660000000000        9.18280000000000
H           -4.67230000000000        0.51480000000000        8.00850000000000
H           -5.27180000000000        1.26410000000000        4.68610000000000
H           -4.06820000000000        2.52110000000000        4.34280000000000
H           -4.45810000000000        2.07550000000000        6.03520000000000
H           -2.59750000000000        3.13350000000000        5.88790000000000
H            1.57130000000000        2.33420000000000        5.78000000000000
H           -0.89240000000000        6.36100000000000        6.09680000000000
H           -2.15520000000000        5.17130000000000        5.82980000000000
H           -0.84470000000000        5.34250000000000        4.66440000000000
H            1.86670000000000        4.07250000000000        6.98430000000000
H            1.38700000000000        5.74030000000000        6.71930000000000
H            1.57740000000000        4.65990000000000        5.34320000000000
H           -0.48560000000000        5.31640000000000        8.41590000000000
H           -0.07080000000000        3.60610000000000        8.54040000000000
H           -1.70560000000000        4.08380000000000        8.09580000000000
C           -6.45590000000000       -4.14040000000000        7.98140000000000
H           -7.43490000000000       -4.58250000000000        8.16350000000000
H           -6.35620000000000       -3.26990000000000        8.62820000000000
H           -5.69770000000000       -4.86470000000000        8.27690000000000
156
 energy: -222.331426594928 gnorm: 0.036954902877 xtb: 6.7.1 (edcfbbe)
C           -1.30211350117278        1.68452321122151        0.65157060308715
C           -0.98833817090648        0.35664391581696        0.38609145766889
C            0.27638805934615       -0.15454394553038        0.79940245519285
C            1.25722021022146        0.79529370409217        1.16707010235922
C            0.91120980815326        2.11965718583174        1.39423728194634
C           -0.38495249311944        2.57082944397298        1.20374412096950
C            0.62053189872261       -1.54817406325691        0.77207625956956
C            1.99741072208664       -1.88165160960324        0.58176917773843
C            3.01498485966496       -0.91883345323192        0.75346591634610
C            2.68064481601680        0.43472113296631        1.20749582789655
C           -0.32833543037814       -2.61585995333239        0.89709999110189
C            0.01112408409911       -3.90842900046214        0.43634947461937
C            1.37427878849717       -4.22317927024366       -0.00675491757765
C            2.38283619575548       -3.17348360858121        0.16952874459686
C            3.71739595592294       -3.45777884121794       -0.09863068085118
C            4.72177539889158       -2.50880300685613        0.05908714950774
C            4.34064712657383       -1.24457954338261        0.49862520511293
C           -1.60562086884357       -2.46884133296567        1.50948352447990
C           -2.53035645738808       -3.50409228153077        1.43111193462744
C           -2.22493770974504       -4.73729272098439        0.87071468852902
C           -0.92867267080264       -4.92987516340610        0.41757143424232
O           -1.85570938716667       -1.32110580413149        2.21266032772023
O           -1.80749620542894       -0.46654701934105       -0.34437312213303
O            3.54713347243494        1.25285173812467        1.49027650289588
O            1.67511032761863       -5.33758371415707       -0.42547275494888
C           -3.19265120616919       -1.10043897387458        2.59482118073627
C           -2.97228956811307        0.11945022046346       -0.87722328035627
C           -3.29718137536061       -5.82317995047467        0.80057422799941
C           -2.73253793143620       -7.13725204569932        0.24866600990153
C           -4.42975280727400       -5.34369347455803       -0.12012466220142
C           -0.80755203283558        4.00854701102591        1.49368271029117
C           -2.03741745694403        3.99449607509242        2.41446192305231
C            0.31617431054006        4.79183955495732        2.18286078339285
C           -1.15908914785049        4.71200280948771        0.17395477861080
C            6.18845896948789       -2.80090623545650       -0.25479820595620
C            7.07393133088513       -2.40959348457368        0.93876372378185
C            6.58932099355366       -1.96945853819547       -1.48291623449628
C            6.42181494720481       -4.28538759108662       -0.56465944186141
H            6.47746505879763       -0.90459941496342       -1.28993681669949
H            5.96668343294043       -2.22688449558796       -2.33814209796379
H            7.62817020449100       -2.16005489211876       -1.74657711694478
H            8.11760870904174       -2.62952596096545        0.72003500996993
H            6.78731639344545       -2.96775956515715        1.82713675626292
H            6.99765110080100       -1.34923798250053        1.16515598842559
H            7.47847471371503       -4.46502089147841       -0.75468018355327
H            5.86948697959821       -4.59399073106869       -1.44978306183351
H            6.11983082948168       -4.90845328891206        0.27487155098596
H            3.94730889709973       -4.45597854785245       -0.43183395127919
H            5.07789295050322       -0.47170322545519        0.64914196499762
H           -0.60765814832135       -5.88412249250431        0.03717395026243
H           -3.51147558195570       -3.36122149651882        1.84857211461930
H           -3.51375537354413       -7.89460331168761        0.21851521692025
H           -1.93086693847014       -7.50728480985299        0.88409030852519
H           -2.35280171253297       -7.00661807943168       -0.76268068920626
H           -4.88797224848815       -4.43216751313507        0.25893900714256
H           -5.20391538719089       -6.10574793062373       -0.19236562626017
H           -4.05101941242591       -5.14351006456288       -1.12085371281639
H           -3.23608688320662       -0.10308629434800        3.02567871501622
H           -3.51103741322176       -1.81741955325014        3.35477237422114
H           -3.85623050189055       -1.15389206149039        1.72796640963839
H           -3.47872424006624       -0.64160313621820       -1.47170495909362
H           -2.72102459533219        0.96588144029027       -1.52341960475508
H           -3.64349476054971        0.44968696715316       -0.07899879904128
H           -2.28464396111273        2.05070529551906        0.40806131474085
H            1.69685845409642        2.78555585452318        1.70627413788794
H           -1.44470600872040        5.74611351609407        0.35946775198560
H           -1.98709912113372        4.21875302920292       -0.33098863141911
H           -0.30274006420240        4.70910577896345       -0.49763305972739
H            0.62409938909304        4.29116654396406        3.09874608165837
H           -0.02244669417879        5.79639655553940        2.43220445560505
H            1.18077094952747        4.88893635521565        1.53005198282629
H           -2.33100512031520        5.01067657680131        2.67388943325956
H           -1.80947658414123        3.45142569334490        3.33003829140292
H           -2.88882015024910        3.51508927183002        1.93529241051640
C           -3.86006680467711       -6.09035993163360        2.20341448039867
H           -4.58087797255329       -6.90574318931404        2.17904159096974
H           -4.35860699962735       -5.21137282409118        2.60555719887450
H           -3.05574066738872       -6.35584982730000        2.88351479755443
C           -1.77898649318482        2.44616295490033        5.75598016692666
C           -2.06139239814607        1.12942351342381        5.40989475184097
C           -1.00621378266215        0.17045209295942        5.38625848406729
C            0.31172596406523        0.68112316841634        5.41907221800001
C            0.55273869557053        2.01531523984136        5.71380407821173
C           -0.48292013377241        2.90382809620369        5.96098635586395
C           -1.20506811569054       -1.25077032534601        5.32869653273584
C           -0.13234520404647       -2.06367685375592        4.84357859520162
C            1.17991021936700       -1.55876848476247        4.74200671001177
C            1.47020379032324       -0.18633096013620        5.16556584567475
C           -2.39999882795488       -1.91423343549419        5.76824671255793
C           -2.68607126820089       -3.21786769617772        5.29635925291686
C           -1.66468410235173       -4.01178129606012        4.60251320586521
C           -0.33278534987835       -3.41762685598890        4.50375077526270
C            0.73384161286279       -4.21386346254858        4.10673846871138
C            2.03585279750343       -3.73024093459213        4.04768680313284
C            2.22716805622749       -2.38730211233314        4.35807005538494
C           -3.30850437074273       -1.37047443193906        6.72382710070768
C           -4.54880193111914       -1.97395254839044        6.90540568675694
C           -4.89739951562650       -3.16640071596713        6.28134924185410
C           -3.92018746648457       -3.80756076531099        5.53686241331174
O           -2.87880964935300       -0.31795502608320        7.49022330944399
O           -3.31842917312729        0.72501579205234        5.03331099877730
O            2.61834065036526        0.22097530762959        5.28864708725712
O           -1.88889361540197       -5.15503097626277        4.22077501074720
C           -3.76589011940831        0.14269860588152        8.48206553149034
C           -4.32979685418845        1.70573778061496        5.02930757256699
C           -6.28934801923372       -3.75793616434278        6.49556462695185
C           -6.50879304610202       -5.01196322229820        5.63935741924775
C           -7.35194151735923       -2.71664222868652        6.10926416622720
C           -0.24347564389389        4.31827098103330        6.48867763341866
C           -0.65154121255812        4.32793837967580        7.97004428137133
C            1.23290087681175        4.71919910813295        6.37630876510707
C           -1.08432770065351        5.35436783862439        5.72761785801056
C            3.20985413677834       -4.67235224365084        3.78459500520336
C            4.45041731856598       -3.90073818122994        3.31737623866904
C            2.86134218372069       -5.72955081107308        2.72817960779264
C            3.53186076570853       -5.38360311221673        5.10752085137574
H            2.54530703823321       -5.25778437860634        1.80681437571651
H            2.06661377662149       -6.39221576979657        3.06019619285365
H            3.73083018290084       -6.34517946938077        2.50731502096923
H            5.23361360411544       -4.59783766973514        3.02495121616282
H            4.84999915057194       -3.26912006148276        4.10785080070415
H            4.20914713742344       -3.27698129995900        2.46140544067559
H            4.37102743431343       -6.06360302286937        4.97178144165762
H            2.67708171567869       -5.96034108603091        5.45633817429354
H            3.79529356189347       -4.66233755266788        5.87929075186966
H            0.51790139243057       -5.24288218898776        3.86865836759867
H            3.21161171016725       -1.94979443246734        4.34072717144222
H           -4.08623717780691       -4.78916672873212        5.12811268257549
H           -5.26422592051177       -1.51708513846571        7.56689392635523
H           -7.52240552708785       -5.38419331630549        5.77549375233894
H           -5.82279740290719       -5.80662874479657        5.92359710264557
H           -6.37079595187946       -4.78860183892233        4.58333866927761
H           -7.28845989746933       -1.82743215235736        6.73233789886736
H           -8.35030852393667       -3.13436823744365        6.22543048041075
H           -7.22675254852230       -2.41428058895721        5.07101901501756
H           -3.26702446859361        0.95203584158191        9.01603703172422
H           -4.00590517742754       -0.65431738321855        9.19187520816246
H           -4.68525355811634        0.52719539424399        8.03052637819195
H           -5.24903323707434        1.22632936402861        4.68898161362092
H           -4.08157371125164        2.52250157934309        4.34504331970399
H           -4.48608829007516        2.09876458908737        6.03711678732014
H           -2.59296060447659        3.13794068085107        5.88491156189925
H            1.58197472189894        2.32622874432201        5.76572214922380
H           -0.88146853521013        6.35369538864820        6.10828646346128
H           -2.15109581711621        5.17285542728142        5.83643681507512
H           -0.83869069481981        5.33883976337421        4.67023475027753
H            1.86177952708009        4.07826467661970        6.98976081907188
H            1.36814538719571        5.74283698283486        6.72015805401360
H            1.57393800932330        4.66138136710366        5.34489254201338
H           -0.48237575160608        5.31277214179125        8.40160271231216
H           -0.06720262149209        3.60182612628860        8.53213136936934
H           -1.70503244190265        4.08000783284604        8.08808751129515
C           -6.45199066027596       -4.13699484120443        7.97531105345209
H           -7.43209859111867       -4.57776215013595        8.14856677434924
H           -6.35472183959649       -3.26710117123804        8.62159663507560
H           -5.69472952818027       -4.86222543456569        8.26710934863345
156
 energy: -222.335841893782 gnorm: 0.013155973190 xtb: 6.7.1 (edcfbbe)
C           -1.29337521929581        1.68947075122152        0.64797564792778
C           -0.98285326789379        0.36637543481150        0.39480380006608
C            0.27266864480433       -0.15624526101741        0.79842861433073
C            1.25111955707906        0.78998122386067        1.16965612781876
C            0.91630739995273        2.12070247547609        1.39608591233098
C           -0.37457832790232        2.57851857413505        1.20621645990952
C            0.61153834679622       -1.54719680971156        0.77435450490958
C            1.98413172616148       -1.87787423696328        0.58098098326302
C            3.00585362219038       -0.91996968875994        0.75201246673325
C            2.68015749265987        0.43734151561774        1.21171562892932
C           -0.33084908397166       -2.61506505199262        0.90230149947606
C            0.00873028617024       -3.90534940106500        0.43825999942057
C            1.36813553878802       -4.22101213164672       -0.02507030163532
C            2.37342853217255       -3.16586301090955        0.16423312629794
C            3.70933687903123       -3.45300584110739       -0.10587604153881
C            4.71833862598474       -2.50900886511550        0.05503689485771
C            4.33308646955595       -1.24545566390414        0.49990619541000
C           -1.60892564604662       -2.48441801718637        1.50467108069968
C           -2.52577999470543       -3.51769373465082        1.43351584660795
C           -2.22018705840274       -4.75442180652944        0.86901478874022
C           -0.92364959957584       -4.93759057401780        0.41773809897630
O           -1.86788867177089       -1.33762484200407        2.18592800295074
O           -1.80538697817098       -0.45459217928912       -0.31630330771491
O            3.54422377736852        1.25105566452064        1.51122202981185
O            1.66117041028616       -5.32208800106038       -0.48746502904334
C           -3.19649826061964       -1.09662468655114        2.58201977629718
C           -2.96869359953456        0.10604182273828       -0.87720833069470
C           -3.29262153030034       -5.82834975835153        0.79370981751286
C           -2.73779271504270       -7.14236540024823        0.24419001307123
C           -4.41983758553629       -5.34147363350737       -0.12863629715284
C           -0.80213736299354        4.00775857831908        1.49257944883671
C           -2.03215733983736        3.98973712101595        2.41077679211657
C            0.31275777407675        4.79647841912496        2.18026572620887
C           -1.15497865842842        4.70850626465796        0.17294065474748
C            6.17931036768991       -2.80019675137744       -0.25374594544013
C            7.06372627756987       -2.40952625056170        0.93824285157849
C            6.58270661036262       -1.96834257435809       -1.47967239636708
C            6.42070722801494       -4.27967068063615       -0.56291368766127
H            6.46978896614055       -0.90528320129708       -1.28400565926095
H            5.96177978859664       -2.22778240047661       -2.33467511488660
H            7.62225722002943       -2.16172270466502       -1.73726629930537
H            8.10487575236256       -2.63174912386813        0.71196312320161
H            6.77771770572364       -2.96880262985690        1.82521402744304
H            6.98892557394258       -1.35015202369558        1.16354906532826
H            7.48032358963831       -4.44630860731248       -0.74669134643404
H            5.87613129362769       -4.59029607986253       -1.45090002378605
H            6.11998628821271       -4.90405972308953        0.27489717509507
H            3.92779269676547       -4.45596665902849       -0.43831028172352
H            5.06417224495543       -0.46561176784082        0.65785090446069
H           -0.58655051608801       -5.88513620013604        0.03080249962575
H           -3.50780507616759       -3.37670641617600        1.85275153607664
H           -3.52717584710251       -7.89067699459790        0.21765859712532
H           -1.94056737247729       -7.51379702474464        0.88234442582268
H           -2.35777706897445       -7.01464311630908       -0.76625190102047
H           -4.87515734433789       -4.43041609004972        0.25264057382341
H           -5.19345116575560       -6.10371938224214       -0.19829192384927
H           -4.03863548859784       -5.14267592323035       -1.12780770647237
H           -3.20526825075538       -0.09503527448569        3.00515474370831
H           -3.52708987803645       -1.79945917688691        3.35333512855052
H           -3.87781268405197       -1.14820450851229        1.72598080084437
H           -3.43978773942383       -0.68514995524439       -1.46285057771272
H           -2.72881533005312        0.94779541558539       -1.53726346671179
H           -3.66786852484063        0.44504041884019       -0.10240508999112
H           -2.27489714878101        2.05847267056741        0.39781022060148
H            1.71426333001107        2.77345131714134        1.70863756915337
H           -1.43998252101037        5.74127975856758        0.36382986725777
H           -1.98294374071797        4.21544005318804       -0.33019979573203
H           -0.29779923083499        4.70469960701032       -0.49614681366976
H            0.62193709890699        4.29639902471752        3.09503031273707