116
 energy: -22.928061455056 gnorm: 0.329736929581 xtb: 6.6.1 (8d0f1dd)
C           -3.31122850772930        0.79849766164622       -0.92477639677520
C           -2.44380812530352       -0.12270372891954       -0.27661132624697
C           -1.41337090092821        0.39579727573559        0.56335275196199
C           -0.89266158675590        1.65801491088749        0.27377586709581
C           -1.72665675402493        2.51431363229076       -0.49448366572522
C           -2.95444148494349        2.13954154133227       -1.01494489940871
C           -0.74098268209890       -0.43411532818871        1.49825021926784
C            0.56872586496315        0.03782116815119        1.86248088067890
C            1.03782416582094        1.29402317993033        1.50887470833621
N            0.31238977034758        2.07067427098208        0.65193736800696
C           -1.29695700510141       -1.39996043042223        2.41574187746061
C           -0.38243517664656       -2.18060797534842        3.13232615520648
N            0.91308504082021       -1.90366887689689        3.30325166013478
C            1.37712470144904       -0.74872102533751        2.81811050966982
C            2.52149331701875       -0.17739833758153        3.39379298866852
C            2.95849061756259        1.02681208890480        2.95105897606587
C            2.24288949469137        1.78498308775960        2.03503020483770
C           -2.74860936222260       -1.74497937691422        2.38401158947411
C           -3.09416315450955       -2.91614440870436        3.00571134491758
C           -2.16786021984049       -3.77788778654213        3.63251872101904
C           -0.85708937311598       -3.40495313382985        3.68547234358092
O           -3.71994433332149       -0.94984598373544        1.67726658385724
O           -2.55702603277562       -1.47241711578389       -0.57241635275616
C           -3.84297843593025        3.13357444054366       -1.60938954875544
C           -2.68769581069131       -5.03867041417370        4.30484659386931
H           -1.39666850744143        3.51251503834900       -0.76806311868865
H           -4.27662633836220        0.55105838579656       -1.33106614114542
H            2.66329581305412        2.73912661909249        1.72562431984580
H            3.05775395548473       -0.69369546277216        4.16536137542516
H           -0.24710966264510       -4.12034095424229        4.22946223699121
H           -4.11477991332403       -3.04712728052358        3.03244694615357
O           -4.21824883374556        4.03433712717988       -0.87713382485991
O           -4.44510595673734        2.90643496899600       -2.81853501752979
C           -5.44216520282800        3.83300025693726       -3.02488532025093
C            4.23586651889298        1.50004220933226        3.59165660008449
O            5.05927614697201        0.66079890002952        3.91714215179376
O            4.47001334453535        2.86385149488593        3.72605651435371
C            5.79457498613219        3.08584475587818        4.15829123132174
O           -3.82227255313510       -5.27347675879771        4.16636005494405
O           -1.85023202017753       -5.79767454267276        5.06656077253571
C           -2.55119635829503       -6.86252441382958        5.62930343183426
C           -5.07197156564436       -1.42399175670916        1.58830531863830
C           -1.33089900128490       -2.23622472573986       -0.99264499351172
H           -2.54510546830388       -7.76426885143998        4.99136022291012
H           -3.57194749219491       -6.44405511486021        5.74196173723541
H           -2.09133598235598       -7.02043774843818        6.64022264233588
H            5.72707967266424        3.46798026205549        5.10135971236643
H            6.34060091246885        3.78468702308830        3.50069950143490
H            6.17933064298187        2.03010500085905        4.19342358084693
H           -0.91862729772622       -2.57650129080332       -0.01361370304871
H           -0.49769766914251       -1.60651221708571       -1.34094446550576
H           -1.52632419730509       -2.94569707152159       -1.75361447637286
H           -5.11788846557077       -2.41810833635233        1.17520213188926
H           -5.67929807973498       -0.69619639428435        1.04301666067831
H           -5.57598832326623       -1.42383358739762        2.57928294206544
H           -6.13050215934830        3.76035386975488       -2.23272855695873
H           -5.86615610071888        3.45938329385866       -4.02668959924245
H           -5.13479557532099        4.87790991548477       -2.98314551356402
C           -1.38192942069774        3.73616555005018        2.91232598411686
C           -1.84821468128685        2.59982427735607        3.49755545445181
C           -1.05946531454833        2.05730632010638        4.60922730982276
C            0.19893954712228        2.69376791964407        4.86302140881997
C            0.50425395911860        3.94630308659851        4.28768785650746
C           -0.26031777722226        4.46998310053134        3.25072669343212
C           -1.20488993561782        0.74454293276906        5.14851520323437
C           -0.06287609782692        0.02744069315890        5.60930570802864
C            1.19208754369866        0.71421540266195        5.78882868583885
N            1.19428660993148        2.06344359410476        5.62744624321596
C           -2.41361422770794        0.07928500213936        5.25249410304426
C           -2.45851584031083       -1.32662100968547        5.60237876023992
N           -1.29466212405906       -1.98318595734370        5.89916817085159
C           -0.14475655767527       -1.32117560077092        5.98824682881008
C            0.97209270935794       -1.98958449505532        6.53157704134458
C            2.21982707914082       -1.36973967291181        6.68703967237737
C            2.30561929262884       -0.09745313075593        6.26436900324455
C           -3.73018485967715        0.71367583494582        5.25810242262992
C           -4.89964478833448       -0.06184623426677        5.21204641615509
C           -4.82617965800088       -1.39228978090841        5.46901303780036
C           -3.67144193418464       -1.98914944386360        5.67265433266067
O           -3.75568638935321        2.07705011038914        5.52067969627343
O           -2.94192434743730        1.91263938797883        3.01658762327703
C            0.21273512614467        5.50086066357994        2.34765104514621
C           -6.06660304520411       -2.17604633098929        5.80641622556876
H            1.41756699010566        4.38133362238595        4.66974005703471
H           -1.82880610647429        4.11982501512100        2.06992133318584
H            3.26888037378556        0.32655662585251        6.31721410015598
H            0.87146188387207       -3.08471526305024        6.57830423410869
H           -3.67716811065157       -3.05999292755990        5.83019634570050
H           -5.77379677507622        0.43595144608221        4.71017130754348
O            1.34459852619901        5.82615848916894        2.44941456579099
O           -0.74718748219123        6.07961784856304        1.59848183464284
C           -0.21473095568964        7.24015934882472        1.05753806029483
C            3.53228080814219       -2.00967610361154        7.02506769044485
O            3.64093082622715       -3.14437803815732        7.50071391725347
O            4.56565258381079       -1.22937033368332        6.69086985080897
C            5.72579357310716       -1.80692399125161        7.22246151275881
O           -7.04801223588612       -1.95726935745904        5.14194115322235
O           -6.01514389321278       -2.93743591896022        6.94765316328794
C           -7.21292732384718       -3.62681918543340        7.15115816329978
C           -4.95459780685163        2.65960679932188        5.86868674392943
C           -3.68284113682406        2.59129188358641        2.05479246020704
H           -7.43119628931628       -4.22607794725959        6.20622607140901
H           -8.06548455146707       -2.91765848248592        7.29781126410398
H           -7.07314693247270       -4.33087306029711        7.91223421050944
H            6.57332189837178       -1.29353136199234        6.78341268688262
H            5.74663761932316       -2.84282155125561        6.88089468184451
H            5.69426191474290       -1.72781984964892        8.29460302186842
H           -4.10481209541493        3.44288266176275        2.60483747673152
H           -4.49244774344916        1.87419893016926        1.82433103764650
H           -3.18901540870812        2.85154642679373        1.06781919454921
H           -5.55414326821421        2.76698137191684        4.93950725322359
H           -4.78658370641210        3.62090640967288        6.25983200635257
H           -5.43485580473958        1.97242995129449        6.65265772412460
H            0.89164886030839        7.38838561720231        1.13776105146914
H           -0.62894889903848        8.04195665205089        1.64837664327952
H           -0.59282546386754        7.45699159724320        0.03719083132488
116
 energy: -22.811009056733 gnorm: 0.414415398550 xtb: 6.6.1 (8d0f1dd)
C           -2.95461003050727        0.52787947443405       -1.96591482105978
C           -2.37785360665289       -0.27116407059610       -0.97316725964649
C           -1.60585031948652        0.37898297012225        0.06004564752440
C           -1.13455682899539        1.72446885039805       -0.22447948527357
C           -1.73007092456207        2.37109291872663       -1.35361898989825
C           -2.71059110017012        1.90737439795063       -2.16621157148114
C           -0.97452897075094       -0.24289431724845        1.25284286561702
C            0.23391285276460        0.32566553570172        1.64755714773459
C            0.71580248515770        1.54797181797543        1.13453925686887
N            0.01806279973042        2.26279997022699        0.18405376076387
C           -1.51428405521840       -1.42836684389444        1.96828616993971
C           -0.61327955189502       -2.00844510402490        2.87614205869311
N            0.65440224395768       -1.49831766655558        3.18891389051268
C            1.05106527653322       -0.37222400482835        2.57227857277392
C            2.34270818916613        0.03292426790336        2.90276731362826
C            2.73368399029981        1.32120725869466        2.56576936962749
C            1.92555345125877        2.05292045114380        1.67966822268793
C           -2.92961646814034       -1.73414136444867        1.99572227538870
C           -3.26910084743808       -2.83175388998088        2.76737044212382
C           -2.37715899981232       -3.42057637113145        3.64316785006906
C           -1.09370503568199       -2.92686727706076        3.71259169471380
O           -3.81909320513254       -0.76768211634514        1.32299045846642
O           -2.55076235496789       -1.75126325176997       -0.90865697551352
C           -3.49531928712715        2.77030814436940       -3.04008626967230
C           -2.83840899936861       -4.55713404015613        4.47091380785030
H           -1.39913790368855        3.41107019331516       -1.64511866420524
H           -3.61257938304462       -0.01055058228063       -2.67902881183688
H            2.38780661933017        3.00295741354392        1.31647177840466
H            2.78244477011097       -0.38417829012429        3.85118426480708
H           -0.45954608175422       -3.34778190552602        4.45462508870206
H           -4.23691103307427       -3.26413321069724        2.69794601792731
O           -2.93077945744586        3.77242110451734       -3.38250256591131
O           -4.81472676562506        2.56872813820596       -3.20296044119975
C           -5.34678560601012        3.52423222808275       -4.07022082903939
C            4.00656241047736        1.84308055309035        3.16704160949628
O            4.42672270879287        1.52112469848269        4.29491120060687
O            4.78664815808738        2.54154085587221        2.32724295360510
C            5.84375720121416        3.10438312717392        2.93711562419596
O           -3.99260352503010       -5.01612273717199        4.54609711827330
O           -1.85103065501756       -5.02125217440640        5.22017871875507
C           -1.99976157527445       -6.02103534590248        6.20000684584847
C           -4.89606028279710       -1.39553079289974        0.82151418250126
C           -1.35760651034876       -2.38149029025566       -1.22280872804610
H           -2.57654513609472       -6.95961274881491        5.73373580637715
H           -2.67468821396227       -5.58548924779258        7.03695026285811
H           -1.04969894761575       -6.26431184547000        6.80647061568909
H            6.59874258491866        2.32580825892397        3.12294269071066
H            5.56249100745583        3.27802641345862        4.08141874564248
H            6.09824247881343        3.93654409245330        2.26867638942116
H           -1.06881326067335       -3.28320572581637       -0.71346202281363
H           -0.46946399775194       -1.80379630895609       -1.18636290269486
H           -1.50144798630171       -2.45511917578597       -2.37763740889848
H           -5.02570316113530       -2.44705501293871        1.22827035794790
H           -4.94336307410899       -1.58069062135917       -0.17633222600360
H           -5.78056951768895       -0.76877701857484        0.98954818890158
H           -4.88723009236597        4.52074838586891       -4.04787575131259
H           -6.39990550663791        3.82106304605227       -3.94496021953411
H           -5.33061857248291        2.91732296157404       -5.07565502994659
C           -1.58166494344892        3.70086074676226        3.61490668319010
C           -1.94592352957559        2.51901679101932        4.42521893373979
C           -0.97320106616222        2.01069029580598        5.34825891998165
C            0.37645028276012        2.53458398939415        5.29054318906461
C            0.62757503297740        3.53222138135796        4.40193195663048
C           -0.30209448576529        4.18044638156743        3.54942560182962
C           -1.13807086630474        0.73586296390978        5.98909191628740
C           -0.00964503613950       -0.05446279052275        6.17047960517216
C            1.24055531549430        0.58738861538250        6.03294075137988
N            1.46503038847051        1.91346419464410        5.90013147808178
C           -2.35770744284827        0.04914015229766        6.31230936931071
C           -2.39748095816997       -1.31535072298004        6.41489218303904
N           -1.29479948208329       -1.97476265781932        6.67585362838676
C           -0.10114183085170       -1.41402178652606        6.48766398653249
C            1.07477101638373       -2.12506071890892        6.73853415614523
C            2.32932217916997       -1.55388950540384        6.63023161216942
C            2.37548461049791       -0.20102674043565        6.27338258580421
C           -3.62211643881550        0.68878686861436        6.63233941740003
C           -4.88609219679921        0.03869744189613        6.60092287053237
C           -4.93336964488450       -1.31364726826272        6.34024226032109
C           -3.69415404030412       -1.91713278217996        6.24532940034332
O           -3.56804056520781        2.10196880530610        6.92998644763625
O           -3.08580430988735        1.88285583642031        3.98075175874410
C            0.16737933678603        5.49313040913893        2.98642400623769
C           -6.24454747914409       -2.03743157332109        6.17947278838762
H            1.44098422402313        4.16504860131535        4.42425251299380
H           -2.26338857977931        4.16914700432387        2.82869652204605
H            3.37874713028005        0.14128198969955        6.03717620070217
H            1.15975642772848       -3.14885479791958        7.09020188296417
H           -3.78874795678311       -2.99769656211592        6.22178451378372
H           -5.85286954521668        0.44374094186331        6.89950973204237
O            1.26144791176943        5.90804995776655        3.29865779832995
O           -0.67929477897837        6.03560571026855        2.02670176193483
C           -0.54010027355162        7.45574862180136        2.14494583080768
C            3.55676033393821       -2.34818983570876        7.03798096627746
O            3.60969288609767       -3.51286448139831        7.46380294873999
O            4.68980441284859       -1.61875232119541        6.81034786206422
C            5.85066503123479       -2.28332111330410        7.46270876625420
O           -7.25215643808857       -1.35719166595858        5.99675172034734
O           -6.23713034778187       -3.44833967240932        6.15904768518698
C           -7.40764088006163       -3.85755062446999        5.67654642742574
C           -4.69499394386030        2.86871457658239        6.92712257485030
C           -3.13670875052338        1.48840410277822        2.54449372692329
H           -8.24773198829461       -3.19172538413255        6.06139510496816
H           -7.69919821964796       -4.95740438563918        6.10939692850917
H           -7.49104495566344       -3.60127028824658        4.57251034583023
H            6.73924129559697       -1.62771991096825        7.37736343208536
H            6.09132097869550       -3.28731441397022        6.95648642844661
H            5.65091255954598       -2.63909947161018        8.53849055057933
H           -3.62062379171151        2.31219810685554        1.93869281228386
H           -3.61750832508888        0.54307950708483        2.43393390979690
H           -2.11345593008019        1.48862568510757        2.17147262148220
H           -4.92100955865789        2.99661409251796        5.81259786541918
H           -4.45396761044711        3.93400815857402        7.22317791633688
H           -5.44400310920808        2.42452154624415        7.56851681295725
H            0.52152811121634        7.73945881942610        2.19931551636694
H           -1.08699628277179        7.70677953344129        3.07806465730369
H           -1.18967622316265        8.04350300283565        1.48206726612881
116
 energy: -22.858759115136 gnorm: 0.419086102489 xtb: 6.6.1 (8d0f1dd)
C           -3.16460338563684        0.31418243685246       -1.57397820431415
C           -2.64530089996165       -0.26395933770503       -0.44027735687865
C           -1.83697462747359        0.65075323971307        0.35031194429726
C           -1.44662602555411        1.94831771904879       -0.09883767761473
C           -2.22233407940967        2.39445149329165       -1.17552776971532
C           -3.04273729874190        1.60308763646948       -1.88029577121061
C           -1.15078902201807        0.07940751657671        1.43787963871318
C            0.09442777985006        0.59180676112137        1.70149756559299
C            0.38917107468045        1.98997094895847        1.33720278143849
N           -0.36031106730743        2.65409947116411        0.43330709087074
C           -1.66628084486391       -0.99894130505169        2.26460979633110
C           -0.68239103727866       -1.78502125472434        3.03069005871046
N            0.59934543520852       -1.40118275342787        3.07931723685222
C            1.02639652267061       -0.24158046499475        2.38428388932637
C            2.23141020795369        0.43643699956361        2.69886254932793
C            2.54091322814183        1.70114693551860        2.31363228502156
C            1.60982922833977        2.44435450100032        1.62083917112272
C           -3.10926926568434       -1.40489366150660        2.32168875840016
C           -3.37976454996280       -2.65624165062141        2.78149999797440
C           -2.40477574661203       -3.47301860060578        3.26369154033016
C           -1.07498617694322       -3.02144204447451        3.50971497499266
O           -4.11645642605621       -0.60726131089813        1.71398878911479
O           -2.43483935865508       -1.61119498473692       -0.17868324274372
C           -3.61205935630069        2.15383740462081       -3.17425551941237
C           -2.81694207968693       -4.79729617431366        3.88596386825808
H           -1.93759091714124        3.41693399020981       -1.60899255666601
H           -3.79420182391839       -0.31296273367802       -2.23304524975149
H            1.90187534385913        3.47349681643418        1.35193486074675
H            2.93456240278086       -0.09186196077036        3.40143057864169
H           -0.39348596461891       -3.60944887297562        4.04631554349097
H           -4.41067362654913       -3.06352141161546        2.91345533791042
O           -4.02650636928724        3.33265458357020       -3.20731547884940
O           -3.60623668272571        1.23637893998987       -4.18626668449022
C           -3.89308812729147        1.83788078535704       -5.43090214031879
C            3.77906506746476        2.32111336159565        2.82116738947770
O            4.55706586778451        1.70472653852336        3.55692433676460
O            4.01240979964952        3.58941625017195        2.42452610491349
C            5.16804639513265        4.19522963569751        3.13112348368231
O           -3.85875443321156       -5.34295275121737        3.53635453418199
O           -1.97488095239514       -5.27848123416484        4.85569695665856
C           -2.29356287611745       -6.55408494089784        5.22528187162616
C           -5.45311608286253       -1.04628468220685        1.79428996657894
C           -1.21105996504540       -2.05547024324235       -0.85365955171640
H           -2.34148386051286       -7.04129631381717        4.18812545121800
H           -3.31189842525945       -6.45179545736083        5.63741102996706
H           -1.68273383565974       -6.93560057360820        6.03088278187994
H            6.09316321128066        3.69667757164390        2.60719785517557
H            5.24157740385114        3.73893569507389        4.16005970627935
H            5.16279684378208        5.28418195302690        3.05617006868602
H           -1.14788886505511       -3.13557229124279       -1.02813616344135
H           -0.40237039907315       -1.63331637037352       -0.16726447830283
H           -1.19430062478025       -1.66992232409845       -1.82447231311763
H           -5.73704440958017       -1.47814033357377        2.71315734478126
H           -5.59763263466504       -1.98872875399234        1.18729167115721
H           -6.09385279980087       -0.26324870686425        1.52506742685511
H           -4.29775692210867        1.01080881217955       -6.06541479625704
H           -3.06337431643314        2.30650561787915       -5.92601118021113
H           -4.71558279856857        2.52316919252478       -5.47191008334369
C           -1.37934765694708        3.80216057815989        3.67621147418449
C           -1.73365890111058        2.61891764887211        4.19484471156776
C           -0.76624608416209        1.81156819421253        4.92635093978703
C            0.62312260501666        2.07243898961202        4.76596719715787
C            0.88334875817292        3.44733760776838        4.29416147309082
C           -0.09721968507615        4.31125516723959        3.82288272688221
C           -1.03765420263081        0.59881923939384        5.57578574387368
C            0.04728129349919       -0.30130962763542        5.89282068424335
C            1.41781600573918        0.15583895557039        5.73026856293589
N            1.66105999586537        1.37976749525523        5.18443804010982
C           -2.26874276333255        0.02794888012754        6.08397565715509
C           -2.38044387503105       -1.35122814959735        6.45541991107994
N           -1.37980491181083       -2.13377975696324        6.74510066876862
C           -0.12171198900071       -1.65225207564387        6.39092423347547
C            0.98844661233166       -2.41369447560793        6.92182943444890
C            2.31993893562385       -1.88334836426692        6.77494983827553
C            2.51683249845501       -0.68129772590358        6.13881161043813
C           -3.43369543914815        0.85995328023607        6.29846684505443
C           -4.66597703056909        0.21862835356573        6.43292888631050
C           -4.78468302849494       -1.18689711170181        6.34784457695899
C           -3.62892781795566       -1.96911966355865        6.47093751936674
O           -3.38279090528524        2.28645020081361        6.50519530592997
O           -2.81961444962462        1.86517080798125        3.70615276750558
C            0.43238700800690        5.67319671877840        3.38367261824967
C           -6.09497086587549       -1.88480759850095        6.37040934158910
H            1.90241737600363        3.64962392623547        4.37570372611001
H           -2.06425020893630        4.25830276774771        2.86530738134359
H            3.51163097846560       -0.43355988892146        5.73662454067419
H            0.83030897470613       -3.31521192175562        7.53374472010087
H           -3.63162485280731       -3.04950839492078        6.37778401671243
H           -5.48871450034267        0.84357195071089        6.69636805006398
O            1.61123924428679        5.95005605805887        3.57297061773533
O           -0.44344617993434        6.62600274571237        2.81998026448542
C            0.23803342948992        7.75661559451106        2.28952201628202
C            3.45010963440137       -2.68745812951995        7.32580131360297
O            3.27923949026826       -3.87700247498281        7.46050620384284
O            4.69415342877418       -2.06885145967403        7.42203964422138
C            5.63975668519103       -3.02819537320288        7.80345042147813
O           -7.13780549460073       -1.23416321488999        6.53748289768346
O           -6.06578642492342       -3.22653698516594        6.25988287095545
C           -7.32440951678869       -3.78869120386409        6.08183517655030
C           -4.38450916102645        2.77372375438229        7.24153722256030
C           -3.58071381184803        2.59201222926269        2.85628458759877
H           -7.40986824165056       -4.54386761419466        5.25118133508434
H           -7.93874973093084       -2.82807684927104        6.00834142754059
H           -7.60911222736400       -4.40121411050445        7.03187790825057
H            5.30851676796455       -3.93152214483512        8.16181510852918
H            6.13369871234371       -2.51350675452606        8.57624951006374
H            6.31925416962262       -3.18638229672002        6.96989302933612
H           -4.43859463536292        1.99097452554967        2.64979969427728
H           -2.84495619388372        2.76536527197543        2.03351362549246
H           -3.93426663114643        3.49047774762674        3.28520280364561
H           -5.31639450469186        2.73864526667380        6.82598410632050
H           -4.11358930653001        3.85620686996220        7.52574391284707
H           -4.49106107824073        2.24793033917241        8.20146208511184
H            0.59828093125693        7.37957283102333        1.27907353509430
H            0.99258629625912        8.08793899600698        2.92355458788199
H           -0.38911054375121        8.66790950023240        2.14308865061913
116
 energy: -22.883543910790 gnorm: 0.394445665992 xtb: 6.6.1 (8d0f1dd)
C           -3.42378783549336        0.05582634567073       -1.79841618490771
C           -2.60068950842348       -0.52557184234112       -0.79570398687335
C           -1.63006416838846        0.23342687350424       -0.15807098987109
C           -1.19906890411476        1.49998209037055       -0.74264217213689
C           -1.90184164273808        2.00277683872285       -1.77920539515583
C           -3.06112302292354        1.36846068561394       -2.20619517848373
C           -0.97179203531479       -0.33129260962493        0.97381459039711
C            0.20092586271981        0.43604392060338        1.30486692347478
C            0.61164977440013        1.66971939136839        0.66659325871561
N           -0.17072122758923        2.18163849163031       -0.22516772057816
C           -1.48201202845796       -1.27351215527090        1.89632545426504
C           -0.53686145130806       -1.71688372347935        2.82368150569673
N            0.74742084028211       -1.28715779393525        2.92117682182826
C            1.00624781896432       -0.10928330034206        2.28986208502018
C            2.03760777478669        0.66280033593599        2.83345990568660
C            2.34631744043963        1.91460151082399        2.37671293113388
C            1.60191920947636        2.41974840351764        1.31107503623313
C           -2.86327498342036       -1.66228883534476        1.98664856569539
C           -3.07364545452316       -2.72878897943458        2.78069987603281
C           -2.03561133639013       -3.35736719239062        3.56875817205417
C           -0.75526798663267       -2.87301740360056        3.60170686366440
O           -3.93468222216258       -0.87789558012783        1.42630156932778
O           -2.63363653081077       -1.90536680609798       -0.58980593404317
C           -3.75334670944684        2.01933264292341       -3.40483974919308
C           -2.54205387649018       -4.56744085400858        4.31297562884081
H           -1.63904150165720        3.07564926452317       -2.02486848518412
H           -4.24171054410668       -0.48986078866691       -2.40237798376371
H            1.89753840021507        3.25689573377313        0.71873162241310
H            2.59822215263987        0.33033766275919        3.71324098257413
H           -0.00952808353162       -3.42286379916115        4.10136939380098
H           -4.10823238078564       -3.07129662315252        3.07845079063247
O           -3.05311762990029        2.75599407569346       -4.04407894606025