      -----------------------------------------------------------      
     |                   =====================                   |     
     |                           x T B                           |     
     |                   =====================                   |     
     |                         S. Grimme                         |     
     |          Mulliken Center for Theoretical Chemistry        |     
     |                    University of Bonn                     |     
      -----------------------------------------------------------      

   * xtb version 6.6.1 (8d0f1dd) compiled by 'runner@Mac-1690902418499.local' on 2023-08-01

   xtb is free software: you can redistribute it and/or modify it under
   the terms of the GNU Lesser General Public License as published by
   the Free Software Foundation, either version 3 of the License, or
   (at your option) any later version.
   
   xtb is distributed in the hope that it will be useful,
   but WITHOUT ANY WARRANTY; without even the implied warranty of
   MERCHANTABILITY or FITNESS FOR A PARTICULAR PURPOSE.  See the
   GNU Lesser General Public License for more details.
   
   Cite this work as:
   * C. Bannwarth, E. Caldeweyher, S. Ehlert, A. Hansen, P. Pracht,
     J. Seibert, S. Spicher, S. Grimme, WIREs Comput. Mol. Sci., 2020, 11,
     e01493. DOI: 10.1002/wcms.1493
   
   for GFN2-xTB:
   * C. Bannwarth, S. Ehlert and S. Grimme., J. Chem. Theory Comput., 2019,
     15, 1652-1671. DOI: 10.1021/acs.jctc.8b01176
   for GFN1-xTB:
   * S. Grimme, C. Bannwarth, P. Shushkov, J. Chem. Theory Comput., 2017,
     13, 1989-2009. DOI: 10.1021/acs.jctc.7b00118
   for GFN0-xTB:
   * P. Pracht, E. Caldeweyher, S. Ehlert, S. Grimme, ChemRxiv, 2019, preprint.
     DOI: 10.26434/chemrxiv.8326202.v1
   for GFN-FF:
   * S. Spicher and S. Grimme, Angew. Chem. Int. Ed., 2020, 59, 15665-15673.
     DOI: 10.1002/anie.202004239
   
   for ALPB and GBSA implicit solvation:
   * S. Ehlert, M. Stahn, S. Spicher, S. Grimme, J. Chem. Theory Comput.,
     2021, 17, 4250-4261. DOI: 10.1021/acs.jctc.1c00471
   
   for DFT-D4:
   * E. Caldeweyher, C. Bannwarth and S. Grimme, J. Chem. Phys., 2017,
     147, 034112. DOI: 10.1063/1.4993215
   * E. Caldeweyher, S. Ehlert, A. Hansen, H. Neugebauer, S. Spicher,
     C. Bannwarth and S. Grimme, J. Chem. Phys., 2019, 150, 154122.
     DOI: 10.1063/1.5090222
   * E. Caldeweyher, J.-M. Mewes, S. Ehlert and S. Grimme, Phys. Chem. Chem. Phys.
     2020, 22, 8499-8512. DOI: 10.1039/D0CP00502A
   
   for sTDA-xTB:
   * S. Grimme and C. Bannwarth, J. Chem. Phys., 2016, 145, 054103.
     DOI: 10.1063/1.4959605
   
   in the mass-spec context:
   * V. Asgeirsson, C. Bauer and S. Grimme, Chem. Sci., 2017, 8, 4879.
     DOI: 10.1039/c7sc00601b
   * J. Koopman and S. Grimme, ACS Omega 2019, 4, 12, 15120-15133.
     DOI: 10.1021/acsomega.9b02011
   
   for metadynamics refer to:
   * S. Grimme, J. Chem. Theory Comput., 2019, 155, 2847-2862
     DOI: 10.1021/acs.jctc.9b00143
   
   for SPH calculations refer to:
   * S. Spicher and S. Grimme, J. Chem. Theory Comput., 2021, 17, 1701-1714
     DOI: 10.1021/acs.jctc.0c01306
   
   with help from (in alphabetical order)
   P. Atkinson, C. Bannwarth, F. Bohle, G. Brandenburg, E. Caldeweyher
   M. Checinski, S. Dohm, S. Ehlert, S. Ehrlich, I. Gerasimov, C. Hölzer
   A. Katbashev, J. Koopman, C. Lavigne, S. Lehtola, F. März, M. Müller,
   F. Musil, H. Neugebauer, J. Pisarek, C. Plett, P. Pracht, F. Pultar,
   J. Seibert, P. Shushkov, S. Spicher, M. Stahn, M. Steiner, T. Strunk,
   J. Stückrath, T. Rose, and J. Unsleber
   
 * started run on 2024/10/31 at 16:53:53.362     

           -------------------------------------------------
          |                Calculation Setup                |
           -------------------------------------------------

          program call               : xtb stacked_dimer_Base2CO2Me.mol --opt --gfn2 --chrg -1 --uhf 0 --tight
          coordinate file            : stacked_dimer_Base2CO2Me.mol
          omp threads                :                     8

   ID    Z sym.   atoms
    1    6 C      1-9, 11, 12, 14-21, 23-34, 36, 37, 39-46, 48-50, 54, 56,
                  60, 63, 66, 69, 71, 72, 74, 75, 112-120, 122, 123, 125-132,
                  134-145, 147, 148, 150-157, 159-161, 165, 167, 171, 174,
                  177, 180, 182, 183, 185, 186
    2    7 N      10, 13, 35, 38, 70, 73, 121, 124, 146, 149, 181, 184
    3    8 O      22, 47, 52, 53, 55, 57-59, 61, 62, 64, 65, 67, 68, 133,
                  158, 163, 164, 166, 168-170, 172, 173, 175, 176, 178, 179
    4    5 B      51, 162
    5    1 H      76-111, 187-222

molecular fragmentation (1/2 indicates fragments):
111111111111111111111111111111111111111111111111111111111111111111111111
111111111111111111111111111111111111111222222222222222222222222222222222
222222222222222222222222222222222222222222222222222222222222222222222222
222222
# atoms in fragment 1/2:   111   111
 fragment masses (1/2) :     1003.71     1003.71
CMA distance (Bohr)    :  13.228
constraining FC (au)   :  0.0500
########################################################################
[WARNING] Please study the warnings concerning your input carefully
-1- prog_main_parseArguments: Unknown option '--tight' provided
########################################################################

           -------------------------------------------------
          |                 G F N 2 - x T B                 |
           -------------------------------------------------

        Reference                      10.1021/acs.jctc.8b01176
      * Hamiltonian:
        H0-scaling (s, p, d)           1.850000    2.230000    2.230000
        zeta-weighting                 0.500000
      * Dispersion:
        s8                             2.700000
        a1                             0.520000
        a2                             5.000000
        s9                             5.000000
      * Repulsion:
        kExp                           1.500000    1.000000
        rExp                           1.000000
      * Coulomb:
        alpha                          2.000000
        third order                    shell-resolved
        anisotropic                    true
        a3                             3.000000
        a5                             4.000000
        cn-shift                       1.200000
        cn-exp                         4.000000
        max-rad                        5.000000

q/qsh data taken from xtbrestart
CAMM data taken from xtbrestart

          ...................................................
          :                      SETUP                      :
          :.................................................:
          :  # basis functions                 672          :
          :  # atomic orbitals                 672          :
          :  # shells                          372          :
          :  # electrons                       739          :
          :  max. iterations                   250          :
          :  Hamiltonian                  GFN2-xTB          :
          :  restarted?                       true          :
          :  GBSA solvation                  false          :
          :  PC potential                    false          :
          :  electronic temp.          300.0000000     K    :
          :  accuracy                    1.0000000          :
          :  -> integral cutoff          0.2500000E+02      :
          :  -> integral neglect         0.1000000E-07      :
          :  -> SCF convergence          0.1000000E-05 Eh   :
          :  -> wf. convergence          0.1000000E-03 e    :
          :  Broyden damping             0.4000000          :
          ...................................................

 iter      E             dE          RMSdq      gap      omega  full diag
   1   -425.3826762 -0.425383E+03  0.192E+00    0.11       0.0  T
   2   -423.9639263  0.141875E+01  0.189E+00    0.26       1.0  T
   3   -424.4394569 -0.475531E+00  0.142E+00    0.09       1.0  T
   4   -423.5555852  0.883872E+00  0.173E+00    0.07       1.0  T
   5   -424.7544503 -0.119887E+01  0.110E+00    0.13       1.0  T
   6   -424.9781683 -0.223718E+00  0.984E-01    0.32       1.0  T
   7   -425.1893697 -0.211201E+00  0.808E-01    0.18       1.0  T
   8   -425.2724757 -0.831060E-01  0.674E-01    0.17       1.0  T
   9   -425.2886564 -0.161807E-01  0.652E-01    0.19       1.0  T
  10   -425.3309918 -0.423354E-01  0.542E-01    0.20       1.0  T
  11   -425.3561159 -0.251241E-01  0.493E-01    0.21       1.0  T
  12   -425.3667445 -0.106286E-01  0.465E-01    0.18       1.0  T
  13   -425.4011145 -0.343700E-01  0.365E-01    0.19       1.0  T
  14   -425.4152615 -0.141470E-01  0.318E-01    0.20       1.0  T
  15   -425.4201422 -0.488067E-02  0.294E-01    0.19       1.0  T
  16   -425.4405111 -0.203689E-01  0.191E-01    0.16       1.0  T
  17   -425.4440417 -0.353058E-02  0.166E-01    0.16       1.0  T
  18   -425.4440054  0.362798E-04  0.164E-01    0.17       1.0  T
  19   -425.4362941  0.771124E-02  0.151E-01    0.08       1.0  T
  20   -425.4469184 -0.106242E-01  0.990E-02    0.11       1.0  T
  21   -425.4529437 -0.602539E-02  0.544E-02    0.13       1.0  T
  22   -425.4513796  0.156413E-02  0.671E-02    0.11       1.0  T
  23   -425.4532268 -0.184722E-02  0.454E-02    0.12       1.0  T
  24   -425.4544883 -0.126142E-02  0.271E-02    0.14       1.0  T
  25   -425.4549690 -0.480750E-03  0.814E-03    0.13       1.0  T
  26   -425.4549331  0.358750E-04  0.108E-02    0.13       1.0  T
  27   -425.4549776 -0.444934E-04  0.404E-03    0.13       1.7  T
  28   -425.4549747  0.293244E-05  0.368E-03    0.13       1.8  T
  29   -425.4549842 -0.946894E-05  0.143E-03    0.13       4.7  T
  30   -425.4549848 -0.664324E-06  0.856E-04    0.13       7.8  T
  31   -425.4549848  0.244477E-07  0.899E-04    0.13       7.5  T

   *** convergence criteria satisfied after 31 iterations ***

         #    Occupation            Energy/Eh            Energy/eV
      -------------------------------------------------------------
         1        2.0000           -0.6986154             -19.0103
       ...           ...                  ...                  ...
       364        2.0000           -0.3048977              -8.2967
       365        1.9994           -0.3024806              -8.2309
       366        1.9985           -0.3016513              -8.2083
       367        1.9962           -0.3007539              -8.1839
       368        1.9952           -0.3005396              -8.1781
       369        1.5320           -0.2956975              -8.0463
       370        1.3488           -0.2951243              -8.0307 (HOMO)
       371        0.0689           -0.2902306              -7.8976 (LUMO)
       372        0.0610           -0.2901072              -7.8942
       373                         -0.2486920              -6.7673
       374                         -0.2481394              -6.7522
       375                         -0.2400318              -6.5316
       ...                                ...                  ...
       672                          0.7591353              20.6571
      -------------------------------------------------------------
                  HL-Gap            0.0048938 Eh            0.1332 eV
             Fermi-level           -0.2940881 Eh           -8.0025 eV

 SCC (total)                   0 d,  0 h,  0 min,  6.289 sec
 SCC setup                      ...        0 min,  0.001 sec (  0.017%)
 Dispersion                     ...        0 min,  0.005 sec (  0.073%)
 classical contributions        ...        0 min,  0.001 sec (  0.016%)
 integral evaluation            ...        0 min,  0.022 sec (  0.357%)
 iterations                     ...        0 min,  5.986 sec ( 95.174%)
 molecular gradient             ...        0 min,  0.228 sec (  3.627%)
 printout                       ...        0 min,  0.046 sec (  0.735%)

         :::::::::::::::::::::::::::::::::::::::::::::::::::::
         ::                     SUMMARY                     ::
         :::::::::::::::::::::::::::::::::::::::::::::::::::::
         :: total energy            -420.064208724863 Eh    ::
         :: gradient norm              0.053655778862 Eh/a0 ::
         :: HOMO-LUMO gap              0.133165765030 eV    ::
         ::.................................................::
         :: SCC energy              -425.454984798269 Eh    ::
         :: -> isotropic ES            0.826154225517 Eh    ::
         :: -> anisotropic ES         -0.013951730010 Eh    ::
         :: -> anisotropic XC          0.123115156773 Eh    ::
         :: -> dispersion             -0.397194686301 Eh    ::
         :: repulsion energy           5.362511157448 Eh    ::
         :: add. restraining           0.000000000000 Eh    ::
         :: total charge              -1.000000306167 e     ::
         :::::::::::::::::::::::::::::::::::::::::::::::::::::

      ----------------------------------------------------------- 
     |                   =====================                   |
     |                        A N C O P T                        |
     |                   =====================                   |
     |               Approximate Normal Coordinate               |
     |                Rational Function Optimizer                |
      ----------------------------------------------------------- 

          ...................................................
          :                      SETUP                      :
          :.................................................:
          :   optimization level            normal          :
          :   max. optcycles                   666          :
          :   ANC micro-cycles                  20          :
          :   degrees of freedom               660          :
          :.................................................:
          :   RF solver                   davidson          :
          :   write xtbopt.log                true          :
          :   linear?                        false          :
          :   energy convergence         0.5000000E-05 Eh   :
          :   grad. convergence          0.1000000E-02 Eh/α :
          :   maxmium RF displ.          1.0000000          :
          :   Hlow (freq-cutoff)         0.1000000E-01      :
          :   Hmax (freq-cutoff)         5.0000000          :
          :   S6 in model hess.         20.0000000          :
          ...................................................

generating ANC from model Hessian ...
Using Lindh-Hessian (1995)
 Shifting diagonal of input Hessian by    1.0016000930404816E-002
 Lowest  eigenvalues of input Hessian
    0.010000    0.000000    0.000000    0.000000    0.000000    0.000000
    0.000000    0.010025    0.010058    0.010087    0.010102    0.010112
    0.010172    0.010212    0.010229    0.010289    0.010366    0.010436
 Highest eigenvalues
    2.395475    2.395503    2.397468    2.397473    2.398639    2.398641


........................................................................
.............................. CYCLE    1 ..............................
........................................................................

 iter      E             dE          RMSdq      gap      omega  full diag
   1   -425.4549851 -0.425455E+03  0.528E-04    0.13       0.0  T
   2   -425.4549450  0.400282E-04  0.678E-03    0.13       1.0  T
   3   -425.4549851 -0.400758E-04  0.453E-04    0.13      14.8  T
   4   -425.4549852 -0.574996E-07  0.402E-04    0.13      16.7  T
   5   -425.4549852 -0.645952E-07  0.257E-04    0.13      26.1  T
     SCC iter.                  ...        0 min,  0.777 sec
     gradient                   ...        0 min,  0.212 sec
 * total energy  :  -420.0642092 Eh     change       -0.4492152E-06 Eh
   gradient norm :     0.0536493 Eh/α   predicted     0.0000000E+00 (-100.00%)
   displ. norm   :     0.7401618 α      lambda       -0.2640659E-01
   maximum displ.:     0.2560542 α      in ANC's #21, #30, #32, ...

........................................................................
.............................. CYCLE    2 ..............................
........................................................................

 iter      E             dE          RMSdq      gap      omega  full diag
   1   -425.4693699 -0.425469E+03  0.100E-01    0.12       0.0  T
   2   -425.3697354  0.996345E-01  0.341E-01    0.03       1.0  T
   3   -425.4570751 -0.873397E-01  0.137E-01    0.11       1.0  T
   4   -425.4614472 -0.437212E-02  0.146E-01    0.13       1.0  T
   5   -425.4607458  0.701452E-03  0.139E-01    0.13       1.0  T
   6   -425.4664582 -0.571243E-02  0.862E-02    0.14       1.0  T
   7   -425.4662067  0.251508E-03  0.820E-02    0.14       1.0  T
   8   -425.4700908 -0.388407E-02  0.267E-02    0.13       1.0  T
   9   -425.4703062 -0.215389E-03  0.178E-02    0.13       1.0  T
  10   -425.4704367 -0.130575E-03  0.113E-02    0.13       1.0  T
  11   -425.4704675 -0.307776E-04  0.784E-03    0.14       1.0  T
  12   -425.4704952 -0.276902E-04  0.461E-03    0.13       1.5  T
  13   -425.4705045 -0.932192E-05  0.171E-03    0.14       3.9  T
  14   -425.4705048 -0.236887E-06  0.119E-03    0.13       5.6  T
  15   -425.4705059 -0.114214E-05  0.461E-04    0.14      14.6  T
  16   -425.4705059 -0.567951E-08  0.332E-04    0.14      20.2  T
  17   -425.4705060 -0.516163E-07  0.182E-04    0.13      36.9  T
     SCC iter.                  ...        0 min,  2.866 sec
     gradient                   ...        0 min,  0.211 sec
 * total energy  :  -420.0811714 Eh     change       -0.1696218E-01 Eh
   gradient norm :     0.0257817 Eh/α   predicted    -0.2043689E-01 (  20.49%)
   displ. norm   :     0.5266579 α      lambda       -0.7448156E-02
   maximum displ.:     0.1374487 α      in ANC's #12, #21, #42, ...

........................................................................
.............................. CYCLE    3 ..............................
........................................................................

 iter      E             dE          RMSdq      gap      omega  full diag
   1   -425.4710550 -0.425471E+03  0.628E-02    0.13       0.0  T
   2   -425.4222115  0.488434E-01  0.240E-01    0.08       1.0  T
   3   -425.4667819 -0.445704E-01  0.803E-02    0.12       1.0  T
   4   -425.4663133  0.468584E-03  0.106E-01    0.14       1.0  T
   5   -425.4667261 -0.412814E-03  0.857E-02    0.14       1.0  T
   6   -425.4698645 -0.313844E-02  0.506E-02    0.14       1.0  T
   7   -425.4709643 -0.109980E-02  0.280E-02    0.13       1.0  T
   8   -425.4712701 -0.305730E-03  0.169E-02    0.14       1.0  T
   9   -425.4713497 -0.796669E-04  0.976E-03    0.14       1.0  T
  10   -425.4713961 -0.463408E-04  0.323E-03    0.14       2.1  T
  11   -425.4713975 -0.140748E-05  0.223E-03    0.14       3.0  T
  12   -425.4713981 -0.641324E-06  0.188E-03    0.14       3.6  T
  13   -425.4713983 -0.120452E-06  0.136E-03    0.14       4.9  T
  14   -425.4713995 -0.125520E-05  0.533E-04    0.14      12.6  T
  15   -425.4713997 -0.194800E-06  0.143E-04    0.14      47.0  T
  16   -425.4713997  0.372205E-08  0.118E-04    0.14      57.1  T
     SCC iter.                  ...        0 min,  2.974 sec
     gradient                   ...        0 min,  0.215 sec
 * total energy  :  -420.0870252 Eh     change       -0.5853860E-02 Eh
   gradient norm :     0.0145291 Eh/α   predicted    -0.4757027E-02 ( -18.74%)
   displ. norm   :     0.6209958 α      lambda       -0.5248155E-02
   maximum displ.:     0.1891688 α      in ANC's #12, #21, #42, ...

........................................................................
.............................. CYCLE    4 ..............................
........................................................................

 iter      E             dE          RMSdq      gap      omega  full diag
   1   -425.4696807 -0.425470E+03  0.648E-02    0.14       0.0  T
   2   -425.4427131  0.269676E-01  0.182E-01    0.11       1.0  T
   3   -425.4584833 -0.157701E-01  0.120E-01    0.11       1.0  T
   4   -425.4617987 -0.331544E-02  0.130E-01    0.19       1.0  T
   5   -425.4658147 -0.401602E-02  0.841E-02    0.16       1.0  T
   6   -425.4690792 -0.326446E-02  0.357E-02    0.15       1.0  T
   7   -425.4686322  0.446981E-03  0.459E-02    0.14       1.0  T
   8   -425.4696768 -0.104456E-02  0.187E-02    0.14       1.0  T
   9   -425.4697886 -0.111827E-03  0.107E-02    0.15       1.0  T
  10   -425.4698453 -0.566720E-04  0.495E-03    0.15       1.4  T
  11   -425.4698479 -0.266242E-05  0.492E-03    0.15       1.4  T
  12   -425.4698580 -0.100649E-04  0.199E-03    0.15       3.4  T
  13   -425.4698595 -0.147125E-05  0.834E-04    0.15       8.0  T
  14   -425.4698598 -0.299789E-06  0.307E-04    0.15      21.8  T
  15   -425.4698598 -0.344211E-07  0.153E-04    0.15      43.8  T
     SCC iter.                  ...        0 min,  2.601 sec
     gradient                   ...        0 min,  0.213 sec
 * total energy  :  -420.0910278 Eh     change       -0.4002567E-02 Eh
   gradient norm :     0.0093467 Eh/α   predicted    -0.3636018E-02 (  -9.16%)
   displ. norm   :     0.6081861 α      lambda       -0.3011387E-02
   maximum displ.:     0.2201419 α      in ANC's #12, #7, #4, ...

........................................................................
.............................. CYCLE    5 ..............................
........................................................................

 iter      E             dE          RMSdq      gap      omega  full diag
   1   -425.4683563 -0.425468E+03  0.543E-02    0.15       0.0  T
   2   -425.4654990  0.285729E-02  0.680E-02    0.15       1.0  T
   3   -425.4370581  0.284409E-01  0.197E-01    0.09       1.0  T
   4   -425.4647095 -0.276515E-01  0.892E-02    0.19       1.0  T
   5   -425.4649564 -0.246815E-03  0.777E-02    0.15       1.0  T
   6   -425.4676601 -0.270379E-02  0.342E-02    0.15       1.0  T
   7   -425.4674309  0.229294E-03  0.403E-02    0.15       1.0  T
   8   -425.4683089 -0.878067E-03  0.149E-02    0.15       1.0  T
   9   -425.4683362 -0.273238E-04  0.107E-02    0.15       1.0  T
  10   -425.4683965 -0.602551E-04  0.523E-03    0.15       1.3  T
  11   -425.4684048 -0.830933E-05  0.425E-03    0.15       1.6  T
  12   -425.4684116 -0.677993E-05  0.225E-03    0.15       3.0  T
  13   -425.4684134 -0.181727E-05  0.876E-04    0.15       7.7  T
  14   -425.4684138 -0.364295E-06  0.281E-04    0.15      23.9  T
  15   -425.4684138 -0.262758E-07  0.157E-04    0.15      42.9  T
     SCC iter.                  ...        0 min,  2.938 sec
     gradient                   ...        0 min,  0.228 sec
 * total energy  :  -420.0933785 Eh     change       -0.2350702E-02 Eh
   gradient norm :     0.0096833 Eh/α   predicted    -0.2062643E-02 ( -12.25%)
   displ. norm   :     0.6102129 α      lambda       -0.1993225E-02
   maximum displ.:     0.2469570 α      in ANC's #12, #7, #4, ...

........................................................................
.............................. CYCLE    6 ..............................
........................................................................

 iter      E             dE          RMSdq      gap      omega  full diag
   1   -425.4683059 -0.425468E+03  0.481E-02    0.16       0.0  T
   2   -425.4676333  0.672667E-03  0.433E-02    0.14       1.0  T
   3   -425.4406769  0.269564E-01  0.184E-01    0.13       1.0  T
   4   -425.4614339 -0.207570E-01  0.948E-02    0.15       1.0  T
   5   -425.4651676 -0.373376E-02  0.696E-02    0.17       1.0  T
   6   -425.4675048 -0.233718E-02  0.365E-02    0.16       1.0  T
   7   -425.4681977 -0.692828E-03  0.170E-02    0.15       1.0  T
   8   -425.4683024 -0.104704E-03  0.945E-03    0.16       1.0  T
   9   -425.4683236 -0.212377E-04  0.681E-03    0.16       1.0  T
  10   -425.4683441 -0.205566E-04  0.325E-03    0.16       2.1  T
  11   -425.4683422  0.195825E-05  0.417E-03    0.16       1.6  T
  12   -425.4683458 -0.360960E-05  0.253E-03    0.16       2.7  T
  13   -425.4683487 -0.290235E-05  0.134E-03    0.16       5.0  T
  14   -425.4683500 -0.132963E-05  0.421E-04    0.16      15.9  T
  15   -425.4683500  0.794271E-07  0.451E-04    0.16      14.9  T
  16   -425.4683501 -0.155381E-06  0.121E-04    0.16      55.3  T
     SCC iter.                  ...        0 min,  3.026 sec
     gradient                   ...        0 min,  0.217 sec
 * total energy  :  -420.0949663 Eh     change       -0.1587841E-02 Eh
   gradient norm :     0.0091235 Eh/α   predicted    -0.1367721E-02 ( -13.86%)
   displ. norm   :     0.6155520 α      lambda       -0.1447979E-02
   maximum displ.:     0.2710421 α      in ANC's #12, #5, #4, ...

........................................................................
.............................. CYCLE    7 ..............................
........................................................................

 iter      E             dE          RMSdq      gap      omega  full diag
   1   -425.4694105 -0.425469E+03  0.452E-02    0.16       0.0  T
   2   -425.4636747  0.573584E-02  0.904E-02    0.13       1.0  T
   3   -425.4555711  0.810359E-02  0.131E-01    0.14       1.0  T
   4   -425.4655928 -0.100218E-01  0.826E-02    0.17       1.0  T
   5   -425.4663009 -0.708114E-03  0.827E-02    0.17       1.0  T
   6   -425.4691708 -0.286984E-02  0.259E-02    0.16       1.0  T
   7   -425.4689722  0.198600E-03  0.284E-02    0.16       1.0  T
   8   -425.4693492 -0.377006E-03  0.147E-02    0.16       1.0  T
   9   -425.4694230 -0.737776E-04  0.927E-03    0.16       1.0  T
  10   -425.4694643 -0.413778E-04  0.476E-03    0.16       1.4  T
  11   -425.4694726 -0.823282E-05  0.339E-03    0.16       2.0  T
  12   -425.4694768 -0.425148E-05  0.164E-03    0.16       4.1  T
  13   -425.4694770 -0.210034E-06  0.105E-03    0.16       6.4  T
  14   -425.4694776 -0.605080E-06  0.390E-04    0.16      17.2  T
  15   -425.4694777 -0.243047E-07  0.260E-04    0.16      25.8  T
     SCC iter.                  ...        0 min,  2.965 sec
     gradient                   ...        0 min,  0.212 sec
 * total energy  :  -420.0961349 Eh     change       -0.1168554E-02 Eh
   gradient norm :     0.0075338 Eh/α   predicted    -0.9983207E-03 ( -14.57%)
   displ. norm   :     0.6135268 α      lambda       -0.1101358E-02
   maximum displ.:     0.2873576 α      in ANC's #12, #5, #4, ...

........................................................................
.............................. CYCLE    8 ..............................
........................................................................

 iter      E             dE          RMSdq      gap      omega  full diag
   1   -425.4714758 -0.425471E+03  0.427E-02    0.16       0.0  T
   2   -425.4636723  0.780345E-02  0.104E-01    0.12       1.0  T
   3   -425.4636214  0.509601E-04  0.101E-01    0.15       1.0  T
   4   -425.4665157 -0.289429E-02  0.954E-02    0.17       1.0  T
   5   -425.4691893 -0.267365E-02  0.723E-02    0.18       1.0  T
   6   -425.4712332 -0.204391E-02  0.260E-02    0.16       1.0  T
   7   -425.4710388  0.194415E-03  0.283E-02    0.16       1.0  T
   8   -425.4714355 -0.396726E-03  0.139E-02    0.16       1.0  T
   9   -425.4715040 -0.684316E-04  0.833E-03    0.16       1.0  T
  10   -425.4715334 -0.294646E-04  0.467E-03    0.16       1.4  T
  11   -425.4715422 -0.879126E-05  0.284E-03    0.16       2.4  T
  12   -425.4715445 -0.230341E-05  0.157E-03    0.16       4.3  T
  13   -425.4715450 -0.483866E-06  0.939E-04    0.16       7.2  T
  14   -425.4715455 -0.459744E-06  0.328E-04    0.16      20.5  T
     SCC iter.                  ...        0 min,  2.540 sec
     gradient                   ...        0 min,  0.220 sec
 * total energy  :  -420.0970303 Eh     change       -0.8954648E-03 Eh
   gradient norm :     0.0061103 Eh/α   predicted    -0.7579775E-03 ( -15.35%)
   displ. norm   :     0.6087870 α      lambda       -0.8667794E-03
   maximum displ.:     0.2971953 α      in ANC's #12, #5, #4, ...

........................................................................
.............................. CYCLE    9 ..............................
........................................................................

 iter      E             dE          RMSdq      gap      omega  full diag
   1   -425.4734923 -0.425473E+03  0.420E-02    0.16       0.0  T
   2   -425.4628354  0.106569E-01  0.121E-01    0.12       1.0  T
   3   -425.4684807 -0.564537E-02  0.824E-02    0.16       1.0  T
   4   -425.4661267  0.235400E-02  0.118E-01    0.16       1.0  T
   5   -425.4718564 -0.572964E-02  0.594E-02    0.18       1.0  T
   6   -425.4725217 -0.665367E-03  0.416E-02    0.16       1.0  T
   7   -425.4730946 -0.572850E-03  0.279E-02    0.16       1.0  T
   8   -425.4735116 -0.416971E-03  0.115E-02    0.16       1.0  T
   9   -425.4735400 -0.284326E-04  0.786E-03    0.16       1.0  T
  10   -425.4735578 -0.178080E-04  0.490E-03    0.16       1.4  T
  11   -425.4735673 -0.946321E-05  0.259E-03    0.16       2.6  T
  12   -425.4735679 -0.599577E-06  0.194E-03    0.16       3.5  T
  13   -425.4735695 -0.161671E-05  0.853E-04    0.16       7.9  T
  14   -425.4735699 -0.375769E-06  0.299E-04    0.16      22.4  T
  15   -425.4735699 -0.747718E-08  0.211E-04    0.16      31.8  T
     SCC iter.                  ...        0 min,  2.651 sec
     gradient                   ...        0 min,  0.244 sec
 * total energy  :  -420.0977402 Eh     change       -0.7098135E-03 Eh
   gradient norm :     0.0060835 Eh/α   predicted    -0.5940141E-03 ( -16.31%)
   displ. norm   :     0.6038612 α      lambda       -0.7124002E-03
   maximum displ.:     0.3012686 α      in ANC's #12, #5, #4, ...

........................................................................
.............................. CYCLE   10 ..............................
........................................................................

 iter      E             dE          RMSdq      gap      omega  full diag
   1   -425.4753468 -0.425475E+03  0.425E-02    0.16       0.0  T
   2   -425.4629254  0.124213E-01  0.130E-01    0.12       1.0  T
   3   -425.4709158 -0.799033E-02  0.781E-02    0.16       1.0  T
   4   -425.4610972  0.981860E-02  0.161E-01    0.14       1.0  T
   5   -425.4736306 -0.125334E-01  0.549E-02    0.17       1.0  T
   6   -425.4739835 -0.352933E-03  0.478E-02    0.16       1.0  T
   7   -425.4753180 -0.133441E-02  0.149E-02    0.16       1.0  T
   8   -425.4753679 -0.499139E-04  0.121E-02    0.16       1.0  T
   9   -425.4754160 -0.480950E-04  0.597E-03    0.16       1.1  T
  10   -425.4754234 -0.742727E-05  0.382E-03    0.16       1.8  T
  11   -425.4754269 -0.352683E-05  0.302E-03    0.16       2.2  T
  12   -425.4754261  0.828707E-06  0.257E-03    0.16       2.6  T
  13   -425.4754299 -0.381497E-05  0.100E-03    0.16       6.7  T
  14   -425.4754304 -0.483627E-06  0.296E-04    0.16      22.7  T
  15   -425.4754304 -0.155785E-08  0.224E-04    0.16      30.0  T
     SCC iter.                  ...        0 min,  2.762 sec
     gradient                   ...        0 min,  0.220 sec
 * total energy  :  -420.0983259 Eh     change       -0.5857357E-03 Eh
   gradient norm :     0.0063553 Eh/α   predicted    -0.4860897E-03 ( -17.01%)
   displ. norm   :     0.6012019 α      lambda       -0.6062409E-03
   maximum displ.:     0.3011455 α      in ANC's #12, #5, #4, ...

........................................................................
.............................. CYCLE   11 ..............................
........................................................................

 iter      E             dE          RMSdq      gap      omega  full diag
   1   -425.4764603 -0.425476E+03  0.442E-02    0.16       0.0  T
   2   -425.4623841  0.140763E-01  0.139E-01    0.12       1.0  T
   3   -425.4716765 -0.929245E-02  0.815E-02    0.16       1.0  T
   4   -425.4585102  0.131664E-01  0.176E-01    0.13       1.0  T
   5   -425.4725207 -0.140105E-01  0.803E-02    0.16       1.0  T
   6   -425.4759587 -0.343803E-02  0.312E-02    0.16       1.0  T
   7   -425.4763236 -0.364962E-03  0.212E-02    0.16       1.0  T
   8   -425.4765140 -0.190338E-03  0.985E-03    0.16       1.0  T
   9   -425.4765355 -0.215249E-04  0.716E-03    0.16       1.0  T
  10   -425.4765562 -0.206850E-04  0.345E-03    0.16       1.9  T
  11   -425.4765564 -0.246093E-06  0.312E-03    0.16       2.2  T
  12   -425.4765595 -0.309487E-05  0.199E-03    0.16       3.4  T
  13   -425.4765614 -0.189406E-05  0.683E-04    0.16       9.8  T
  14   -425.4765616 -0.185996E-06  0.280E-04    0.16      23.9  T
  15   -425.4765616  0.368682E-07  0.300E-04    0.16      22.4  T
     SCC iter.                  ...        0 min,  2.579 sec
     gradient                   ...        0 min,  0.231 sec
 * total energy  :  -420.0988240 Eh     change       -0.4981082E-03 Eh
   gradient norm :     0.0058298 Eh/α   predicted    -0.4126854E-03 ( -17.15%)
   displ. norm   :     0.5937881 α      lambda       -0.5246537E-03
   maximum displ.:     0.2928479 α      in ANC's #12, #5, #4, ...

........................................................................
.............................. CYCLE   12 ..............................
........................................................................

 iter      E             dE          RMSdq      gap      omega  full diag
   1   -425.4775476 -0.425478E+03  0.463E-02    0.16       0.0  T
   2   -425.4651668  0.123808E-01  0.132E-01    0.12       1.0  T
   3   -425.4705950 -0.542825E-02  0.972E-02    0.16       1.0  T
   4   -425.4617865  0.880851E-02  0.162E-01    0.13       1.0  T
   5   -425.4690027 -0.721617E-02  0.118E-01    0.16       1.0  T
   6   -425.4770428 -0.804014E-02  0.326E-02    0.16       1.0  T
   7   -425.4774767 -0.433875E-03  0.188E-02    0.16       1.0  T
   8   -425.4776106 -0.133887E-03  0.953E-03    0.16       1.0  T
   9   -425.4776268 -0.162023E-04  0.747E-03    0.16       1.0  T
  10   -425.4776448 -0.180294E-04  0.411E-03    0.16       1.6  T
  11   -425.4776451 -0.287723E-06  0.366E-03    0.16       1.8  T
  12   -425.4776504 -0.534390E-05  0.184E-03    0.16       3.6  T
  13   -425.4776519 -0.147281E-05  0.628E-04    0.16      10.7  T
  14   -425.4776521 -0.201742E-06  0.302E-04    0.16      22.2  T
  15   -425.4776521 -0.313435E-09  0.236E-04    0.16      28.4  T
     SCC iter.                  ...        0 min,  2.527 sec
     gradient                   ...        0 min,  0.223 sec
 * total energy  :  -420.0992505 Eh     change       -0.4265313E-03 Eh
   gradient norm :     0.0050355 Eh/α   predicted    -0.3548197E-03 ( -16.81%)
   displ. norm   :     0.5812442 α      lambda       -0.4471516E-03
   maximum displ.:     0.2763553 α      in ANC's #12, #5, #4, ...

........................................................................
.............................. CYCLE   13 ..............................
........................................................................

 iter      E             dE          RMSdq      gap      omega  full diag
   1   -425.4773089 -0.425477E+03  0.469E-02    0.15       0.0  T
   2   -425.4693734  0.793551E-02  0.108E-01    0.13       1.0  T
   3   -425.4671074  0.226601E-02  0.116E-01    0.15       1.0  T
   4   -425.4620054  0.510199E-02  0.158E-01    0.12       1.0  T
   5   -425.4671552 -0.514980E-02  0.129E-01    0.16       1.0  T
   6   -425.4766430 -0.948782E-02  0.369E-02    0.15       1.0  T
   7   -425.4772614 -0.618440E-03  0.165E-02    0.16       1.0  T
   8   -425.4773553 -0.938472E-04  0.917E-03    0.16       1.0  T
   9   -425.4773616 -0.629899E-05  0.821E-03    0.15       1.0  T
  10   -425.4773856 -0.240212E-04  0.426E-03    0.15       1.6  T
  11   -425.4773881 -0.249887E-05  0.309E-03    0.16       2.2  T
  12   -425.4773914 -0.334364E-05  0.181E-03    0.15       3.7  T
  13   -425.4773928 -0.135378E-05  0.650E-04    0.15      10.3  T
  14   -425.4773930 -0.218921E-06  0.321E-04    0.15      20.9  T
  15   -425.4773930 -0.131140E-07  0.219E-04    0.15      30.7  T
     SCC iter.                  ...        0 min,  2.471 sec
     gradient                   ...        0 min,  0.217 sec
 * total energy  :  -420.0996077 Eh     change       -0.3571428E-03 Eh
   gradient norm :     0.0049769 Eh/α   predicted    -0.2991105E-03 ( -16.25%)
   displ. norm   :     0.5539033 α      lambda       -0.3893383E-03
   maximum displ.:     0.2465051 α      in ANC's #12, #5, #1, ...

........................................................................
.............................. CYCLE   14 ..............................
........................................................................

 iter      E             dE          RMSdq      gap      omega  full diag
   1   -425.4790603 -0.425479E+03  0.472E-02    0.15       0.0  T
   2   -425.4759685  0.309181E-02  0.733E-02    0.15       1.0  T
   3   -425.4640993  0.118692E-01  0.143E-01    0.15       1.0  T
   4   -425.4597629  0.433635E-02  0.174E-01    0.11       1.0  T
   5   -425.4700181 -0.102552E-01  0.118E-01    0.16       1.0  T
   6   -425.4782581 -0.823999E-02  0.378E-02    0.15       1.0  T
   7   -425.4789967 -0.738596E-03  0.161E-02    0.16       1.0  T
   8   -425.4790458 -0.490887E-04  0.110E-02    0.15       1.0  T
   9   -425.4790652 -0.194695E-04  0.977E-03    0.15       1.0  T
  10   -425.4791061 -0.408916E-04  0.392E-03    0.15       1.7  T
  11   -425.4791083 -0.213856E-05  0.253E-03    0.15       2.7  T
  12   -425.4791096 -0.129743E-05  0.203E-03    0.15       3.3  T
  13   -425.4791116 -0.203048E-05  0.653E-04    0.15      10.3  T
  14   -425.4791118 -0.148847E-06  0.387E-04    0.15      17.4  T
  15   -425.4791118 -0.503529E-07  0.212E-04    0.15      31.6  T
     SCC iter.                  ...        0 min,  2.486 sec
     gradient                   ...        0 min,  0.227 sec
 * total energy  :  -420.0999042 Eh     change       -0.2965096E-03 Eh
   gradient norm :     0.0068814 Eh/α   predicted    -0.2544071E-03 ( -14.20%)
   displ. norm   :     0.5369225 α      lambda       -0.3576952E-03
   maximum displ.:     0.2232148 α      in ANC's #12, #5, #1, ...

........................................................................
.............................. CYCLE   15 ..............................
........................................................................

 iter      E             dE          RMSdq      gap      omega  full diag
   1   -425.4769754 -0.425477E+03  0.455E-02    0.15       0.0  T
   2   -425.4747656  0.220981E-02  0.626E-02    0.17       1.0  T
   3   -425.4609376  0.138280E-01  0.143E-01    0.11       1.0  T
   4   -425.4611751 -0.237488E-03  0.168E-01    0.15       1.0  T
   5   -425.4711710 -0.999591E-02  0.964E-02    0.15       1.0  T
   6   -425.4765009 -0.532987E-02  0.288E-02    0.16       1.0  T
   7   -425.4766987 -0.197839E-03  0.229E-02    0.15       1.0  T
   8   -425.4768644 -0.165701E-03  0.151E-02    0.15       1.0  T
   9   -425.4768898 -0.254286E-04  0.126E-02    0.15       1.0  T
  10   -425.4769912 -0.101311E-03  0.492E-03    0.15       1.4  T
  11   -425.4769992 -0.806909E-05  0.403E-03    0.15       1.7  T
  12   -425.4770054 -0.617782E-05  0.153E-03    0.15       4.4  T
  13   -425.4770060 -0.563635E-06  0.875E-04    0.15       7.7  T
  14   -425.4770064 -0.453888E-06  0.323E-04    0.15      20.8  T
     SCC iter.                  ...        0 min,  2.232 sec
     gradient                   ...        0 min,  0.217 sec
 * total energy  :  -420.1001647 Eh     change       -0.2605200E-03 Eh
   gradient norm :     0.0075284 Eh/α   predicted    -0.2304115E-03 ( -11.56%)
   displ. norm   :     0.4672638 α      lambda       -0.3316181E-03
   maximum displ.:     0.1633719 α      in ANC's #5, #12, #1, ...

........................................................................
.............................. CYCLE   16 ..............................
........................................................................

 iter      E             dE          RMSdq      gap      omega  full diag
   1   -425.4795014 -0.425480E+03  0.416E-02    0.15       0.0  T
   2   -425.4698256  0.967583E-02  0.111E-01    0.15       1.0  T
   3   -425.4728841 -0.305855E-02  0.934E-02    0.13       1.0  T
   4   -425.4735046 -0.620443E-03  0.108E-01    0.17       1.0  T
   5   -425.4759933 -0.248872E-02  0.724E-02    0.15       1.0  T
   6   -425.4789380 -0.294474E-02  0.302E-02    0.15       1.0  T
   7   -425.4792931 -0.355047E-03  0.200E-02    0.15       1.0  T
   8   -425.4793891 -0.960040E-04  0.161E-02    0.15       1.0  T
   9   -425.4794866 -0.975269E-04  0.980E-03    0.15       1.0  T
  10   -425.4795309 -0.442994E-04  0.534E-03    0.15       1.3  T
  11   -425.4795498 -0.188895E-04  0.268E-03    0.15       2.5  T
  12   -425.4795521 -0.232655E-05  0.132E-03    0.15       5.1  T
  13   -425.4795519  0.177033E-06  0.100E-03    0.15       6.7  T
  14   -425.4795527 -0.737098E-06  0.199E-04    0.15      33.8  T
  15   -425.4795527  0.885046E-08  0.183E-04    0.15      36.6  T
     SCC iter.                  ...        0 min,  2.247 sec
     gradient                   ...        0 min,  0.209 sec
 * total energy  :  -420.1004190 Eh     change       -0.2542815E-03 Eh
   gradient norm :     0.0066303 Eh/α   predicted    -0.2020119E-03 ( -20.56%)
   displ. norm   :     0.4710033 α      lambda       -0.3269585E-03
   maximum displ.:     0.1751953 α      in ANC's #5, #1, #4, ...

........................................................................
.............................. CYCLE   17 ..............................
........................................................................

 iter      E             dE          RMSdq      gap      omega  full diag
   1   -425.4795197 -0.425480E+03  0.418E-02    0.15       0.0  T
   2   -425.4512030  0.283168E-01  0.187E-01    0.12       1.0  T
   3   -425.4765765 -0.253735E-01  0.664E-02    0.14       1.0  T
   4   -425.4644175  0.121590E-01  0.153E-01    0.18       1.0  T
   5   -425.4768837 -0.124662E-01  0.625E-02    0.16       1.0  T
   6   -425.4789588 -0.207517E-02  0.334E-02    0.15       1.0  T
   7   -425.4793500 -0.391192E-03  0.222E-02    0.15       1.0  T
   8   -425.4795091 -0.159092E-03  0.161E-02    0.16       1.0  T
   9   -425.4796180 -0.108865E-03  0.820E-03    0.16       1.0  T
  10   -425.4796449 -0.269276E-04  0.482E-03    0.16       1.4  T
  11   -425.4796574 -0.125126E-04  0.307E-03    0.16       2.2  T
  12   -425.4796603 -0.292008E-05  0.182E-03    0.16       3.7  T
  13   -425.4796603  0.688680E-07  0.140E-03    0.16       4.8  T
  14   -425.4796616 -0.129302E-05  0.413E-04    0.16      16.2  T
  15   -425.4796616 -0.581855E-07  0.215E-04    0.16      31.1  T
  16   -425.4796616 -0.216099E-07  0.871E-05    0.16      77.0  T
     SCC iter.                  ...        0 min,  2.364 sec
     gradient                   ...        0 min,  0.213 sec
 * total energy  :  -420.1006656 Eh     change       -0.2465707E-03 Eh
   gradient norm :     0.0057304 Eh/α   predicted    -0.1997465E-03 ( -18.99%)
   displ. norm   :     0.4641923 α      lambda       -0.3071275E-03
   maximum displ.:     0.1733997 α      in ANC's #5, #1, #11, ...

........................................................................
.............................. CYCLE   18 ..............................
........................................................................

 iter      E             dE          RMSdq      gap      omega  full diag
   1   -425.4811135 -0.425481E+03  0.428E-02    0.16       0.0  T
   2   -425.4380697  0.430437E-01  0.235E-01    0.11       1.0  T
   3   -425.4791000 -0.410302E-01  0.582E-02    0.14       1.0  T
   4   -425.4625768  0.165231E-01  0.167E-01    0.18       1.0  T
   5   -425.4785735 -0.159966E-01  0.617E-02    0.16       1.0  T
   6   -425.4798761 -0.130265E-02  0.475E-02    0.15       1.0  T
   7   -425.4808885 -0.101241E-02  0.269E-02    0.15       1.0  T
   8   -425.4811649 -0.276379E-03  0.168E-02    0.16       1.0  T
   9   -425.4812849 -0.120028E-03  0.884E-03    0.16       1.0  T
  10   -425.4812988 -0.138537E-04  0.710E-03    0.16       1.0  T
  11   -425.4813285 -0.296750E-04  0.403E-03    0.16       1.7  T
  12   -425.4813325 -0.399211E-05  0.247E-03    0.16       2.7  T
  13   -425.4813332 -0.751900E-06  0.171E-03    0.16       3.9  T
  14   -425.4813348 -0.159266E-05  0.812E-04    0.16       8.3  T
  15   -425.4813351 -0.254104E-06  0.410E-04    0.16      16.4  T
  16   -425.4813351 -0.888650E-07  0.132E-04    0.16      50.7  T
     SCC iter.                  ...        0 min,  2.727 sec
     gradient                   ...        0 min,  0.222 sec
 * total energy  :  -420.1008633 Eh     change       -0.1977133E-03 Eh
   gradient norm :     0.0060904 Eh/α   predicted    -0.1866545E-03 (  -5.59%)
   displ. norm   :     0.4442463 α      lambda       -0.2572534E-03
   maximum displ.:     0.1801520 α      in ANC's #5, #1, #4, ...

........................................................................
.............................. CYCLE   19 ..............................
........................................................................

 iter      E             dE          RMSdq      gap      omega  full diag
   1   -425.4786167 -0.425479E+03  0.338E-02    0.16       0.0  T
   2   -425.4594778  0.191390E-01  0.158E-01    0.14       1.0  T
   3   -425.4763134 -0.168357E-01  0.585E-02    0.14       1.0  T
   4   -425.4733376  0.297580E-02  0.953E-02    0.18       1.0  T
   5   -425.4729266  0.411061E-03  0.933E-02    0.16       1.0  T
   6   -425.4779340 -0.500748E-02  0.358E-02    0.16       1.0  T
   7   -425.4783363 -0.402251E-03  0.242E-02    0.16       1.0  T
   8   -425.4786293 -0.292961E-03  0.116E-02    0.16       1.0  T
   9   -425.4786943 -0.650806E-04  0.653E-03    0.16       1.0  T
  10   -425.4787085 -0.141422E-04  0.400E-03    0.16       1.7  T
  11   -425.4787173 -0.886692E-05  0.263E-03    0.16       2.6  T
  12   -425.4787193 -0.199523E-05  0.144E-03    0.16       4.7  T
  13   -425.4787197 -0.365998E-06  0.936E-04    0.16       7.2  T
  14   -425.4787201 -0.378624E-06  0.549E-04    0.16      12.2  T
     SCC iter.                  ...        0 min,  2.361 sec
     gradient                   ...        0 min,  0.222 sec
 * total energy  :  -420.1010361 Eh     change       -0.1728125E-03 Eh
   gradient norm :     0.0063928 Eh/α   predicted    -0.1540122E-03 ( -10.88%)
   displ. norm   :     0.3660355 α      lambda       -0.2033624E-03
   maximum displ.:     0.1509345 α      in ANC's #5, #1, #4, ...

........................................................................
.............................. CYCLE   20 ..............................
........................................................................

 iter      E             dE          RMSdq      gap      omega  full diag
   1   -425.4788501 -0.425479E+03  0.283E-02    0.16       0.0  T
   2   -425.4744986  0.435153E-02  0.795E-02    0.17       1.0  T
   3   -425.4759405 -0.144190E-02  0.623E-02    0.14       1.0  T
   4   -425.4744272  0.151334E-02  0.849E-02    0.17       1.0  T
   5   -425.4751705 -0.743376E-03  0.762E-02    0.16       1.0  T
   6   -425.4782524 -0.308188E-02  0.328E-02    0.16       1.0  T
   7   -425.4787643 -0.511872E-03  0.139E-02    0.16       1.0  T
   8   -425.4788598 -0.955178E-04  0.613E-03    0.16       1.1  T
   9   -425.4788787 -0.189015E-04  0.337E-03    0.16       2.0  T
  10   -425.4788843 -0.559730E-05  0.135E-03    0.16       5.0  T
  11   -425.4788842  0.109749E-06  0.146E-03    0.16       4.6  T
  12   -425.4788848 -0.583372E-06  0.103E-03    0.16       6.5  T
  13   -425.4788850 -0.241880E-06  0.504E-04    0.16      13.3  T
  14   -425.4788852 -0.161320E-06  0.154E-04    0.16      43.6  T
     SCC iter.                  ...        0 min,  2.624 sec
     gradient                   ...        0 min,  0.225 sec
 * total energy  :  -420.1011982 Eh     change       -0.1620984E-03 Eh
   gradient norm :     0.0060447 Eh/α   predicted    -0.1153060E-03 ( -28.87%)
   displ. norm   :     0.4253280 α      lambda       -0.2429365E-03
   maximum displ.:     0.1794594 α      in ANC's #1, #5, #4, ...
 * RMSD in coord.:     0.5635834 α      energy gain  -0.3698946E-01 Eh

generating ANC from model Hessian ...
Using Lindh-Hessian (1995)
 Shifting diagonal of input Hessian by    1.0010075339210606E-002
 Lowest  eigenvalues of input Hessian
    0.010000    0.010006    0.000000    0.000000    0.000000    0.000000
    0.000000    0.000000    0.010032    0.010086    0.010092    0.010099
    0.010165    0.010207    0.010221    0.010254    0.010320    0.010360
 Highest eigenvalues
    2.384979    2.385678    2.386812    2.387113    2.387690    2.388087


........................................................................
.............................. CYCLE   21 ..............................
........................................................................

 iter      E             dE          RMSdq      gap      omega  full diag
   1   -425.4800011 -0.425480E+03  0.337E-02    0.16       0.0  T
   2   -425.4790907  0.910380E-03  0.468E-02    0.17       1.0  T
   3   -425.4764317  0.265906E-02  0.783E-02    0.15       1.0  T
   4   -425.4663107  0.101209E-01  0.132E-01    0.15       1.0  T
   5   -425.4762122 -0.990146E-02  0.771E-02    0.15       1.0  T
   6   -425.4791483 -0.293609E-02  0.369E-02    0.17       1.0  T
   7   -425.4798541 -0.705785E-03  0.177E-02    0.16       1.0  T
   8   -425.4800197 -0.165626E-03  0.409E-03    0.16       1.6  T
   9   -425.4800191  0.575675E-06  0.401E-03    0.16       1.7  T
  10   -425.4800253 -0.619878E-05  0.182E-03    0.16       3.7  T
  11   -425.4800263 -0.972630E-06  0.102E-03    0.16       6.6  T
  12   -425.4800265 -0.171095E-06  0.830E-04    0.16       8.1  T
  13   -425.4800266 -0.144747E-06  0.538E-04    0.16      12.5  T
     SCC iter.                  ...        0 min,  1.986 sec
     gradient                   ...        0 min,  0.212 sec
 * total energy  :  -420.1013830 Eh     change       -0.1847751E-03 Eh
   gradient norm :     0.0055355 Eh/α   predicted     0.0000000E+00 (-100.00%)
   displ. norm   :     0.0575088 α      lambda       -0.4138421E-04
   maximum displ.:     0.0194455 α      in ANC's #12, #4, #2, ...

........................................................................
.............................. CYCLE   22 ..............................
........................................................................

 iter      E             dE          RMSdq      gap      omega  full diag
   1   -425.4806675 -0.425481E+03  0.774E-03    0.16       0.0  T
   2   -425.4797150  0.952512E-03  0.349E-02    0.15       1.0  T
   3   -425.4804940 -0.779006E-03  0.157E-02    0.17       1.0  T
   4   -425.4805237 -0.296833E-04  0.165E-02    0.16       1.0  T
   5   -425.4804633  0.603389E-04  0.186E-02    0.16       1.0  T
   6   -425.4806213 -0.157986E-03  0.970E-03    0.16       1.0  T
   7   -425.4806573 -0.359691E-04  0.586E-03    0.16       1.1  T
   8   -425.4806716 -0.143161E-04  0.257E-03    0.16       2.6  T
   9   -425.4806741 -0.250237E-05  0.145E-03    0.16       4.6  T
  10   -425.4806747 -0.615000E-06  0.742E-04    0.16       9.0  T
  11   -425.4806750 -0.252262E-06  0.360E-04    0.16      18.6  T
     SCC iter.                  ...        0 min,  1.713 sec
     gradient                   ...        0 min,  0.214 sec
 * total energy  :  -420.1014429 Eh     change       -0.5998011E-04 Eh
   gradient norm :     0.0034695 Eh/α   predicted    -0.3466783E-04 ( -42.20%)
   displ. norm   :     0.2283810 α      lambda       -0.1892088E-03
   maximum displ.:     0.0814231 α      in ANC's #12, #4, #2, ...

........................................................................
.............................. CYCLE   23 ..............................
........................................................................

 iter      E             dE          RMSdq      gap      omega  full diag
   1   -425.4812324 -0.425481E+03  0.268E-02    0.16       0.0  T
   2   -425.4721868  0.904560E-02  0.106E-01    0.13       1.0  T
   3   -425.4787839 -0.659708E-02  0.596E-02    0.17       1.0  T
   4   -425.4798944 -0.111050E-02  0.518E-02    0.16       1.0  T
   5   -425.4781610  0.173336E-02  0.702E-02    0.16       1.0  T
   6   -425.4806957 -0.253470E-02  0.332E-02    0.15       1.0  T
   7   -425.4810927 -0.396955E-03  0.212E-02    0.16       1.0  T
   8   -425.4812626 -0.169923E-03  0.980E-03    0.16       1.0  T
   9   -425.4813000 -0.373403E-04  0.605E-03    0.16       1.1  T
  10   -425.4813118 -0.118800E-04  0.372E-03    0.16       1.8  T
  11   -425.4813212 -0.932907E-05  0.135E-03    0.16       5.0  T
  12   -425.4813198  0.131905E-05  0.163E-03    0.16       4.1  T
  13   -425.4813220 -0.216456E-05  0.375E-04    0.16      17.9  T
  14   -425.4813220 -0.437683E-08  0.285E-04    0.16      23.5  T
  15   -425.4813220 -0.290360E-07  0.127E-04    0.16      53.0  T
     SCC iter.                  ...        0 min,  2.500 sec
     gradient                   ...        0 min,  0.222 sec
 * total energy  :  -420.1015672 Eh     change       -0.1242958E-03 Eh
   gradient norm :     0.0034222 Eh/α   predicted    -0.9953943E-04 ( -19.92%)
   displ. norm   :     0.1798131 α      lambda       -0.7735935E-04
   maximum displ.:     0.0670010 α      in ANC's #12, #4, #2, ...

........................................................................
.............................. CYCLE   24 ..............................
........................................................................

 iter      E             dE          RMSdq      gap      omega  full diag
   1   -425.4810734 -0.425481E+03  0.172E-02    0.16       0.0  T
   2   -425.4775958  0.347761E-02  0.663E-02    0.14       1.0  T
   3   -425.4799294 -0.233367E-02  0.397E-02    0.17       1.0  T
   4   -425.4804783 -0.548854E-03  0.347E-02    0.15       1.0  T
   5   -425.4797051  0.773202E-03  0.471E-02    0.16       1.0  T
   6   -425.4808617 -0.115663E-02  0.202E-02    0.15       1.0  T
   7   -425.4810380 -0.176232E-03  0.112E-02    0.16       1.0  T
   8   -425.4810906 -0.526566E-04  0.460E-03    0.16       1.5  T
   9   -425.4810969 -0.631984E-05  0.297E-03    0.16       2.3  T
  10   -425.4810989 -0.198118E-05  0.217E-03    0.16       3.1  T
  11   -425.4811020 -0.308802E-05  0.781E-04    0.16       8.6  T
  12   -425.4811018  0.242173E-06  0.851E-04    0.16       7.9  T
  13   -425.4811023 -0.549842E-06  0.279E-04    0.16      24.0  T
     SCC iter.                  ...        0 min,  2.046 sec
     gradient                   ...        0 min,  0.209 sec
 * total energy  :  -420.1016306 Eh     change       -0.6341273E-04 Eh
   gradient norm :     0.0048370 Eh/α   predicted    -0.4024766E-04 ( -36.53%)
   displ. norm   :     0.2971464 α      lambda       -0.1258300E-03
   maximum displ.:     0.1137669 α      in ANC's #4, #12, #2, ...

........................................................................
.............................. CYCLE   25 ..............................
........................................................................

 iter      E             dE          RMSdq      gap      omega  full diag
   1   -425.4803996 -0.425480E+03  0.245E-02    0.15       0.0  T
   2   -425.4758351  0.456448E-02  0.758E-02    0.13       1.0  T
   3   -425.4777644 -0.192924E-02  0.590E-02    0.17       1.0  T
   4   -425.4790586 -0.129428E-02  0.538E-02    0.15       1.0  T
   5   -425.4786705  0.388172E-03  0.547E-02    0.16       1.0  T
   6   -425.4801446 -0.147414E-02  0.213E-02    0.15       1.0  T
   7   -425.4803110 -0.166362E-03  0.151E-02    0.15       1.0  T
   8   -425.4804067 -0.957573E-04  0.680E-03    0.15       1.0  T
   9   -425.4804176 -0.108701E-04  0.505E-03    0.15       1.3  T
  10   -425.4804280 -0.104491E-04  0.350E-03    0.15       1.9  T
  11   -425.4804363 -0.820435E-05  0.106E-03    0.15       6.3  T
  12   -425.4804353  0.964101E-06  0.132E-03    0.15       5.1  T
  13   -425.4804367 -0.139301E-05  0.346E-04    0.15      19.4  T
  14   -425.4804367 -0.433504E-07  0.150E-04    0.15      44.7  T
  15   -425.4804367 -0.742415E-08  0.594E-05    0.15     112.9  T
     SCC iter.                  ...        0 min,  2.646 sec
     gradient                   ...        0 min,  0.215 sec
 * total energy  :  -420.1017355 Eh     change       -0.1048467E-03 Eh
   gradient norm :     0.0053060 Eh/α   predicted    -0.6847081E-04 ( -34.69%)
   displ. norm   :     0.4197957 α      lambda       -0.1705357E-03
   maximum displ.:     0.1647994 α      in ANC's #4, #2, #12, ...

........................................................................
.............................. CYCLE   26 ..............................
........................................................................

 iter      E             dE          RMSdq      gap      omega  full diag
   1   -425.4794873 -0.425479E+03  0.304E-02    0.15       0.0  T
   2   -425.4764576  0.302962E-02  0.642E-02    0.14       1.0  T
   3   -425.4739483  0.250935E-02  0.838E-02    0.16       1.0  T
   4   -425.4758191 -0.187080E-02  0.811E-02    0.14       1.0  T
   5   -425.4762028 -0.383729E-03  0.716E-02    0.16       1.0  T
   6   -425.4793412 -0.313839E-02  0.169E-02    0.16       1.0  T
   7   -425.4794041 -0.628924E-04  0.151E-02    0.15       1.0  T
   8   -425.4794930 -0.888661E-04  0.561E-03    0.15       1.2  T
   9   -425.4794964 -0.343739E-05  0.486E-03    0.15       1.4  T
  10   -425.4795084 -0.120112E-04  0.257E-03    0.15       2.6  T
  11   -425.4795122 -0.377435E-05  0.909E-04    0.15       7.4  T
  12   -425.4795111  0.114541E-05  0.145E-03    0.15       4.6  T
  13   -425.4795125 -0.147312E-05  0.388E-04    0.15      17.3  T
  14   -425.4795126 -0.706974E-07  0.145E-04    0.15      46.2  T
  15   -425.4795126 -0.774662E-09  0.109E-04    0.15      61.6  T
     SCC iter.                  ...        0 min,  2.683 sec
     gradient                   ...        0 min,  0.217 sec
 * total energy  :  -420.1018748 Eh     change       -0.1392819E-03 Eh
   gradient norm :     0.0050839 Eh/α   predicted    -0.1003049E-03 ( -27.98%)
   displ. norm   :     0.4672472 α      lambda       -0.1750026E-03
   maximum displ.:     0.1875300 α      in ANC's #4, #2, #12, ...

........................................................................
.............................. CYCLE   27 ..............................
........................................................................

 iter      E             dE          RMSdq      gap      omega  full diag
   1   -425.4790871 -0.425479E+03  0.304E-02    0.15       0.0  T
   2   -425.4772753  0.181181E-02  0.556E-02    0.15       1.0  T
   3   -425.4764444  0.830923E-03  0.630E-02    0.16       1.0  T
   4   -425.4692984  0.714599E-02  0.112E-01    0.12       1.0  T
   5   -425.4771484 -0.785005E-02  0.530E-02    0.17       1.0  T
   6   -425.4790281 -0.187970E-02  0.140E-02    0.15       1.0  T
   7   -425.4790890 -0.608776E-04  0.500E-03    0.15       1.3  T
   8   -425.4790893 -0.276873E-06  0.552E-03    0.15       1.2  T
   9   -425.4791021 -0.128256E-04  0.299E-03    0.15       2.2  T
  10   -425.4791056 -0.345043E-05  0.192E-03    0.15       3.5  T
  11   -425.4791069 -0.136087E-05  0.987E-04    0.15       6.8  T
  12   -425.4791071 -0.152614E-06  0.692E-04    0.15       9.7  T
  13   -425.4791072 -0.114352E-06  0.428E-04    0.15      15.7  T
     SCC iter.                  ...        0 min,  2.775 sec
     gradient                   ...        0 min,  0.218 sec
 * total energy  :  -420.1020194 Eh     change       -0.1445793E-03 Eh
   gradient norm :     0.0049444 Eh/α   predicted    -0.1066170E-03 ( -26.26%)
   displ. norm   :     0.4961911 α      lambda       -0.1823973E-03
   maximum displ.:     0.2047972 α      in ANC's #2, #4, #12, ...

........................................................................
.............................. CYCLE   28 ..............................
........................................................................

 iter      E             dE          RMSdq      gap      omega  full diag
   1   -425.4795553 -0.425480E+03  0.298E-02    0.15       0.0  T
   2   -425.4747570  0.479825E-02  0.871E-02    0.16       1.0  T
   3   -425.4782356 -0.347857E-02  0.457E-02    0.14       1.0  T
   4   -425.4634785  0.147571E-01  0.142E-01    0.15       1.0  T
   5   -425.4774686 -0.139902E-01  0.577E-02    0.15       1.0  T
   6   -425.4793438 -0.187516E-02  0.233E-02    0.16       1.0  T
   7   -425.4794809 -0.137084E-03  0.159E-02    0.15       1.0  T
   8   -425.4795850 -0.104157E-03  0.576E-03    0.15       1.2  T
   9   -425.4795964 -0.113244E-04  0.251E-03    0.15       2.7  T
  10   -425.4795977 -0.133020E-05  0.196E-03    0.15       3.4  T
  11   -425.4795989 -0.120810E-05  0.128E-03    0.15       5.2  T
  12   -425.4795993 -0.442986E-06  0.711E-04    0.15       9.4  T
  13   -425.4795995 -0.152569E-06  0.432E-04    0.15      15.5  T
     SCC iter.                  ...        0 min,  2.472 sec
     gradient                   ...        0 min,  0.216 sec
 * total energy  :  -420.1021743 Eh     change       -0.1549917E-03 Eh
   gradient norm :     0.0050573 Eh/α   predicted    -0.1136907E-03 ( -26.65%)
   displ. norm   :     0.5494718 α      lambda       -0.2073395E-03
   maximum displ.:     0.2350033 α      in ANC's #2, #4, #1, ...

........................................................................
.............................. CYCLE   29 ..............................
........................................................................

 iter      E             dE          RMSdq      gap      omega  full diag
   1   -425.4803722 -0.425480E+03  0.323E-02    0.15       0.0  T
   2   -425.4670656  0.133066E-01  0.139E-01    0.15       1.0  T
   3   -425.4784515 -0.113859E-01  0.532E-02    0.14       1.0  T
   4   -425.4693017  0.914984E-02  0.122E-01    0.16       1.0  T
   5   -425.4779051 -0.860339E-02  0.642E-02    0.16       1.0  T
   6   -425.4800609 -0.215583E-02  0.282E-02    0.15       1.0  T
   7   -425.4802911 -0.230140E-03  0.188E-02    0.15       1.0  T
   8   -425.4804406 -0.149572E-03  0.707E-03    0.15       1.0  T
   9   -425.4804558 -0.151348E-04  0.387E-03    0.15       1.7  T
  10   -425.4804608 -0.506270E-05  0.243E-03    0.15       2.8  T
  11   -425.4804631 -0.229327E-05  0.195E-03    0.15       3.4  T
  12   -425.4804645 -0.134940E-05  0.831E-04    0.15       8.1  T
  13   -425.4804644  0.112519E-06  0.696E-04    0.15       9.6  T
  14   -425.4804647 -0.374382E-06  0.131E-04    0.15      51.2  T
     SCC iter.                  ...        0 min,  2.581 sec
     gradient                   ...        0 min,  0.219 sec
 * total energy  :  -420.1023541 Eh     change       -0.1797408E-03 Eh
   gradient norm :     0.0054267 Eh/α   predicted    -0.1349711E-03 ( -24.91%)
   displ. norm   :     0.5975368 α      lambda       -0.2364029E-03
   maximum displ.:     0.2643733 α      in ANC's #2, #4, #1, ...

........................................................................
.............................. CYCLE   30 ..............................
........................................................................

 iter      E             dE          RMSdq      gap      omega  full diag
   1   -425.4812610 -0.425481E+03  0.353E-02    0.15       0.0  T
   2   -425.4556921  0.255689E-01  0.189E-01    0.13       1.0  T
   3   -425.4790858 -0.233937E-01  0.573E-02    0.14       1.0  T
   4   -425.4723051  0.678073E-02  0.114E-01    0.17       1.0  T
   5   -425.4774197 -0.511461E-02  0.800E-02    0.15       1.0  T
   6   -425.4807788 -0.335916E-02  0.321E-02    0.15       1.0  T
   7   -425.4811196 -0.340761E-03  0.232E-02    0.15       1.0  T
   8   -425.4813546 -0.235019E-03  0.969E-03    0.15       1.0  T
   9   -425.4813909 -0.362694E-04  0.563E-03    0.16       1.2  T
  10   -425.4813995 -0.866392E-05  0.393E-03    0.15       1.7  T
  11   -425.4814089 -0.934031E-05  0.203E-03    0.15       3.3  T
  12   -425.4814090 -0.108112E-06  0.169E-03    0.15       4.0  T
  13   -425.4814097 -0.674443E-06  0.921E-04    0.15       7.3  T
  14   -425.4814102 -0.538069E-06  0.433E-04    0.15      15.5  T
     SCC iter.                  ...        0 min,  2.958 sec
     gradient                   ...        0 min,  0.220 sec
 * total energy  :  -420.1025580 Eh     change       -0.2039145E-03 Eh
   gradient norm :     0.0055724 Eh/α   predicted    -0.1604088E-03 ( -21.34%)
   displ. norm   :     0.6193509 α      lambda       -0.2440688E-03
   maximum displ.:     0.2828553 α      in ANC's #2, #4, #1, ...

........................................................................
.............................. CYCLE   31 ..............................
........................................................................

 iter      E             dE          RMSdq      gap      omega  full diag
   1   -425.4814541 -0.425481E+03  0.367E-02    0.15       0.0  T
   2   -425.4533424  0.281116E-01  0.193E-01    0.13       1.0  T
   3   -425.4793228 -0.259804E-01  0.577E-02    0.14       1.0  T
   4   -425.4737507  0.557217E-02  0.110E-01    0.17       1.0  T
   5   -425.4750538 -0.130319E-02  0.101E-01    0.15       1.0  T
   6   -425.4807943 -0.574045E-02  0.340E-02    0.15       1.0  T
   7   -425.4812385 -0.444209E-03  0.255E-02    0.15       1.0  T
   8   -425.4815482 -0.309673E-03  0.997E-03    0.15       1.0  T
   9   -425.4815867 -0.385452E-04  0.584E-03    0.16       1.1  T
  10   -425.4815964 -0.966454E-05  0.423E-03    0.16       1.6  T
  11   -425.4816078 -0.114009E-04  0.190E-03    0.16       3.5  T
  12   -425.4816079 -0.121932E-06  0.169E-03    0.16       4.0  T
  13   -425.4816083 -0.363876E-06  0.111E-03    0.16       6.1  T
  14   -425.4816090 -0.682815E-06  0.557E-04    0.16      12.1  T
  15   -425.4816091 -0.158875E-06  0.206E-04    0.16      32.5  T
     SCC iter.                  ...        0 min,  3.395 sec
     gradient                   ...        0 min,  0.214 sec
 * total energy  :  -420.1027655 Eh     change       -0.2074566E-03 Eh
   gradient norm :     0.0050578 Eh/α   predicted    -0.1688565E-03 ( -18.61%)
   displ. norm   :     0.5972238 α      lambda       -0.2259893E-03
   maximum displ.:     0.2824844 α      in ANC's #2, #4, #1, ...

........................................................................
.............................. CYCLE   32 ..............................
........................................................................

 iter      E             dE          RMSdq      gap      omega  full diag
   1   -425.4817217 -0.425482E+03  0.349E-02    0.15       0.0  T
   2   -425.4564003  0.253214E-01  0.178E-01    0.13       1.0  T
   3   -425.4799409 -0.235406E-01  0.536E-02    0.15       1.0  T
   4   -425.4771226  0.281828E-02  0.902E-02    0.17       1.0  T
   5   -425.4746424  0.248028E-02  0.104E-01    0.14       1.0  T
   6   -425.4811742 -0.653184E-02  0.301E-02    0.15       1.0  T
   7   -425.4815538 -0.379594E-03  0.239E-02    0.16       1.0  T
   8   -425.4818381 -0.284267E-03  0.646E-03    0.16       1.0  T
   9   -425.4818490 -0.109119E-04  0.435E-03    0.16       1.5  T
  10   -425.4818513 -0.237387E-05  0.345E-03    0.16       1.9  T
  11   -425.4818571 -0.577684E-05  0.188E-03    0.16       3.6  T
  12   -425.4818577 -0.545719E-06  0.132E-03    0.16       5.1  T
  13   -425.4818584 -0.721582E-06  0.463E-04    0.16      14.5  T
  14   -425.4818584 -0.638198E-07  0.275E-04    0.16      24.4  T
     SCC iter.                  ...        0 min,  2.603 sec
     gradient                   ...        0 min,  0.219 sec
 * total energy  :  -420.1029532 Eh     change       -0.1877323E-03 Eh
   gradient norm :     0.0048445 Eh/α   predicted    -0.1532974E-03 ( -18.34%)
   displ. norm   :     0.5557818 α      lambda       -0.1981376E-03
   maximum displ.:     0.2709374 α      in ANC's #2, #4, #1, ...

........................................................................
.............................. CYCLE   33 ..............................
........................................................................

 iter      E             dE          RMSdq      gap      omega  full diag
   1   -425.4812643 -0.425481E+03  0.313E-02    0.16       0.0  T
   2   -425.4654916  0.157728E-01  0.139E-01    0.14       1.0  T
   3   -425.4794551 -0.139636E-01  0.524E-02    0.15       1.0  T
   4   -425.4793951  0.599921E-04  0.635E-02    0.16       1.0  T
   5   -425.4774266  0.196857E-02  0.754E-02    0.14       1.0  T
   6   -425.4807685 -0.334196E-02  0.290E-02    0.15       1.0  T
   7   -425.4812837 -0.515156E-03  0.116E-02    0.16       1.0  T
   8   -425.4813361 -0.523823E-04  0.625E-03    0.16       1.1  T
   9   -425.4813389 -0.286122E-05  0.584E-03    0.16       1.1  T
  10   -425.4813525 -0.135258E-04  0.245E-03    0.16       2.7  T
  11   -425.4813535 -0.104793E-05  0.153E-03    0.16       4.4  T
  12   -425.4813543 -0.825101E-06  0.762E-04    0.16       8.8  T
  13   -425.4813545 -0.202043E-06  0.390E-04    0.16      17.2  T
     SCC iter.                  ...        0 min,  2.288 sec
     gradient                   ...        0 min,  0.220 sec
 * total energy  :  -420.1031178 Eh     change       -0.1645761E-03 Eh
   gradient norm :     0.0045706 Eh/α   predicted    -0.1296719E-03 ( -21.21%)
   displ. norm   :     0.4997950 α      lambda       -0.1903778E-03
   maximum displ.:     0.2545891 α      in ANC's #2, #1, #4, ...

........................................................................
.............................. CYCLE   34 ..............................
........................................................................

 iter      E             dE          RMSdq      gap      omega  full diag
   1   -425.4824923 -0.425482E+03  0.290E-02    0.16       0.0  T
   2   -425.4708931  0.115992E-01  0.121E-01    0.15       1.0  T
   3   -425.4804874 -0.959434E-02  0.535E-02    0.15       1.0  T
   4   -425.4808804 -0.393006E-03  0.593E-02    0.16       1.0  T
   5   -425.4809338 -0.534251E-04  0.546E-02    0.14       1.0  T
   6   -425.4821931 -0.125932E-02  0.253E-02    0.15       1.0  T
   7   -425.4824779 -0.284788E-03  0.120E-02    0.16       1.0  T
   8   -425.4825517 -0.737441E-04  0.526E-03    0.16       1.3  T
   9   -425.4825623 -0.106275E-04  0.319E-03    0.16       2.1  T
  10   -425.4825630 -0.711088E-06  0.254E-03    0.16       2.6  T
  11   -425.4825607  0.235442E-05  0.319E-03    0.16       2.1  T
  12   -425.4825657 -0.506477E-05  0.140E-03    0.16       4.8  T
  13   -425.4825672 -0.145096E-05  0.394E-04    0.16      17.0  T
  14   -425.4825672 -0.500916E-07  0.217E-04    0.16      30.9  T
  15   -425.4825672 -0.183250E-07  0.959E-05    0.16      70.0  T
     SCC iter.                  ...        0 min,  2.391 sec
     gradient                   ...        0 min,  0.212 sec
 * total energy  :  -420.1032741 Eh     change       -0.1563372E-03 Eh
   gradient norm :     0.0052808 Eh/α   predicted    -0.1189788E-03 ( -23.90%)
   displ. norm   :     0.4906350 α      lambda       -0.1957922E-03
   maximum displ.:     0.2564537 α      in ANC's #2, #1, #4, ...

........................................................................
.............................. CYCLE   35 ..............................
........................................................................

 iter      E             dE          RMSdq      gap      omega  full diag
   1   -425.4820916 -0.425482E+03  0.286E-02    0.16       0.0  T
   2   -425.4771037  0.498792E-02  0.864E-02    0.17       1.0  T
   3   -425.4790591 -0.195548E-02  0.633E-02    0.14       1.0  T
   4   -425.4784269  0.632276E-03  0.796E-02    0.16       1.0  T
   5   -425.4795272 -0.110034E-02  0.671E-02    0.14       1.0  T
   6   -425.4813145 -0.178725E-02  0.357E-02    0.15       1.0  T
   7   -425.4818446 -0.530115E-03  0.221E-02    0.16       1.0  T
   8   -425.4820771 -0.232529E-03  0.101E-02    0.16       1.0  T
   9   -425.4821294 -0.523175E-04  0.476E-03    0.16       1.4  T
  10   -425.4821340 -0.460033E-05  0.383E-03    0.16       1.8  T
  11   -425.4821422 -0.817098E-05  0.180E-03    0.16       3.7  T
  12   -425.4821419  0.261662E-06  0.155E-03    0.16       4.3  T
  13   -425.4821439 -0.195120E-05  0.396E-04    0.16      16.9  T
  14   -425.4821439 -0.506846E-07  0.189E-04    0.16      35.4  T
  15   -425.4821439 -0.143378E-07  0.806E-05    0.16      83.3  T
     SCC iter.                  ...        0 min,  2.343 sec
     gradient                   ...        0 min,  0.221 sec
 * total energy  :  -420.1034337 Eh     change       -0.1596068E-03 Eh
   gradient norm :     0.0053310 Eh/α   predicted    -0.1214632E-03 ( -23.90%)
   displ. norm   :     0.4694804 α      lambda       -0.1949592E-03
   maximum displ.:     0.2544203 α      in ANC's #2, #1, #4, ...

........................................................................
.............................. CYCLE   36 ..............................
........................................................................

 iter      E             dE          RMSdq      gap      omega  full diag
   1   -425.4835757 -0.425484E+03  0.296E-02    0.16       0.0  T
   2   -425.4811281  0.244760E-02  0.647E-02    0.17       1.0  T
   3   -425.4804123  0.715786E-03  0.651E-02    0.14       1.0  T
   4   -425.4753763  0.503603E-02  0.114E-01    0.16       1.0  T
   5   -425.4816265 -0.625023E-02  0.581E-02    0.14       1.0  T
   6   -425.4830681 -0.144159E-02  0.285E-02    0.15       1.0  T
   7   -425.4833853 -0.317270E-03  0.197E-02    0.16       1.0  T
   8   -425.4835618 -0.176499E-03  0.868E-03    0.16       1.0  T
   9   -425.4835959 -0.340494E-04  0.478E-03    0.16       1.4  T
  10   -425.4836012 -0.533781E-05  0.354E-03    0.16       1.9  T
  11   -425.4836094 -0.821790E-05  0.174E-03    0.16       3.9  T
  12   -425.4836092  0.258779E-06  0.132E-03    0.16       5.1  T
  13   -425.4836104 -0.121798E-05  0.497E-04    0.16      13.5  T
  14   -425.4836105 -0.836092E-07  0.289E-04    0.16      23.2  T
  15   -425.4836105 -0.356548E-07  0.109E-04    0.16      61.6  T
     SCC iter.                  ...        0 min,  2.595 sec
     gradient                   ...        0 min,  0.211 sec
 * total energy  :  -420.1035888 Eh     change       -0.1550621E-03 Eh
   gradient norm :     0.0050849 Eh/α   predicted    -0.1189656E-03 ( -23.28%)
   displ. norm   :     0.4466210 α      lambda       -0.1690237E-03
   maximum displ.:     0.2488575 α      in ANC's #2, #1, #4, ...

........................................................................
.............................. CYCLE   37 ..............................
........................................................................

 iter      E             dE          RMSdq      gap      omega  full diag
   1   -425.4830900 -0.425483E+03  0.272E-02    0.16       0.0  T
   2   -425.4824697  0.620351E-03  0.383E-02    0.16       1.0  T
   3   -425.4813267  0.114297E-02  0.567E-02    0.15       1.0  T
   4   -425.4768415  0.448517E-02  0.100E-01    0.16       1.0  T
   5   -425.4821841 -0.534259E-02  0.357E-02    0.14       1.0  T
   6   -425.4823917 -0.207604E-03  0.302E-02    0.16       1.0  T
   7   -425.4829240 -0.532289E-03  0.172E-02    0.16       1.0  T
   8   -425.4830947 -0.170674E-03  0.484E-03    0.16       1.4  T
   9   -425.4831016 -0.694267E-05  0.290E-03    0.16       2.3  T
  10   -425.4831033 -0.169749E-05  0.186E-03    0.16       3.6  T
  11   -425.4831046 -0.127114E-05  0.111E-03    0.16       6.1  T
  12   -425.4831052 -0.548081E-06  0.443E-04    0.16      15.2  T
  13   -425.4831051  0.293854E-07  0.373E-04    0.16      18.0  T
     SCC iter.                  ...        0 min,  1.918 sec
     gradient                   ...        0 min,  0.214 sec
 * total energy  :  -420.1037224 Eh     change       -0.1336649E-03 Eh
   gradient norm :     0.0043042 Eh/α   predicted    -0.1013730E-03 ( -24.16%)
   displ. norm   :     0.4005590 α      lambda       -0.1396517E-03
   maximum displ.:     0.2312776 α      in ANC's #2, #1, #4, ...

........................................................................
.............................. CYCLE   38 ..............................
........................................................................

 iter      E             dE          RMSdq      gap      omega  full diag
   1   -425.4842055 -0.425484E+03  0.248E-02    0.16       0.0  T
   2   -425.4831337  0.107179E-02  0.447E-02    0.15       1.0  T
   3   -425.4823865  0.747191E-03  0.536E-02    0.16       1.0  T
   4   -425.4817363  0.650171E-03  0.652E-02    0.15       1.0  T
   5   -425.4817338  0.250492E-05  0.577E-02    0.17       1.0  T
   6   -425.4834276 -0.169376E-02  0.328E-02    0.15       1.0  T
   7   -425.4840887 -0.661066E-03  0.164E-02    0.16       1.0  T
   8   -425.4842207 -0.132062E-03  0.306E-03    0.16       2.2  T
   9   -425.4842235 -0.283518E-05  0.123E-03    0.16       5.5  T
  10   -425.4842230  0.512803E-06  0.145E-03    0.16       4.6  T
  11   -425.4842237 -0.616845E-06  0.945E-04    0.16       7.1  T
  12   -425.4842240 -0.338359E-06  0.591E-04    0.16      11.4  T
     SCC iter.                  ...        0 min,  1.774 sec
     gradient                   ...        0 min,  0.211 sec
 * total energy  :  -420.1038340 Eh     change       -0.1115370E-03 Eh
   gradient norm :     0.0035997 Eh/α   predicted    -0.8103050E-04 ( -27.35%)
   displ. norm   :     0.3768502 α      lambda       -0.1227382E-03
   maximum displ.:     0.2230192 α      in ANC's #2, #1, #4, ...

........................................................................
.............................. CYCLE   39 ..............................
........................................................................

 iter      E             dE          RMSdq      gap      omega  full diag
   1   -425.4837796 -0.425484E+03  0.228E-02    0.16       0.0  T
   2   -425.4816161  0.216351E-02  0.588E-02    0.15       1.0  T
   3   -425.4820623 -0.446225E-03  0.498E-02    0.16       1.0  T
   4   -425.4816296  0.432682E-03  0.554E-02    0.14       1.0  T
   5   -425.4802437  0.138592E-02  0.706E-02    0.17       1.0  T
   6   -425.4836171 -0.337342E-02  0.198E-02    0.16       1.0  T
   7   -425.4837505 -0.133357E-03  0.112E-02    0.15       1.0  T
   8   -425.4837975 -0.470652E-04  0.574E-03    0.15       1.2  T
   9   -425.4838099 -0.123564E-04  0.216E-03    0.16       3.1  T
  10   -425.4838119 -0.195732E-05  0.122E-03    0.16       5.5  T
  11   -425.4838119 -0.633401E-08  0.128E-03    0.16       5.2  T
  12   -425.4838126 -0.781301E-06  0.434E-04    0.16      15.5  T
  13   -425.4838125  0.184322E-06  0.542E-04    0.16      12.4  T
     SCC iter.                  ...        0 min,  1.987 sec
     gradient                   ...        0 min,  0.211 sec
 * total energy  :  -420.1039339 Eh     change       -0.9988782E-04 Eh
   gradient norm :     0.0035711 Eh/α   predicted    -0.7008911E-04 ( -29.83%)
   displ. norm   :     0.3677105 α      lambda       -0.1202997E-03
   maximum displ.:     0.2228576 α      in ANC's #2, #1, #4, ...

........................................................................
.............................. CYCLE   40 ..............................
........................................................................

 iter      E             dE          RMSdq      gap      omega  full diag
   1   -425.4848163 -0.425485E+03  0.224E-02    0.16       0.0  T
   2   -425.4831291  0.168719E-02  0.533E-02    0.15       1.0  T
   3   -425.4826995  0.429619E-03  0.544E-02    0.16       1.0  T
[...]
Writing corrected topology to xtbtopo.mol

molecular dipole:
                 x           y           z       tot (Debye)
 q only:        3.094      -4.480     -10.114
   full:        3.391      -4.986      -9.928      29.523
molecular quadrupole (traceless):
                xx          xy          yy          xz          yz          zz
 q only:       46.704     -26.048      42.935      69.047     -71.312     -89.640
  q+dip:       32.329     -33.484      41.637      68.738     -82.137     -73.967
   full:       21.640     -32.098      29.931      62.456     -86.049     -51.570

           -------------------------------------------------
          |                Geometry Summary                 |
           -------------------------------------------------

      molecular mass/u    :     2007.4170436
   center of mass at/Å    :       -0.8786741       0.4374307       4.1460088
  moments of inertia/u·Å² :        0.4699951E+05   0.6193443E+05   0.6972900E+05
rotational constants/cm⁻¹ :        0.3586767E-03   0.2721852E-03   0.2417593E-03

 * 223 selected distances

     #   Z          #   Z                                           value/Å
     1   6 C        2   6 C                                       1.4076093
     2   6 C        3   6 C                                       1.3969791
     3   6 C        4   6 C                                       1.4265011
     4   6 C        5   6 C                                       1.4252279
     1   6 C        6   6 C                                       1.4202572
     5   6 C        6   6 C                                       1.3813623
     7   6 C        8   6 C                                       1.4070140
     8   6 C        9   6 C                                       1.4386678
     4   6 C       10   7 N                                       1.3285269
     9   6 C       10   7 N                                       1.3409843
    11   6 C       12   6 C                                       1.4346937
    12   6 C       13   7 N                                       1.3286029
     8   6 C       14   6 C                                       1.4335123
    13   7 N       14   6 C                                       1.3386926
    14   6 C       15   6 C                                       1.4037934
    15   6 C       16   6 C                                       1.3889198
     9   6 C       17   6 C                                       1.4033804
    16   6 C       17   6 C                                       1.3902995
    11   6 C       18   6 C                                       1.4132700
    18   6 C       19   6 C                                       1.4217555
    19   6 C       20   6 C                                       1.4160963
    12   6 C       21   6 C                                       1.4232376
    20   6 C       21   6 C                                       1.3796999
     2   6 C       22   8 O                                       1.3179340
    26   6 C       27   6 C                                       1.4084352
    27   6 C       28   6 C                                       1.3983847
    28   6 C       29   6 C                                       1.4263750
    29   6 C       30   6 C                                       1.4244520
    26   6 C       31   6 C                                       1.4211027
    30   6 C       31   6 C                                       1.3811958
    32   6 C       33   6 C                                       1.4058411
    33   6 C       34   6 C                                       1.4366339
    29   6 C       35   7 N                                       1.3291595
    34   6 C       35   7 N                                       1.3403989
    36   6 C       37   6 C                                       1.4346981
    37   6 C       38   7 N                                       1.3266217
    33   6 C       39   6 C                                       1.4326613
    38   7 N       39   6 C                                       1.3373807
    39   6 C       40   6 C                                       1.4026764
    40   6 C       41   6 C                                       1.3892513
    34   6 C       42   6 C                                       1.4059209
    41   6 C       42   6 C                                       1.3893575
    36   6 C       43   6 C                                       1.4110471
    43   6 C       44   6 C                                       1.4219445
    44   6 C       45   6 C                                       1.4151374
    37   6 C       46   6 C                                       1.4240865
    45   6 C       46   6 C                                       1.3809589
    27   6 C       47   8 O                                       1.3189211
    22   8 O       51   5 B                                       1.4350089
    47   8 O       51   5 B                                       1.4420758
    25   6 C       52   8 O                                       1.2068867
    25   6 C       53   8 O                                       1.3445035
    53   8 O       54   6 C                                       1.4171212
    24   6 C       55   8 O                                       1.3412730
    55   8 O       56   6 C                                       1.4234050
    24   6 C       57   8 O                                       1.2059327
    48   6 C       58   8 O                                       1.2029094
    48   6 C       59   8 O                                       1.3502105
    59   8 O       60   6 C                                       1.4184869
    50   6 C       61   8 O                                       1.2041857
    50   6 C       62   8 O                                       1.3437566
    62   8 O       63   6 C                                       1.4191862
    49   6 C       64   8 O                                       1.2085018
    49   6 C       65   8 O                                       1.3352226
    65   8 O       66   6 C                                       1.4227996
    23   6 C       67   8 O                                       1.2071387
    23   6 C       68   8 O                                       1.3410864
    68   8 O       69   6 C                                       1.4214376
    18   6 C       70   7 N                                       1.3785875
    51   5 B       70   7 N                                       1.5346606
    70   7 N       72   6 C                                       1.4522436
    71   6 C       72   6 C                                       1.5324531
    43   6 C       73   7 N                                       1.3774162
    51   5 B       73   7 N                                       1.5349901
    73   7 N       75   6 C                                       1.4515554
    74   6 C       75   6 C                                       1.5322597
    60   6 C       76   1 H                                       1.0910661
    60   6 C       77   1 H                                       1.0923122
    60   6 C       78   1 H                                       1.0906789
    56   6 C       79   1 H                                       1.0919312
    56   6 C       80   1 H                                       1.0914227
    56   6 C       81   1 H                                       1.0874080
    54   6 C       82   1 H                                       1.0871649
    54   6 C       83   1 H                                       1.0923515
    54   6 C       84   1 H                                       1.0924160
    71   6 C       85   1 H                                       1.0874881
    71   6 C       86   1 H                                       1.0879787
    71   6 C       87   1 H                                       1.0870082
    72   6 C       88   1 H                                       1.0940109
    72   6 C       89   1 H                                       1.0878398
    74   6 C       90   1 H                                       1.0874562
    74   6 C       91   1 H                                       1.0879721
    74   6 C       92   1 H                                       1.0870088
    75   6 C       93   1 H                                       1.0945969
    75   6 C       94   1 H                                       1.0876958
    66   6 C       95   1 H                                       1.0882824
    66   6 C       96   1 H                                       1.0916372
    66   6 C       97   1 H                                       1.0918572
    63   6 C       98   1 H                                       1.0878370
    63   6 C       99   1 H                                       1.0920650
    63   6 C      100   1 H                                       1.0920124
    69   6 C      101   1 H                                       1.0920029
    69   6 C      102   1 H                                       1.0877728
    69   6 C      103   1 H                                       1.0918682
    40   6 C      104   1 H                                       1.0780385
    42   6 C      105   1 H                                       1.0774798
    46   6 C      106   1 H                                       1.0795987
    30   6 C      107   1 H                                       1.0795308
    21   6 C      108   1 H                                       1.0779055
    15   6 C      109   1 H                                       1.0771525
    17   6 C      110   1 H                                       1.0782507
     5   6 C      111   1 H                                       1.0795467
   112   6 C      113   6 C                                       1.4051627
   113   6 C      114   6 C                                       1.3950810
   114   6 C      115   6 C                                       1.4261662
   115   6 C      116   6 C                                       1.4266774
   112   6 C      117   6 C                                       1.4204080
   116   6 C      117   6 C                                       1.3811516
   118   6 C      119   6 C                                       1.4075847
   119   6 C      120   6 C                                       1.4387936
   115   6 C      121   7 N                                       1.3285193
   120   6 C      121   7 N                                       1.3410961
   122   6 C      123   6 C                                       1.4368708
   123   6 C      124   7 N                                       1.3253455
   119   6 C      125   6 C                                       1.4321988
   124   7 N      125   6 C                                       1.3397541
   125   6 C      126   6 C                                       1.4028391
   126   6 C      127   6 C                                       1.3898026
   120   6 C      128   6 C                                       1.4039866
   127   6 C      128   6 C                                       1.3898183
   122   6 C      129   6 C                                       1.4174837
   129   6 C      130   6 C                                       1.4249777
   130   6 C      131   6 C                                       1.4118642
   123   6 C      132   6 C                                       1.4277177
   131   6 C      132   6 C                                       1.3762751
   113   6 C      133   8 O                                       1.3173993
   137   6 C      138   6 C                                       1.4081760
   138   6 C      139   6 C                                       1.3917322
   139   6 C      140   6 C                                       1.4279114
   140   6 C      141   6 C                                       1.4295326
   137   6 C      142   6 C                                       1.4211846
   141   6 C      142   6 C                                       1.3784320
   143   6 C      144   6 C                                       1.4088658
   144   6 C      145   6 C                                       1.4377137
   140   6 C      146   7 N                                       1.3237655
   145   6 C      146   7 N                                       1.3419301
   148   6 C      149   7 N                                       1.3255609
   144   6 C      150   6 C                                       1.4326926
   149   7 N      150   6 C                                       1.3349203
   150   6 C      151   6 C                                       1.4068762
   151   6 C      152   6 C                                       1.3875399
   145   6 C      153   6 C                                       1.4024841
   152   6 C      153   6 C                                       1.3906755
   147   6 C      154   6 C                                       1.4199319
   154   6 C      155   6 C                                       1.4224905
   155   6 C      156   6 C                                       1.4120219
   148   6 C      157   6 C                                       1.4250424
   156   6 C      157   6 C                                       1.3780668
   138   6 C      158   8 O                                       1.3155153
   133   8 O      162   5 B                                       1.4228375
   158   8 O      162   5 B                                       1.4205833
   136   6 C      163   8 O                                       1.2068267
   136   6 C      164   8 O                                       1.3446817
   164   8 O      165   6 C                                       1.4170838
   135   6 C      166   8 O                                       1.3417113
   166   8 O      167   6 C                                       1.4231761
   135   6 C      168   8 O                                       1.2032044
   159   6 C      169   8 O                                       1.2051556
   159   6 C      170   8 O                                       1.3416531
   170   8 O      171   6 C                                       1.4207973
   161   6 C      172   8 O                                       1.2080031
   161   6 C      173   8 O                                       1.3371624
   173   8 O      174   6 C                                       1.4179857
   160   6 C      175   8 O                                       1.2069233
   160   6 C      176   8 O                                       1.3349071
   176   8 O      177   6 C                                       1.4216617
   134   6 C      178   8 O                                       1.2069052
   134   6 C      179   8 O                                       1.3376782
   179   8 O      180   6 C                                       1.4226185
   129   6 C      181   7 N                                       1.3733315
   162   5 B      181   7 N                                       1.5597471 (max)
   181   7 N      183   6 C                                       1.4572477
   182   6 C      183   6 C                                       1.5312141
   154   6 C      184   7 N                                       1.3738032
   162   5 B      184   7 N                                       1.5397034
   184   7 N      186   6 C                                       1.4495252
   185   6 C      186   6 C                                       1.5249723
   171   6 C      187   1 H                                       1.0920503
   171   6 C      188   1 H                                       1.0923318
   171   6 C      189   1 H                                       1.0880506
   167   6 C      190   1 H                                       1.0925817
   167   6 C      191   1 H                                       1.0914730
   167   6 C      192   1 H                                       1.0871460
   165   6 C      193   1 H                                       1.0872209
   165   6 C      194   1 H                                       1.0924661
   165   6 C      195   1 H                                       1.0924555
   182   6 C      196   1 H                                       1.0872448
   182   6 C      197   1 H                                       1.0884283
   182   6 C      198   1 H                                       1.0865311
   183   6 C      199   1 H                                       1.0937763
   183   6 C      200   1 H                                       1.0886872
   185   6 C      201   1 H                                       1.0859953
   185   6 C      202   1 H                                       1.0880901
   185   6 C      203   1 H                                       1.0860492
   186   6 C      204   1 H                                       1.0944832
   186   6 C      205   1 H                                       1.0876494
   177   6 C      206   1 H                                       1.0870624
   177   6 C      207   1 H                                       1.0919147
   177   6 C      208   1 H                                       1.0923629
   174   6 C      209   1 H                                       1.0909205
   174   6 C      210   1 H                                       1.0925036
   174   6 C      211   1 H                                       1.0869684
   180   6 C      212   1 H                                       1.0922109
   180   6 C      213   1 H                                       1.0875967
   180   6 C      214   1 H                                       1.0917598
Note: The following floating-point exceptions are signalling: IEEE_UNDERFLOW_FLAG
normal termination of xtb
   151   6 C      215   1 H                                       1.0783599
   153   6 C      216   1 H                                       1.0774956
   157   6 C      217   1 H                                       1.0792962
   141   6 C      218   1 H                                       1.0795608
   132   6 C      219   1 H                                       1.0789993
   126   6 C      220   1 H                                       1.0771159 (min)
   128   6 C      221   1 H                                       1.0783214
   116   6 C      222   1 H                                       1.0795836

 * 6 distinct bonds (by element types)

   Z      Z             #   av. dist./Å        max./Å        min./Å
   1 H    6 C          72     1.0874082     1.0945969     1.0771159
   6 C    6 C          79     1.4169565     1.5324531     1.3762751
   5 B    7 N           4     1.5422753     1.5597471     1.5346606
   6 C    7 N          24     1.3602071     1.4572477     1.3237655
   5 B    8 O           4     1.4301264     1.4420758     1.4205833
   6 C    8 O          40     1.3220487     1.4234050     1.2029094


optimized geometry written to: xtbopt.mol


           -------------------------------------------------
          | TOTAL ENERGY             -420.125013880583 Eh   |
          | GRADIENT NORM               0.000559081465 Eh/α |
          | HOMO-LUMO GAP               0.139606489242 eV   |
           -------------------------------------------------
########################################################################
[WARNING] Runtime exception occurred
-1- restart_readRestart: Number of electron missmatch in restart file.
########################################################################

------------------------------------------------------------------------
 * finished run on 2024/10/31 at 17:01:18.650     
------------------------------------------------------------------------
 total:
 * wall-time:     0 d,  0 h,  7 min, 25.287 sec
 *  cpu-time:     0 d,  0 h, 25 min, 13.101 sec
 * ratio c/w:     3.398 speedup
 SCF:
 * wall-time:     0 d,  0 h,  0 min,  6.292 sec
 *  cpu-time:     0 d,  0 h,  0 min, 23.570 sec
 * ratio c/w:     3.746 speedup
 ANC optimizer:
 * wall-time:     0 d,  0 h,  7 min, 18.915 sec
 *  cpu-time:     0 d,  0 h, 24 min, 49.423 sec
 * ratio c/w:     3.393 speedup

