      -----------------------------------------------------------      
     |                   =====================                   |     
     |                           x T B                           |     
     |                   =====================                   |     
     |                         S. Grimme                         |     
     |          Mulliken Center for Theoretical Chemistry        |     
     |                    University of Bonn                     |     
      -----------------------------------------------------------      

   * xtb version 6.6.1 (8d0f1dd) compiled by 'runner@Mac-1690902418499.local' on 2023-08-01

   xtb is free software: you can redistribute it and/or modify it under
   the terms of the GNU Lesser General Public License as published by
   the Free Software Foundation, either version 3 of the License, or
   (at your option) any later version.
   
   xtb is distributed in the hope that it will be useful,
   but WITHOUT ANY WARRANTY; without even the implied warranty of
   MERCHANTABILITY or FITNESS FOR A PARTICULAR PURPOSE.  See the
   GNU Lesser General Public License for more details.
   
   Cite this work as:
   * C. Bannwarth, E. Caldeweyher, S. Ehlert, A. Hansen, P. Pracht,
     J. Seibert, S. Spicher, S. Grimme, WIREs Comput. Mol. Sci., 2020, 11,
     e01493. DOI: 10.1002/wcms.1493
   
   for GFN2-xTB:
   * C. Bannwarth, S. Ehlert and S. Grimme., J. Chem. Theory Comput., 2019,
     15, 1652-1671. DOI: 10.1021/acs.jctc.8b01176
   for GFN1-xTB:
   * S. Grimme, C. Bannwarth, P. Shushkov, J. Chem. Theory Comput., 2017,
     13, 1989-2009. DOI: 10.1021/acs.jctc.7b00118
   for GFN0-xTB:
   * P. Pracht, E. Caldeweyher, S. Ehlert, S. Grimme, ChemRxiv, 2019, preprint.
     DOI: 10.26434/chemrxiv.8326202.v1
   for GFN-FF:
   * S. Spicher and S. Grimme, Angew. Chem. Int. Ed., 2020, 59, 15665-15673.
     DOI: 10.1002/anie.202004239
   
   for ALPB and GBSA implicit solvation:
   * S. Ehlert, M. Stahn, S. Spicher, S. Grimme, J. Chem. Theory Comput.,
     2021, 17, 4250-4261. DOI: 10.1021/acs.jctc.1c00471
   
   for DFT-D4:
   * E. Caldeweyher, C. Bannwarth and S. Grimme, J. Chem. Phys., 2017,
     147, 034112. DOI: 10.1063/1.4993215
   * E. Caldeweyher, S. Ehlert, A. Hansen, H. Neugebauer, S. Spicher,
     C. Bannwarth and S. Grimme, J. Chem. Phys., 2019, 150, 154122.
     DOI: 10.1063/1.5090222
   * E. Caldeweyher, J.-M. Mewes, S. Ehlert and S. Grimme, Phys. Chem. Chem. Phys.
     2020, 22, 8499-8512. DOI: 10.1039/D0CP00502A
   
   for sTDA-xTB:
   * S. Grimme and C. Bannwarth, J. Chem. Phys., 2016, 145, 054103.
     DOI: 10.1063/1.4959605
   
   in the mass-spec context:
   * V. Asgeirsson, C. Bauer and S. Grimme, Chem. Sci., 2017, 8, 4879.
     DOI: 10.1039/c7sc00601b
   * J. Koopman and S. Grimme, ACS Omega 2019, 4, 12, 15120-15133.
     DOI: 10.1021/acsomega.9b02011
   
   for metadynamics refer to:
   * S. Grimme, J. Chem. Theory Comput., 2019, 155, 2847-2862
     DOI: 10.1021/acs.jctc.9b00143
   
   for SPH calculations refer to:
   * S. Spicher and S. Grimme, J. Chem. Theory Comput., 2021, 17, 1701-1714
     DOI: 10.1021/acs.jctc.0c01306
   
   with help from (in alphabetical order)
   P. Atkinson, C. Bannwarth, F. Bohle, G. Brandenburg, E. Caldeweyher
   M. Checinski, S. Dohm, S. Ehlert, S. Ehrlich, I. Gerasimov, C. Hölzer
   A. Katbashev, J. Koopman, C. Lavigne, S. Lehtola, F. März, M. Müller,
   F. Musil, H. Neugebauer, J. Pisarek, C. Plett, P. Pracht, F. Pultar,
   J. Seibert, P. Shushkov, S. Spicher, M. Stahn, M. Steiner, T. Strunk,
   J. Stückrath, T. Rose, and J. Unsleber
   
 * started run on 2024/11/07 at 16:15:50.756     

           -------------------------------------------------
          |                Calculation Setup                |
           -------------------------------------------------

          program call               : xtb opt_radical_Base2CO2Me.mol --gfn2 --sp --chrg -1 --uhf 0
          coordinate file            : opt_radical_Base2CO2Me.mol
          omp threads                :                     8

   ID    Z sym.   atoms
    1    6 C      1-9, 11, 12, 14-21, 23-34, 36, 37, 39-46, 48-50, 54, 56,
                  60, 63, 66, 69, 71, 72, 74, 75
    2    7 N      10, 13, 35, 38, 70, 73
    3    8 O      22, 47, 52, 53, 55, 57-59, 61, 62, 64, 65, 67, 68
    4    5 B      51
    5    1 H      76-111

           -------------------------------------------------
          |                 G F N 2 - x T B                 |
           -------------------------------------------------

        Reference                      10.1021/acs.jctc.8b01176
      * Hamiltonian:
        H0-scaling (s, p, d)           1.850000    2.230000    2.230000
        zeta-weighting                 0.500000
      * Dispersion:
        s8                             2.700000
        a1                             0.520000
        a2                             5.000000
        s9                             5.000000
      * Repulsion:
        kExp                           1.500000    1.000000
        rExp                           1.000000
      * Coulomb:
        alpha                          2.000000
        third order                    shell-resolved
        anisotropic                    true
        a3                             3.000000
        a5                             4.000000
        cn-shift                       1.200000
        cn-exp                         4.000000
        max-rad                        5.000000

q/qsh data taken from xtbrestart
CAMM data taken from xtbrestart

          ...................................................
          :                      SETUP                      :
          :.................................................:
          :  # basis functions                 336          :
          :  # atomic orbitals                 336          :
          :  # shells                          186          :
          :  # electrons                       370          :
          :  max. iterations                   250          :
          :  Hamiltonian                  GFN2-xTB          :
          :  restarted?                       true          :
          :  GBSA solvation                  false          :
          :  PC potential                    false          :
          :  electronic temp.          300.0000000     K    :
          :  accuracy                    1.0000000          :
          :  -> integral cutoff          0.2500000E+02      :
          :  -> integral neglect         0.1000000E-07      :
          :  -> SCF convergence          0.1000000E-05 Eh   :
          :  -> wf. convergence          0.1000000E-03 e    :
          :  Broyden damping             0.4000000          :
          ...................................................

 iter      E             dE          RMSdq      gap      omega  full diag
   1   -212.8644900 -0.212864E+03  0.314E-01    0.16       0.0  T
   2   -212.6616240  0.202866E+00  0.102E+00    0.09       1.0  T
   3   -212.8747084 -0.213084E+00  0.265E-01    0.05       1.0  T
   4   -212.8717491  0.295928E-02  0.266E-01    0.04       1.0  T
   5   -212.8520526  0.196965E-01  0.354E-01    0.05       1.0  T
   6   -212.8530808 -0.102817E-02  0.353E-01    0.05       1.0  T
   7   -212.8526431  0.437753E-03  0.361E-01    0.08       1.0  T
   8   -212.8799915 -0.273484E-01  0.808E-02    0.07       1.0  T
   9   -212.8811303 -0.113883E-02  0.368E-02    0.09       1.0  T
  10   -212.8813030 -0.172697E-03  0.183E-02    0.09       1.0  T
  11   -212.8812838  0.191814E-04  0.133E-02    0.09       1.0  T
  12   -212.8812866 -0.278129E-05  0.120E-02    0.09       1.0  T
  13   -212.8813158 -0.291930E-04  0.302E-03    0.09       3.1  T
  14   -212.8813171 -0.132814E-05  0.146E-03    0.09       6.5  T
  15   -212.8813174 -0.203212E-06  0.684E-04    0.09      13.9  T
  16   -212.8813174 -0.472540E-07  0.296E-04    0.09      32.0  T

   *** convergence criteria satisfied after 16 iterations ***

         #    Occupation            Energy/Eh            Energy/eV
      -------------------------------------------------------------
         1        2.0000           -0.6821743             -18.5629
       ...           ...                  ...                  ...
       179        2.0000           -0.2980018              -8.1090
       180        2.0000           -0.2876767              -7.8281
       181        2.0000           -0.2840705              -7.7300
       182        2.0000           -0.2781614              -7.5692
       183        1.9999           -0.2747154              -7.4754
       184        1.9997           -0.2737724              -7.4497
       185        1.6934           -0.2671563              -7.2697 (HOMO)
       186        0.3071           -0.2639112              -7.1814 (LUMO)
       187                         -0.2226798              -6.0594
       188                         -0.2150019              -5.8505
       189                         -0.2006547              -5.4601
       190                         -0.1972958              -5.3687
       ...                                ...                  ...
       336                          0.7806247              21.2419
      -------------------------------------------------------------
                  HL-Gap            0.0032451 Eh            0.0883 eV
             Fermi-level           -0.2655329 Eh           -7.2255 eV

 SCC (total)                   0 d,  0 h,  0 min,  0.962 sec
 SCC setup                      ...        0 min,  0.000 sec (  0.033%)
 Dispersion                     ...        0 min,  0.001 sec (  0.136%)
 classical contributions        ...        0 min,  0.000 sec (  0.025%)
 integral evaluation            ...        0 min,  0.006 sec (  0.649%)
 iterations                     ...        0 min,  0.902 sec ( 93.760%)
 molecular gradient             ...        0 min,  0.037 sec (  3.888%)
 printout                       ...        0 min,  0.015 sec (  1.508%)

         :::::::::::::::::::::::::::::::::::::::::::::::::::::
         ::                     SUMMARY                     ::
         :::::::::::::::::::::::::::::::::::::::::::::::::::::
         :: total energy            -210.196165932512 Eh    ::
         :: gradient norm              0.040990665302 Eh/a0 ::
         :: HOMO-LUMO gap              0.088304152785 eV    ::
         ::.................................................::
         :: SCC energy              -212.881317397332 Eh    ::
         :: -> isotropic ES            0.449814737725 Eh    ::
         :: -> anisotropic ES         -0.001753050634 Eh    ::
         :: -> anisotropic XC          0.059500494951 Eh    ::
         :: -> dispersion             -0.191438964412 Eh    ::
         :: repulsion energy           2.680937180181 Eh    ::
         :: add. restraining           0.000000000000 Eh    ::
         :: total charge              -0.999997561515 e     ::
         :::::::::::::::::::::::::::::::::::::::::::::::::::::

           -------------------------------------------------
          |                Property Printout                |
           -------------------------------------------------

    * Orbital Energies and Occupations

         #    Occupation            Energy/Eh            Energy/eV
      -------------------------------------------------------------
         1        2.0000           -0.6821743             -18.5629
       ...           ...                  ...                  ...
       173        2.0000           -0.3255198              -8.8578
       174        2.0000           -0.3245304              -8.8309
       175        2.0000           -0.3168389              -8.6216
       176        2.0000           -0.3159440              -8.5973
       177        2.0000           -0.3094024              -8.4193
       178        2.0000           -0.3006581              -8.1813
       179        2.0000           -0.2980018              -8.1090
       180        2.0000           -0.2876767              -7.8281
       181        2.0000           -0.2840705              -7.7300
       182        2.0000           -0.2781614              -7.5692
       183        1.9999           -0.2747154              -7.4754
       184        1.9997           -0.2737724              -7.4497
       185        1.6934           -0.2671563              -7.2697 (HOMO)
       186        0.3071           -0.2639112              -7.1814 (LUMO)
       187                         -0.2226798              -6.0594
       188                         -0.2150019              -5.8505
       189                         -0.2006547              -5.4601
       190                         -0.1972958              -5.3687
       191                         -0.1948274              -5.3015
       192                         -0.1864345              -5.0731
       193                         -0.1797441              -4.8911
       194                         -0.1633804              -4.4458
       195                         -0.1603248              -4.3627
       196                         -0.1526226              -4.1531
       ...                                ...                  ...
       336                          0.7806247              21.2419
      -------------------------------------------------------------
                  HL-Gap            0.0032451 Eh            0.0883 eV
             Fermi-level           -0.2655329 Eh           -7.2255 eV

     #   Z          covCN         q      C6AA      α(0)
     1   6 C        2.960    -0.012    28.316     8.728
     2   6 C        2.986     0.163    24.480     8.116
     3   6 C        2.985    -0.031    28.778     8.800
     4   6 C        2.962     0.094    25.910     8.349
     5   6 C        2.920    -0.049    29.218     8.864
     6   6 C        2.973    -0.026    28.636     8.778
     7   6 C        2.966     0.042    27.050     8.531
     8   6 C        2.997    -0.021    28.512     8.759
     9   6 C        2.956     0.092    25.960     8.357
    10   7 N        1.847    -0.253    27.448     7.765
    11   6 C        2.975    -0.014    28.351     8.734
    12   6 C        2.957     0.096    25.859     8.341
    13   7 N        1.851    -0.255    27.486     7.770
    14   6 C        2.949     0.091    25.984     8.360
    15   6 C        2.922    -0.045    29.125     8.850
    16   6 C        2.963    -0.025    28.630     8.776
    17   6 C        2.928    -0.040    29.005     8.832
    18   6 C        3.079     0.100    25.697     8.311
    19   6 C        2.971     0.008    27.836     8.654
    20   6 C        2.965    -0.020    28.501     8.757
    21   6 C        2.921    -0.048    29.189     8.860
    22   8 O        1.650    -0.390    20.663     6.136
    23   6 C        2.726     0.361    20.871     7.479
    24   6 C        2.732     0.361    20.879     7.481
    25   6 C        2.733     0.351    21.036     7.509
    26   6 C        2.960    -0.006    28.169     8.705
    27   6 C        2.986     0.164    24.456     8.112
    28   6 C        2.985    -0.030    28.743     8.794
    29   6 C        2.962     0.095    25.879     8.344
    30   6 C        2.920    -0.045    29.128     8.851
    31   6 C        2.973    -0.018    28.457     8.750
    32   6 C        2.965     0.043    27.039     8.529
    33   6 C        2.997    -0.020    28.496     8.757
    34   6 C        2.956     0.092    25.956     8.356
    35   7 N        1.848    -0.253    27.430     7.762
    36   6 C        2.975    -0.013    28.342     8.733
    37   6 C        2.957     0.097    25.841     8.338
    38   7 N        1.851    -0.246    27.257     7.738
    39   6 C        2.949     0.092    25.963     8.357
    40   6 C        2.926    -0.039    28.975     8.827
    41   6 C        2.963    -0.025    28.613     8.774
    42   6 C        2.924    -0.043    29.061     8.841
    43   6 C        3.078     0.101    25.685     8.309
    44   6 C        2.969     0.006    27.884     8.662
    45   6 C        2.965    -0.020    28.493     8.756
    46   6 C        2.924    -0.043    29.076     8.843
    47   8 O        1.651    -0.388    20.630     6.131
    48   6 C        2.721     0.364    20.825     7.470
    49   6 C        2.727     0.363    20.849     7.475
    50   6 C        2.733     0.352    21.031     7.508
    51   5 B        3.748     0.533    15.046     6.262
    52   8 O        0.856    -0.422    22.122     6.306
    53   8 O        1.705    -0.263    18.362     5.786
    54   6 C        3.659     0.037    20.229     6.455
    55   8 O        1.704    -0.268    18.444     5.798
    56   6 C        3.659     0.037    20.235     6.456
    57   8 O        0.856    -0.415    21.990     6.287
    58   8 O        0.856    -0.418    22.048     6.295
    59   8 O        1.705    -0.275    18.557     5.816
    60   6 C        3.646     0.033    20.346     6.482
    61   8 O        0.856    -0.422    22.116     6.305
    62   8 O        1.705    -0.262    18.338     5.782
    63   6 C        3.659     0.037    20.236     6.456
    64   8 O        0.856    -0.429    22.264     6.326
    65   8 O        1.704    -0.260    18.316     5.778
    66   6 C        3.653     0.032    20.339     6.476
    67   8 O        0.856    -0.427    22.220     6.320
    68   8 O        1.705    -0.268    18.443     5.798
    69   6 C        3.652     0.033    20.331     6.476
    70   7 N        2.669    -0.288    27.417     7.777
    71   6 C        3.753    -0.101    22.490     6.763
    72   6 C        3.747     0.020    20.294     6.426
    73   7 N        2.669    -0.285    27.360     7.769
    74   6 C        3.753    -0.101    22.494     6.763
    75   6 C        3.747     0.020    20.299     6.426
    76   1 H        0.925     0.056     2.251     2.346
    77   1 H        0.924     0.070     2.090     2.261
    78   1 H        0.924     0.061     2.183     2.311
    79   1 H        0.924     0.068     2.103     2.268
    80   1 H        0.924     0.058     2.228     2.334
    81   1 H        0.925     0.060     2.199     2.319
    82   1 H        0.925     0.062     2.178     2.308
    83   1 H        0.924     0.058     2.219     2.329
    84   1 H        0.924     0.058     2.227     2.334
    85   1 H        0.925     0.033     2.544     2.494
    86   1 H        0.925     0.037     2.491     2.468
    87   1 H        0.925     0.039     2.458     2.452
    88   1 H        0.924     0.021     2.719     2.579
    89   1 H        0.925     0.040     2.450     2.448
    90   1 H        0.925     0.034     2.533     2.489
    91   1 H        0.925     0.038     2.482     2.464
    92   1 H        0.925     0.039     2.467     2.456
    93   1 H        0.924     0.023     2.692     2.566
    94   1 H        0.925     0.040     2.448     2.447
    95   1 H        0.925     0.064     2.156     2.296
    96   1 H        0.924     0.064     2.157     2.297
    97   1 H        0.924     0.075     2.029     2.227
    98   1 H        0.925     0.063     2.169     2.303
    99   1 H        0.924     0.058     2.221     2.331
   100   1 H        0.924     0.058     2.219     2.330
   101   1 H        0.924     0.076     2.019     2.222
   102   1 H        0.925     0.061     2.186     2.312
   103   1 H        0.924     0.063     2.162     2.299
   104   1 H        0.926     0.071     2.070     2.250
   105   1 H        0.926     0.064     2.148     2.292
   106   1 H        0.926     0.068     2.106     2.270
   107   1 H        0.926     0.073     2.056     2.242
   108   1 H        0.926     0.060     2.195     2.317
   109   1 H        0.926     0.061     2.191     2.315
   110   1 H        0.926     0.071     2.074     2.252
   111   1 H        0.926     0.069     2.095     2.263

 Mol. C6AA /au·bohr⁶  :     179731.370781
 Mol. C8AA /au·bohr⁸  :    4428341.443927
 Mol. α(0) /au        :        659.691284


Wiberg/Mayer (AO) data.
largest (>0.10) Wiberg bond orders for each atom

 ---------------------------------------------------------------------------
     #   Z sym  total        # sym  WBO       # sym  WBO       # sym  WBO
 ---------------------------------------------------------------------------
     1   6 C    3.917 --     2 C    1.312     6 C    1.251    44 C    1.085
     2   6 C    3.928 --     1 C    1.312     3 C    1.299    22 O    1.098
     3   6 C    3.941 --     2 C    1.299     4 C    1.195     7 C    1.184
     4   6 C    3.969 --    10 N    1.374     5 C    1.226     3 C    1.195
     5   6 C    3.924 --     6 C    1.505     4 C    1.226   111 H    0.963
     6   6 C    3.965 --     5 C    1.505     1 C    1.251    23 C    0.990
     7   6 C    3.977 --     8 C    1.342    11 C    1.202     3 C    1.184
     8   6 C    3.970 --     7 C    1.342    14 C    1.183     9 C    1.177
     9   6 C    3.975 --    10 N    1.321    17 C    1.302     8 C    1.177
    10   7 N    2.929 --     4 C    1.374     9 C    1.321
    11   6 C    3.925 --    18 C    1.281     7 C    1.202    12 C    1.185
    12   6 C    3.965 --    13 N    1.380    21 C    1.221    11 C    1.185
    13   7 N    2.945 --    12 C    1.380    14 C    1.319
    14   6 C    3.975 --    13 N    1.319    15 C    1.297     8 C    1.183
    15   6 C    3.846 --    16 C    1.393    14 C    1.297   109 H    0.965
    16   6 C    3.972 --    15 C    1.393    17 C    1.389    25 C    1.000
    17   6 C    3.845 --    16 C    1.389     9 C    1.302   110 H    0.963
    18   6 C    3.938 --    19 C    1.291    11 C    1.281    70 N    1.120
    19   6 C    3.877 --    18 C    1.291    20 C    1.268    26 C    1.082
    20   6 C    3.967 --    21 C    1.493    19 C    1.268    24 C    0.987
    21   6 C    3.893 --    20 C    1.493    12 C    1.221   108 H    0.964
    22   8 O    2.156 --     2 C    1.098    51 B    0.821
    23   6 C    3.912 --    67 O    1.716    68 O    1.125     6 C    0.990
    24   6 C    3.912 --    57 O    1.735    55 O    1.112    20 C    0.987
    25   6 C    3.910 --    52 O    1.724    53 O    1.112    16 C    1.000
    26   6 C    3.914 --    27 C    1.314    31 C    1.251    19 C    1.082
    27   6 C    3.928 --    26 C    1.314    28 C    1.298    47 O    1.097
    28   6 C    3.941 --    27 C    1.298    29 C    1.194    32 C    1.185
    29   6 C    3.969 --    35 N    1.374    30 C    1.227    28 C    1.194
    30   6 C    3.921 --    31 C    1.501    29 C    1.227   107 H    0.962
    31   6 C    3.966 --    30 C    1.501    26 C    1.251    48 C    0.995
    32   6 C    3.977 --    33 C    1.341    36 C    1.201    28 C    1.185
    33   6 C    3.970 --    32 C    1.341    39 C    1.183    34 C    1.178
    34   6 C    3.976 --    35 N    1.321    42 C    1.301    33 C    1.178
    35   7 N    2.926 --    29 C    1.374    34 C    1.321
    36   6 C    3.923 --    43 C    1.282    32 C    1.201    37 C    1.183
    37   6 C    3.964 --    38 N    1.383    46 C    1.218    36 C    1.183
    38   7 N    2.951 --    37 C    1.383    39 C    1.321
    39   6 C    3.975 --    38 N    1.321    40 C    1.296    33 C    1.183
    40   6 C    3.842 --    41 C    1.393    39 C    1.296   104 H    0.963
    41   6 C    3.973 --    40 C    1.393    42 C    1.390    50 C    0.999
    42   6 C    3.842 --    41 C    1.390    34 C    1.301   105 H    0.964
    43   6 C    3.937 --    44 C    1.284    36 C    1.282    73 N    1.123
    44   6 C    3.871 --    43 C    1.284    45 C    1.271     1 C    1.085
    45   6 C    3.968 --    46 C    1.498    44 C    1.271    49 C    0.979
    46   6 C    3.888 --    45 C    1.498    37 C    1.218   106 H    0.963
    47   8 O    2.158 --    27 C    1.097    51 B    0.824
    48   6 C    3.910 --    58 O    1.729    59 O    1.107    31 C    0.995
    49   6 C    3.911 --    64 O    1.714    65 O    1.137    45 C    0.979
    50   6 C    3.910 --    61 O    1.724    62 O    1.115    41 C    0.999
    51   5 B    3.342 --    47 O    0.824    22 O    0.821    70 N    0.735
                            73 N    0.733
    52   8 O    2.018 --    25 C    1.724    53 O    0.164
    53   8 O    2.293 --    25 C    1.112    54 C    0.963    52 O    0.164
    54   6 C    3.933 --    82 H    0.983    84 H    0.978    83 H    0.978
                            53 O    0.963
    55   8 O    2.290 --    24 C    1.112    56 C    0.958    57 O    0.166
    56   6 C    3.928 --    81 H    0.983    80 H    0.978    79 H    0.976
                            55 O    0.958
    57   8 O    2.031 --    24 C    1.735    55 O    0.166
    58   8 O    2.030 --    48 C    1.729    59 O    0.166
    59   8 O    2.289 --    48 C    1.107    60 C    0.958    58 O    0.166
    60   6 C    3.927 --    76 H    0.980    78 H    0.976    77 H    0.974
                            59 O    0.958
    61   8 O    2.018 --    50 C    1.724    62 O    0.165
    62   8 O    2.296 --    50 C    1.115    63 C    0.963    61 O    0.165
    63   6 C    3.933 --    98 H    0.983    99 H    0.978   100 H    0.978
                            62 O    0.963
    64   8 O    2.014 --    49 C    1.714    65 O    0.171
    65   8 O    2.314 --    49 C    1.137    66 C    0.951    64 O    0.171
    66   6 C    3.920 --    95 H    0.982    96 H    0.977    97 H    0.970
                            65 O    0.951
    67   8 O    2.017 --    23 C    1.716    68 O    0.169
    68   8 O    2.303 --    23 C    1.125    69 C    0.952    67 O    0.169
    69   6 C    3.921 --   102 H    0.982   103 H    0.977   101 H    0.970
                            68 O    0.952
    70   7 N    3.088 --    18 C    1.120    72 C    0.998    51 B    0.735
    71   6 C    3.989 --    72 C    1.002    86 H    0.988    85 H    0.986
                            87 H    0.982
    72   6 C    3.978 --    71 C    1.002    70 N    0.998    89 H    0.964
                            88 H    0.962
    73   7 N    3.089 --    43 C    1.123    75 C    0.997    51 B    0.733
    74   6 C    3.989 --    75 C    1.002    91 H    0.988    90 H    0.986
                            92 H    0.982
    75   6 C    3.978 --    74 C    1.002    73 N    0.997    94 H    0.964
                            93 H    0.962
    76   1 H    0.996 --    60 C    0.980
    77   1 H    0.995 --    60 C    0.974
    78   1 H    0.995 --    60 C    0.976
    79   1 H    0.995 --    56 C    0.976
    80   1 H    0.996 --    56 C    0.978
    81   1 H    0.996 --    56 C    0.983
    82   1 H    0.996 --    54 C    0.983
    83   1 H    0.996 --    54 C    0.978
    84   1 H    0.996 --    54 C    0.978
    85   1 H    0.998 --    71 C    0.986
    86   1 H    0.999 --    71 C    0.988
    87   1 H    0.998 --    71 C    0.982
    88   1 H    0.999 --    72 C    0.962
    89   1 H    0.995 --    72 C    0.964
    90   1 H    0.998 --    74 C    0.986
    91   1 H    0.998 --    74 C    0.988
    92   1 H    0.998 --    74 C    0.982
    93   1 H    0.999 --    75 C    0.962
    94   1 H    0.995 --    75 C    0.964
    95   1 H    0.996 --    66 C    0.982
    96   1 H    0.996 --    66 C    0.977
    97   1 H    0.994 --    66 C    0.970
    98   1 H    0.996 --    63 C    0.983
    99   1 H    0.996 --    63 C    0.978
   100   1 H    0.996 --    63 C    0.978
   101   1 H    0.994 --    69 C    0.970
   102   1 H    0.996 --    69 C    0.982
   103   1 H    0.996 --    69 C    0.977
   104   1 H    0.994 --    40 C    0.963
   105   1 H    0.995 --    42 C    0.964
   106   1 H    0.993 --    46 C    0.963
   107   1 H    0.993 --    30 C    0.962
   108   1 H    0.994 --    21 C    0.964
   109   1 H    0.996 --    15 C    0.965
   110   1 H    0.994 --    17 C    0.963
   111   1 H    0.994 --     5 C    0.963
 ---------------------------------------------------------------------------

Topologies differ in total number of bonds
Writing corrected topology to xtbtopo.mol

molecular dipole:
                 x           y           z       tot (Debye)
 q only:        3.069      -2.604      -2.679
   full:        3.233      -2.867      -2.523      12.718
molecular quadrupole (traceless):
                xx          xy          yy          xz          yz          zz
 q only:      -49.717     -23.702     -12.526      11.425     -12.821      62.243
  q+dip:      -57.593     -28.291     -13.218      10.172     -15.098      70.811
   full:      -64.025     -28.916     -19.720       6.580     -15.918      83.745


           -------------------------------------------------
          | TOTAL ENERGY             -210.196165932512 Eh   |
          | GRADIENT NORM               0.040990665302 Eh/α |
          | HOMO-LUMO GAP               0.088304152785 eV   |
           -------------------------------------------------
########################################################################
[WARNING] Runtime exception occurred
-2- restart_readRestart: Multiplicity missmatch in restart file.
Note: The following floating-point exceptions are signalling: IEEE_UNDERFLOW_FLAG
normal termination of xtb
-1- restart_readRestart: Number of electron missmatch in restart file.
########################################################################

------------------------------------------------------------------------
 * finished run on 2024/11/07 at 16:15:51.735     
------------------------------------------------------------------------
 total:
 * wall-time:     0 d,  0 h,  0 min,  0.978 sec
 *  cpu-time:     0 d,  0 h,  0 min,  3.114 sec
 * ratio c/w:     3.184 speedup
 SCF:
 * wall-time:     0 d,  0 h,  0 min,  0.963 sec
 *  cpu-time:     0 d,  0 h,  0 min,  3.082 sec
 * ratio c/w:     3.202 speedup

