      -----------------------------------------------------------      
     |                   =====================                   |     
     |                           x T B                           |     
     |                   =====================                   |     
     |                         S. Grimme                         |     
     |          Mulliken Center for Theoretical Chemistry        |     
     |                    University of Bonn                     |     
      -----------------------------------------------------------      

   * xtb version 6.6.1 (8d0f1dd) compiled by 'runner@Mac-1690902418499.local' on 2023-08-01

   xtb is free software: you can redistribute it and/or modify it under
   the terms of the GNU Lesser General Public License as published by
   the Free Software Foundation, either version 3 of the License, or
   (at your option) any later version.
   
   xtb is distributed in the hope that it will be useful,
   but WITHOUT ANY WARRANTY; without even the implied warranty of
   MERCHANTABILITY or FITNESS FOR A PARTICULAR PURPOSE.  See the
   GNU Lesser General Public License for more details.
   
   Cite this work as:
   * C. Bannwarth, E. Caldeweyher, S. Ehlert, A. Hansen, P. Pracht,
     J. Seibert, S. Spicher, S. Grimme, WIREs Comput. Mol. Sci., 2020, 11,
     e01493. DOI: 10.1002/wcms.1493
   
   for GFN2-xTB:
   * C. Bannwarth, S. Ehlert and S. Grimme., J. Chem. Theory Comput., 2019,
     15, 1652-1671. DOI: 10.1021/acs.jctc.8b01176
   for GFN1-xTB:
   * S. Grimme, C. Bannwarth, P. Shushkov, J. Chem. Theory Comput., 2017,
     13, 1989-2009. DOI: 10.1021/acs.jctc.7b00118
   for GFN0-xTB:
   * P. Pracht, E. Caldeweyher, S. Ehlert, S. Grimme, ChemRxiv, 2019, preprint.
     DOI: 10.26434/chemrxiv.8326202.v1
   for GFN-FF:
   * S. Spicher and S. Grimme, Angew. Chem. Int. Ed., 2020, 59, 15665-15673.
     DOI: 10.1002/anie.202004239
   
   for ALPB and GBSA implicit solvation:
   * S. Ehlert, M. Stahn, S. Spicher, S. Grimme, J. Chem. Theory Comput.,
     2021, 17, 4250-4261. DOI: 10.1021/acs.jctc.1c00471
   
   for DFT-D4:
   * E. Caldeweyher, C. Bannwarth and S. Grimme, J. Chem. Phys., 2017,
     147, 034112. DOI: 10.1063/1.4993215
   * E. Caldeweyher, S. Ehlert, A. Hansen, H. Neugebauer, S. Spicher,
     C. Bannwarth and S. Grimme, J. Chem. Phys., 2019, 150, 154122.
     DOI: 10.1063/1.5090222
   * E. Caldeweyher, J.-M. Mewes, S. Ehlert and S. Grimme, Phys. Chem. Chem. Phys.
     2020, 22, 8499-8512. DOI: 10.1039/D0CP00502A
   
   for sTDA-xTB:
   * S. Grimme and C. Bannwarth, J. Chem. Phys., 2016, 145, 054103.
     DOI: 10.1063/1.4959605
   
   in the mass-spec context:
   * V. Asgeirsson, C. Bauer and S. Grimme, Chem. Sci., 2017, 8, 4879.
     DOI: 10.1039/c7sc00601b
   * J. Koopman and S. Grimme, ACS Omega 2019, 4, 12, 15120-15133.
     DOI: 10.1021/acsomega.9b02011
   
   for metadynamics refer to:
   * S. Grimme, J. Chem. Theory Comput., 2019, 155, 2847-2862
     DOI: 10.1021/acs.jctc.9b00143
   
   for SPH calculations refer to:
   * S. Spicher and S. Grimme, J. Chem. Theory Comput., 2021, 17, 1701-1714
     DOI: 10.1021/acs.jctc.0c01306
   
   with help from (in alphabetical order)
   P. Atkinson, C. Bannwarth, F. Bohle, G. Brandenburg, E. Caldeweyher
   M. Checinski, S. Dohm, S. Ehlert, S. Ehrlich, I. Gerasimov, C. Hölzer
   A. Katbashev, J. Koopman, C. Lavigne, S. Lehtola, F. März, M. Müller,
   F. Musil, H. Neugebauer, J. Pisarek, C. Plett, P. Pracht, F. Pultar,
   J. Seibert, P. Shushkov, S. Spicher, M. Stahn, M. Steiner, T. Strunk,
   J. Stückrath, T. Rose, and J. Unsleber
   
 * started run on 2024/11/07 at 16:15:48.205     

           -------------------------------------------------
          |                Calculation Setup                |
           -------------------------------------------------

          program call               : xtb opt_anion_Base2CO2Me.mol --gfn2 --sp --chrg -1 --uhf 0
          coordinate file            : opt_anion_Base2CO2Me.mol
          omp threads                :                     8

   ID    Z sym.   atoms
    1    6 C      1-9, 11, 12, 14-21, 23-34, 36, 37, 39-46, 48-50, 54, 56,
                  60, 63, 66, 69, 71, 72, 74, 75
    2    7 N      10, 13, 35, 38, 70, 73
    3    8 O      22, 47, 52, 53, 55, 57-59, 61, 62, 64, 65, 67, 68
    4    5 B      51
    5    1 H      76-111
########################################################################
[WARNING] Please study the warnings concerning your input carefully
-1- prog_main: Charge in sdf/mol input was overwritten
########################################################################

           -------------------------------------------------
          |                 G F N 2 - x T B                 |
           -------------------------------------------------

        Reference                      10.1021/acs.jctc.8b01176
      * Hamiltonian:
        H0-scaling (s, p, d)           1.850000    2.230000    2.230000
        zeta-weighting                 0.500000
      * Dispersion:
        s8                             2.700000
        a1                             0.520000
        a2                             5.000000
        s9                             5.000000
      * Repulsion:
        kExp                           1.500000    1.000000
        rExp                           1.000000
      * Coulomb:
        alpha                          2.000000
        third order                    shell-resolved
        anisotropic                    true
        a3                             3.000000
        a5                             4.000000
        cn-shift                       1.200000
        cn-exp                         4.000000
        max-rad                        5.000000

q/qsh data taken from xtbrestart
CAMM data taken from xtbrestart

          ...................................................
          :                      SETUP                      :
          :.................................................:
          :  # basis functions                 336          :
          :  # atomic orbitals                 336          :
          :  # shells                          186          :
          :  # electrons                       370          :
          :  max. iterations                   250          :
          :  Hamiltonian                  GFN2-xTB          :
          :  restarted?                       true          :
          :  GBSA solvation                  false          :
          :  PC potential                    false          :
          :  electronic temp.          300.0000000     K    :
          :  accuracy                    1.0000000          :
          :  -> integral cutoff          0.2500000E+02      :
          :  -> integral neglect         0.1000000E-07      :
          :  -> SCF convergence          0.1000000E-05 Eh   :
          :  -> wf. convergence          0.1000000E-03 e    :
          :  Broyden damping             0.4000000          :
          ...................................................

 iter      E             dE          RMSdq      gap      omega  full diag
   1   -212.8536757 -0.212854E+03  0.331E-01    0.25       0.0  T
   2   -212.5108457  0.342830E+00  0.128E+00    0.02       1.0  T
   3   -212.8460782 -0.335233E+00  0.410E-01    0.06       1.0  T
   4   -212.7738035  0.722747E-01  0.709E-01    0.08       1.0  T
   5   -212.8508225 -0.770190E-01  0.329E-01    0.16       1.0  T
   6   -212.8295720  0.212505E-01  0.424E-01    0.18       1.0  T
   7   -212.8720902 -0.425182E-01  0.129E-01    0.13       1.0  T
   8   -212.8683871  0.370308E-02  0.165E-01    0.11       1.0  T
   9   -212.8730106 -0.462347E-02  0.793E-02    0.11       1.0  T
  10   -212.8744802 -0.146957E-02  0.181E-02    0.13       1.0  T
  11   -212.8744861 -0.596014E-05  0.125E-02    0.13       1.0  T
  12   -212.8744886 -0.242264E-05  0.102E-02    0.13       1.0  T
  13   -212.8744994 -0.108476E-04  0.585E-03    0.13       1.6  T
  14   -212.8745064 -0.703046E-05  0.174E-03    0.13       5.5  T
  15   -212.8745069 -0.508176E-06  0.573E-04    0.13      16.6  T
  16   -212.8745070 -0.127876E-07  0.428E-04    0.13      22.2  T

   *** convergence criteria satisfied after 16 iterations ***

         #    Occupation            Energy/Eh            Energy/eV
      -------------------------------------------------------------
         1        2.0000           -0.6810137             -18.5313
       ...           ...                  ...                  ...
       179        2.0000           -0.2990786              -8.1383
       180        2.0000           -0.2896609              -7.8821
       181        2.0000           -0.2868568              -7.8058
       182        1.9999           -0.2789876              -7.5916
       183        1.9992           -0.2764895              -7.5237
       184        1.9916           -0.2742365              -7.4624
       185        1.8512           -0.2714367              -7.3862 (HOMO)
       186        0.1580           -0.2667082              -7.2575 (LUMO)
       187                         -0.2247687              -6.1163
       188                         -0.2181103              -5.9351
       189                         -0.2030242              -5.5246
       190                         -0.1996525              -5.4328
       ...                                ...                  ...
       336                          0.7733038              21.0427
      -------------------------------------------------------------
                  HL-Gap            0.0047285 Eh            0.1287 eV
             Fermi-level           -0.2690414 Eh           -7.3210 eV

 SCC (total)                   0 d,  0 h,  0 min,  1.133 sec
 SCC setup                      ...        0 min,  0.000 sec (  0.033%)
 Dispersion                     ...        0 min,  0.001 sec (  0.125%)
 classical contributions        ...        0 min,  0.000 sec (  0.026%)
 integral evaluation            ...        0 min,  0.007 sec (  0.656%)
 iterations                     ...        0 min,  1.083 sec ( 95.594%)
 molecular gradient             ...        0 min,  0.039 sec (  3.411%)
 printout                       ...        0 min,  0.002 sec (  0.154%)

         :::::::::::::::::::::::::::::::::::::::::::::::::::::
         ::                     SUMMARY                     ::
         :::::::::::::::::::::::::::::::::::::::::::::::::::::
         :: total energy            -210.198337172061 Eh    ::
         :: gradient norm              0.000804435007 Eh/a0 ::
         :: HOMO-LUMO gap              0.128669075250 eV    ::
         ::.................................................::
         :: SCC energy              -212.874506959995 Eh    ::
         :: -> isotropic ES            0.451161053867 Eh    ::
         :: -> anisotropic ES         -0.001740822521 Eh    ::
         :: -> anisotropic XC          0.058689144266 Eh    ::
         :: -> dispersion             -0.191371904340 Eh    ::
         :: repulsion energy           2.671871152061 Eh    ::
         :: add. restraining           0.000000000000 Eh    ::
         :: total charge              -0.999995504497 e     ::
         :::::::::::::::::::::::::::::::::::::::::::::::::::::

           -------------------------------------------------
          |                Property Printout                |
           -------------------------------------------------

    * Orbital Energies and Occupations

         #    Occupation            Energy/Eh            Energy/eV
      -------------------------------------------------------------
         1        2.0000           -0.6810137             -18.5313
       ...           ...                  ...                  ...
       173        2.0000           -0.3250755              -8.8458
       174        2.0000           -0.3237721              -8.8103
       175        2.0000           -0.3190318              -8.6813
       176        2.0000           -0.3166526              -8.6166
       177        2.0000           -0.3095192              -8.4224
       178        2.0000           -0.3024167              -8.2292
       179        2.0000           -0.2990786              -8.1383
       180        2.0000           -0.2896609              -7.8821
       181        2.0000           -0.2868568              -7.8058
       182        1.9999           -0.2789876              -7.5916
       183        1.9992           -0.2764895              -7.5237
       184        1.9916           -0.2742365              -7.4624
       185        1.8512           -0.2714367              -7.3862 (HOMO)
       186        0.1580           -0.2667082              -7.2575 (LUMO)
       187                         -0.2247687              -6.1163
       188                         -0.2181103              -5.9351
       189                         -0.2030242              -5.5246
       190                         -0.1996525              -5.4328
       191                         -0.1975778              -5.3764
       192                         -0.1888613              -5.1392
       193                         -0.1816896              -4.9440
       194                         -0.1647126              -4.4821
       195                         -0.1624339              -4.4201
       196                         -0.1542245              -4.1967
       ...                                ...                  ...
       336                          0.7733038              21.0427
      -------------------------------------------------------------
                  HL-Gap            0.0047285 Eh            0.1287 eV
             Fermi-level           -0.2690414 Eh           -7.3210 eV

     #   Z          covCN         q      C6AA      α(0)
     1   6 C        2.960    -0.013    28.332     8.731
     2   6 C        2.981     0.165    24.443     8.110
     3   6 C        2.985    -0.031    28.769     8.798
     4   6 C        2.962     0.094    25.921     8.351
     5   6 C        2.920    -0.049    29.227     8.865
     6   6 C        2.975    -0.024    28.608     8.774
     7   6 C        2.966     0.043    27.036     8.529
     8   6 C        2.997    -0.021    28.522     8.761
     9   6 C        2.956     0.092    25.950     8.355
    10   7 N        1.847    -0.253    27.445     7.764
    11   6 C        2.974    -0.012    28.313     8.728
    12   6 C        2.958     0.096    25.865     8.342
    13   7 N        1.851    -0.255    27.482     7.770
    14   6 C        2.950     0.091    25.978     8.360
    15   6 C        2.923    -0.043    29.076     8.843
    16   6 C        2.963    -0.024    28.594     8.771
    17   6 C        2.928    -0.038    28.957     8.825
    18   6 C        3.063     0.099    25.744     8.320
    19   6 C        2.972     0.012    27.738     8.639
    20   6 C        2.966    -0.018    28.463     8.751
    21   6 C        2.922    -0.046    29.139     8.852
    22   8 O        1.649    -0.397    20.798     6.156
    23   6 C        2.726     0.360    20.896     7.484
    24   6 C        2.732     0.360    20.898     7.484
    25   6 C        2.734     0.350    21.061     7.514
    26   6 C        2.959    -0.008    28.205     8.711
    27   6 C        2.978     0.166    24.417     8.106
    28   6 C        2.985    -0.030    28.742     8.794
    29   6 C        2.962     0.095    25.891     8.346
    30   6 C        2.921    -0.046    29.136     8.852
    31   6 C        2.974    -0.018    28.452     8.749
    32   6 C        2.966     0.043    27.026     8.527
    33   6 C        2.997    -0.021    28.507     8.758
    34   6 C        2.956     0.092    25.945     8.355
    35   7 N        1.847    -0.252    27.426     7.761
    36   6 C        2.974    -0.012    28.302     8.726
    37   6 C        2.959     0.097    25.849     8.339
    38   7 N        1.851    -0.246    27.266     7.739
    39   6 C        2.950     0.092    25.960     8.357
    40   6 C        2.927    -0.037    28.931     8.821
    41   6 C        2.963    -0.023    28.577     8.768
    42   6 C        2.925    -0.041    29.012     8.833
    43   6 C        3.061     0.099    25.742     8.320
    44   6 C        2.970     0.011    27.777     8.645
    45   6 C        2.966    -0.018    28.464     8.751
    46   6 C        2.925    -0.041    29.027     8.835
    47   8 O        1.649    -0.396    20.772     6.152
    48   6 C        2.721     0.362    20.852     7.475
    49   6 C        2.727     0.361    20.867     7.479
    50   6 C        2.734     0.350    21.057     7.513
    51   5 B        3.706     0.525    15.076     6.282
    52   8 O        0.856    -0.421    22.108     6.304
    53   8 O        1.705    -0.266    18.417     5.794
    54   6 C        3.658     0.039    20.201     6.450
    55   8 O        1.704    -0.272    18.518     5.810
    56   6 C        3.659     0.038    20.207     6.451
    57   8 O        0.856    -0.412    21.920     6.277
    58   8 O        0.856    -0.420    22.080     6.300
    59   8 O        1.705    -0.276    18.573     5.819
    60   6 C        3.646     0.034    20.333     6.480
    61   8 O        0.856    -0.421    22.105     6.303
    62   8 O        1.705    -0.265    18.394     5.791
    63   6 C        3.658     0.039    20.206     6.451
    64   8 O        0.856    -0.430    22.295     6.331
    65   8 O        1.705    -0.261    18.319     5.779
    66   6 C        3.653     0.033    20.319     6.473
    67   8 O        0.856    -0.428    22.255     6.325
    68   8 O        1.705    -0.269    18.464     5.802
    69   6 C        3.651     0.034    20.316     6.474
    70   7 N        2.672    -0.280    27.228     7.750
    71   6 C        3.752    -0.102    22.509     6.766
    72   6 C        3.747     0.021    20.291     6.425
    73   7 N        2.672    -0.277    27.162     7.740
    74   6 C        3.752    -0.102    22.512     6.766
    75   6 C        3.748     0.020    20.295     6.426
    76   1 H        0.924     0.054     2.273     2.358
    77   1 H        0.924     0.070     2.089     2.260
    78   1 H        0.924     0.062     2.181     2.310
    79   1 H        0.924     0.067     2.118     2.276
    80   1 H        0.924     0.056     2.244     2.342
    81   1 H        0.925     0.059     2.214     2.327
    82   1 H        0.925     0.061     2.192     2.316
    83   1 H        0.924     0.057     2.233     2.337
    84   1 H        0.924     0.057     2.240     2.340
    85   1 H        0.925     0.033     2.541     2.493
    86   1 H        0.925     0.037     2.486     2.466
    87   1 H        0.925     0.039     2.463     2.454
    88   1 H        0.924     0.023     2.687     2.563
    89   1 H        0.925     0.037     2.492     2.469
    90   1 H        0.925     0.034     2.530     2.487
    91   1 H        0.925     0.038     2.481     2.463
    92   1 H        0.925     0.038     2.470     2.458
    93   1 H        0.924     0.024     2.666     2.554
    94   1 H        0.925     0.038     2.482     2.464
    95   1 H        0.925     0.063     2.163     2.300
    96   1 H        0.924     0.064     2.154     2.295
    97   1 H        0.924     0.073     2.051     2.240
    98   1 H        0.925     0.061     2.183     2.310
    99   1 H        0.924     0.057     2.238     2.340
   100   1 H        0.924     0.058     2.228     2.334
   101   1 H        0.924     0.074     2.039     2.233
   102   1 H        0.925     0.060     2.199     2.319
   103   1 H        0.924     0.064     2.158     2.297
   104   1 H        0.926     0.073     2.057     2.243
   105   1 H        0.926     0.067     2.124     2.279
   106   1 H        0.926     0.070     2.084     2.258
   107   1 H        0.926     0.073     2.053     2.240
   108   1 H        0.926     0.062     2.173     2.305
   109   1 H        0.926     0.063     2.164     2.300
   110   1 H        0.926     0.072     2.063     2.246
   111   1 H        0.926     0.070     2.089     2.260

 Mol. C6AA /au·bohr⁶  :     179726.465126
 Mol. C8AA /au·bohr⁸  :    4427884.194895
 Mol. α(0) /au        :        659.691846


Wiberg/Mayer (AO) data.
largest (>0.10) Wiberg bond orders for each atom

 ---------------------------------------------------------------------------
     #   Z sym  total        # sym  WBO       # sym  WBO       # sym  WBO
 ---------------------------------------------------------------------------
     1   6 C    3.924 --     2 C    1.319     6 C    1.258    44 C    1.069
     2   6 C    3.936 --     1 C    1.319     3 C    1.285    22 O    1.112
     3   6 C    3.943 --     2 C    1.285     4 C    1.200     7 C    1.188
     4   6 C    3.971 --    10 N    1.364     5 C    1.233     3 C    1.200
     5   6 C    3.930 --     6 C    1.493     4 C    1.233   111 H    0.963
     6   6 C    3.967 --     5 C    1.493     1 C    1.258    23 C    0.999
     7   6 C    3.978 --     8 C    1.347    11 C    1.191     3 C    1.188
     8   6 C    3.974 --     7 C    1.347    14 C    1.179     9 C    1.176
     9   6 C    3.976 --    10 N    1.326    17 C    1.300     8 C    1.176
    10   7 N    2.930 --     4 C    1.364     9 C    1.326
    11   6 C    3.935 --    18 C    1.292     7 C    1.191    12 C    1.188
    12   6 C    3.967 --    13 N    1.371    21 C    1.228    11 C    1.188
    13   7 N    2.938 --    12 C    1.371    14 C    1.322
    14   6 C    3.976 --    13 N    1.322    15 C    1.301     8 C    1.179
    15   6 C    3.842 --    16 C    1.387    14 C    1.301   109 H    0.964
    16   6 C    3.973 --    17 C    1.388    15 C    1.387    25 C    1.011
    17   6 C    3.841 --    16 C    1.388     9 C    1.300   110 H    0.963
    18   6 C    3.944 --    19 C    1.306    11 C    1.292    70 N    1.106
    19   6 C    3.884 --    18 C    1.306    20 C    1.270    26 C    1.069
    20   6 C    3.968 --    21 C    1.488    19 C    1.270    24 C    0.995
    21   6 C    3.899 --    20 C    1.488    12 C    1.228   108 H    0.964
    22   8 O    2.136 --     2 C    1.112    51 B    0.782
    23   6 C    3.912 --    67 O    1.712    68 O    1.120     6 C    0.999
    24   6 C    3.912 --    57 O    1.740    55 O    1.100    20 C    0.995
    25   6 C    3.911 --    52 O    1.723    53 O    1.102    16 C    1.011
    26   6 C    3.922 --    27 C    1.320    31 C    1.258    19 C    1.069
    27   6 C    3.936 --    26 C    1.320    28 C    1.284    47 O    1.112
    28   6 C    3.944 --    27 C    1.284    29 C    1.199    32 C    1.189
    29   6 C    3.970 --    35 N    1.364    30 C    1.233    28 C    1.199
    30   6 C    3.926 --    31 C    1.491    29 C    1.233   107 H    0.963
    31   6 C    3.968 --    30 C    1.491    26 C    1.258    48 C    1.003
    32   6 C    3.978 --    33 C    1.346    36 C    1.190    28 C    1.189
    33   6 C    3.974 --    32 C    1.346    39 C    1.180    34 C    1.176
    34   6 C    3.976 --    35 N    1.326    42 C    1.300    33 C    1.176
    35   7 N    2.927 --    29 C    1.364    34 C    1.326
    36   6 C    3.935 --    43 C    1.293    32 C    1.190    37 C    1.187
    37   6 C    3.966 --    38 N    1.374    46 C    1.225    36 C    1.187
    38   7 N    2.947 --    37 C    1.374    39 C    1.324
    39   6 C    3.975 --    38 N    1.324    40 C    1.298    33 C    1.180
    40   6 C    3.839 --    41 C    1.388    39 C    1.298   104 H    0.963
    41   6 C    3.973 --    40 C    1.388    42 C    1.388    50 C    1.010
    42   6 C    3.839 --    41 C    1.388    34 C    1.300   105 H    0.964
    43   6 C    3.944 --    44 C    1.304    36 C    1.293    73 N    1.106
    44   6 C    3.879 --    43 C    1.304    45 C    1.271     1 C    1.069
    45   6 C    3.969 --    46 C    1.494    44 C    1.271    49 C    0.987
    46   6 C    3.895 --    45 C    1.494    37 C    1.225   106 H    0.963
    47   8 O    2.138 --    27 C    1.112    51 B    0.784
    48   6 C    3.911 --    58 O    1.725    59 O    1.103    31 C    1.003
    49   6 C    3.912 --    64 O    1.710    65 O    1.133    45 C    0.987
    50   6 C    3.911 --    61 O    1.723    62 O    1.104    41 C    1.010
    51   5 B    3.357 --    73 N    0.785    70 N    0.784    47 O    0.784
                            22 O    0.782
    52   8 O    2.017 --    25 C    1.723    53 O    0.163
    53   8 O    2.288 --    25 C    1.102    54 C    0.967    52 O    0.163
    54   6 C    3.934 --    82 H    0.982    84 H    0.977    83 H    0.977
                            53 O    0.967
    55   8 O    2.283 --    24 C    1.100    56 C    0.962    57 O    0.166
    56   6 C    3.930 --    81 H    0.983    80 H    0.978    79 H    0.976
                            55 O    0.962
    57   8 O    2.034 --    24 C    1.740    55 O    0.166
    58   8 O    2.028 --    48 C    1.725    59 O    0.166
    59   8 O    2.289 --    48 C    1.103    60 C    0.960    58 O    0.166
    60   6 C    3.927 --    76 H    0.979    78 H    0.975    77 H    0.973
                            59 O    0.960
    61   8 O    2.017 --    50 C    1.723    62 O    0.164
    62   8 O    2.290 --    50 C    1.104    63 C    0.966    61 O    0.164
    63   6 C    3.934 --    98 H    0.982    99 H    0.977   100 H    0.977
                            62 O    0.966
    64   8 O    2.011 --    49 C    1.710    65 O    0.171
    65   8 O    2.313 --    49 C    1.133    66 C    0.954    64 O    0.171
    66   6 C    3.921 --    95 H    0.982    96 H    0.977    97 H    0.970
                            65 O    0.954
    67   8 O    2.014 --    23 C    1.712    68 O    0.168
    68   8 O    2.301 --    23 C    1.120    69 C    0.955    67 O    0.168
    69   6 C    3.922 --   102 H    0.982   103 H    0.977   101 H    0.970
                            68 O    0.955
    70   7 N    3.129 --    18 C    1.106    72 C    0.997    51 B    0.784
    71   6 C    3.989 --    72 C    1.002    86 H    0.988    85 H    0.986
                            87 H    0.982
    72   6 C    3.979 --    71 C    1.002    70 N    0.997    89 H    0.966
                            88 H    0.963
    73   7 N    3.132 --    43 C    1.106    75 C    0.997    51 B    0.785
    74   6 C    3.988 --    75 C    1.002    91 H    0.988    90 H    0.986
                            92 H    0.982
    75   6 C    3.979 --    74 C    1.002    73 N    0.997    94 H    0.966
                            93 H    0.963
    76   1 H    0.996 --    60 C    0.979
    77   1 H    0.995 --    60 C    0.973
    78   1 H    0.995 --    60 C    0.975
    79   1 H    0.995 --    56 C    0.976
    80   1 H    0.997 --    56 C    0.978
    81   1 H    0.996 --    56 C    0.983
    82   1 H    0.996 --    54 C    0.982
    83   1 H    0.996 --    54 C    0.977
    84   1 H    0.997 --    54 C    0.977
    85   1 H    0.998 --    71 C    0.986
    86   1 H    0.999 --    71 C    0.988
    87   1 H    0.998 --    71 C    0.982
    88   1 H    0.997 --    72 C    0.963
    89   1 H    0.996 --    72 C    0.966
    90   1 H    0.998 --    74 C    0.986
    91   1 H    0.998 --    74 C    0.988
    92   1 H    0.998 --    74 C    0.982
    93   1 H    0.997 --    75 C    0.963
    94   1 H    0.996 --    75 C    0.966
    95   1 H    0.996 --    66 C    0.982
    96   1 H    0.996 --    66 C    0.977
    97   1 H    0.994 --    66 C    0.970
    98   1 H    0.996 --    63 C    0.982
    99   1 H    0.996 --    63 C    0.977
   100   1 H    0.996 --    63 C    0.977
   101   1 H    0.994 --    69 C    0.970
   102   1 H    0.996 --    69 C    0.982
   103   1 H    0.996 --    69 C    0.977
   104   1 H    0.994 --    40 C    0.963
   105   1 H    0.995 --    42 C    0.964
   106   1 H    0.993 --    46 C    0.963
   107   1 H    0.993 --    30 C    0.963
   108   1 H    0.994 --    21 C    0.964
   109   1 H    0.995 --    15 C    0.964
   110   1 H    0.994 --    17 C    0.963
   111   1 H    0.994 --     5 C    0.963
 ---------------------------------------------------------------------------

Topologies differ in total number of bonds
Writing corrected topology to xtbtopo.mol

molecular dipole:
                 x           y           z       tot (Debye)
 q only:        3.055      -2.543      -2.714
   full:        3.215      -2.798      -2.571      12.652
molecular quadrupole (traceless):
                xx          xy          yy          xz          yz          zz
 q only:      -49.518     -24.248     -13.255      11.131     -13.096      62.773
  q+dip:      -57.390     -28.669     -14.086      10.036     -15.361      71.476
   full:      -63.845     -29.236     -20.380       6.531     -16.185      84.225


           -------------------------------------------------
          | TOTAL ENERGY             -210.198337172061 Eh   |
          | GRADIENT NORM               0.000804435007 Eh/α |
Note: The following floating-point exceptions are signalling: IEEE_UNDERFLOW_FLAG
normal termination of xtb
          | HOMO-LUMO GAP               0.128669075250 eV   |
           -------------------------------------------------
########################################################################
[WARNING] Runtime exception occurred
-2- restart_readRestart: Multiplicity missmatch in restart file.
-1- restart_readRestart: Number of electron missmatch in restart file.
########################################################################

------------------------------------------------------------------------
 * finished run on 2024/11/07 at 16:15:49.363     
------------------------------------------------------------------------
 total:
 * wall-time:     0 d,  0 h,  0 min,  1.157 sec
 *  cpu-time:     0 d,  0 h,  0 min,  4.067 sec
 * ratio c/w:     3.516 speedup
 SCF:
 * wall-time:     0 d,  0 h,  0 min,  1.133 sec
 *  cpu-time:     0 d,  0 h,  0 min,  4.033 sec
 * ratio c/w:     3.558 speedup

