      -----------------------------------------------------------      
     |                   =====================                   |     
     |                           x T B                           |     
     |                   =====================                   |     
     |                         S. Grimme                         |     
     |          Mulliken Center for Theoretical Chemistry        |     
     |                    University of Bonn                     |     
      -----------------------------------------------------------      

   * xtb version 6.6.1 (8d0f1dd) compiled by 'runner@Mac-1690902418499.local' on 2023-08-01

   xtb is free software: you can redistribute it and/or modify it under
   the terms of the GNU Lesser General Public License as published by
   the Free Software Foundation, either version 3 of the License, or
   (at your option) any later version.
   
   xtb is distributed in the hope that it will be useful,
   but WITHOUT ANY WARRANTY; without even the implied warranty of
   MERCHANTABILITY or FITNESS FOR A PARTICULAR PURPOSE.  See the
   GNU Lesser General Public License for more details.
   
   Cite this work as:
   * C. Bannwarth, E. Caldeweyher, S. Ehlert, A. Hansen, P. Pracht,
     J. Seibert, S. Spicher, S. Grimme, WIREs Comput. Mol. Sci., 2020, 11,
     e01493. DOI: 10.1002/wcms.1493
   
   for GFN2-xTB:
   * C. Bannwarth, S. Ehlert and S. Grimme., J. Chem. Theory Comput., 2019,
     15, 1652-1671. DOI: 10.1021/acs.jctc.8b01176
   for GFN1-xTB:
   * S. Grimme, C. Bannwarth, P. Shushkov, J. Chem. Theory Comput., 2017,
     13, 1989-2009. DOI: 10.1021/acs.jctc.7b00118
   for GFN0-xTB:
   * P. Pracht, E. Caldeweyher, S. Ehlert, S. Grimme, ChemRxiv, 2019, preprint.
     DOI: 10.26434/chemrxiv.8326202.v1
   for GFN-FF:
   * S. Spicher and S. Grimme, Angew. Chem. Int. Ed., 2020, 59, 15665-15673.
     DOI: 10.1002/anie.202004239
   
   for ALPB and GBSA implicit solvation:
   * S. Ehlert, M. Stahn, S. Spicher, S. Grimme, J. Chem. Theory Comput.,
     2021, 17, 4250-4261. DOI: 10.1021/acs.jctc.1c00471
   
   for DFT-D4:
   * E. Caldeweyher, C. Bannwarth and S. Grimme, J. Chem. Phys., 2017,
     147, 034112. DOI: 10.1063/1.4993215
   * E. Caldeweyher, S. Ehlert, A. Hansen, H. Neugebauer, S. Spicher,
     C. Bannwarth and S. Grimme, J. Chem. Phys., 2019, 150, 154122.
     DOI: 10.1063/1.5090222
   * E. Caldeweyher, J.-M. Mewes, S. Ehlert and S. Grimme, Phys. Chem. Chem. Phys.
     2020, 22, 8499-8512. DOI: 10.1039/D0CP00502A
   
   for sTDA-xTB:
   * S. Grimme and C. Bannwarth, J. Chem. Phys., 2016, 145, 054103.
     DOI: 10.1063/1.4959605
   
   in the mass-spec context:
   * V. Asgeirsson, C. Bauer and S. Grimme, Chem. Sci., 2017, 8, 4879.
     DOI: 10.1039/c7sc00601b
   * J. Koopman and S. Grimme, ACS Omega 2019, 4, 12, 15120-15133.
     DOI: 10.1021/acsomega.9b02011
   
   for metadynamics refer to:
   * S. Grimme, J. Chem. Theory Comput., 2019, 155, 2847-2862
     DOI: 10.1021/acs.jctc.9b00143
   
   for SPH calculations refer to:
   * S. Spicher and S. Grimme, J. Chem. Theory Comput., 2021, 17, 1701-1714
     DOI: 10.1021/acs.jctc.0c01306
   
   with help from (in alphabetical order)
   P. Atkinson, C. Bannwarth, F. Bohle, G. Brandenburg, E. Caldeweyher
   M. Checinski, S. Dohm, S. Ehlert, S. Ehrlich, I. Gerasimov, C. Hölzer
   A. Katbashev, J. Koopman, C. Lavigne, S. Lehtola, F. März, M. Müller,
   F. Musil, H. Neugebauer, J. Pisarek, C. Plett, P. Pracht, F. Pultar,
   J. Seibert, P. Shushkov, S. Spicher, M. Stahn, M. Steiner, T. Strunk,
   J. Stückrath, T. Rose, and J. Unsleber
   
 * started run on 2024/10/31 at 16:37:52.252     

           -------------------------------------------------
          |                Calculation Setup                |
           -------------------------------------------------

          program call               : xtb Base2CO2Me.mol --opt --gfn2 --chrg -1 --uhf 0 --tight
          coordinate file            : Base2CO2Me.mol
          omp threads                :                     8

   ID    Z sym.   atoms
    1    6 C      1-9, 11, 12, 14-21, 23-34, 36, 37, 39-46, 48-50, 54, 56,
                  60, 63, 66, 69, 71, 72, 74, 75
    2    7 N      10, 13, 35, 38, 70, 73
    3    8 O      22, 47, 52, 53, 55, 57-59, 61, 62, 64, 65, 67, 68
    4    5 B      51
    5    1 H      76-111
########################################################################
[WARNING] Please study the warnings concerning your input carefully
-2- prog_main: Charge in sdf/mol input was overwritten
-1- prog_main_parseArguments: Unknown option '--tight' provided
########################################################################

           -------------------------------------------------
          |                 G F N 2 - x T B                 |
           -------------------------------------------------

        Reference                      10.1021/acs.jctc.8b01176
      * Hamiltonian:
        H0-scaling (s, p, d)           1.850000    2.230000    2.230000
        zeta-weighting                 0.500000
      * Dispersion:
        s8                             2.700000
        a1                             0.520000
        a2                             5.000000
        s9                             5.000000
      * Repulsion:
        kExp                           1.500000    1.000000
        rExp                           1.000000
      * Coulomb:
        alpha                          2.000000
        third order                    shell-resolved
        anisotropic                    true
        a3                             3.000000
        a5                             4.000000
        cn-shift                       1.200000
        cn-exp                         4.000000
        max-rad                        5.000000

q/qsh data taken from xtbrestart
CAMM data taken from xtbrestart

          ...................................................
          :                      SETUP                      :
          :.................................................:
          :  # basis functions                 336          :
          :  # atomic orbitals                 336          :
          :  # shells                          186          :
          :  # electrons                       370          :
          :  max. iterations                   250          :
          :  Hamiltonian                  GFN2-xTB          :
          :  restarted?                       true          :
          :  GBSA solvation                  false          :
          :  PC potential                    false          :
          :  electronic temp.          300.0000000     K    :
          :  accuracy                    1.0000000          :
          :  -> integral cutoff          0.2500000E+02      :
          :  -> integral neglect         0.1000000E-07      :
          :  -> SCF convergence          0.1000000E-05 Eh   :
          :  -> wf. convergence          0.1000000E-03 e    :
          :  Broyden damping             0.4000000          :
          ...................................................

 iter      E             dE          RMSdq      gap      omega  full diag
   1   -211.2163609 -0.211216E+03  0.431E+00    0.12       0.0  T
   2   -205.6997753  0.551659E+01  0.507E+00    0.12       1.0  T
   3   -206.9657654 -0.126599E+01  0.390E+00    0.22       1.0  T
   4   -207.5878255 -0.622060E+00  0.358E+00    0.20       1.0  T
   5   -208.2208570 -0.633031E+00  0.392E+00    0.33       1.0  T
   6   -211.0226223 -0.280177E+01  0.257E+00    0.17       1.0  T
   7   -210.8538671  0.168755E+00  0.252E+00    0.25       1.0  T
   8   -211.2712480 -0.417381E+00  0.216E+00    0.27       1.0  T
   9   -211.5382370 -0.266989E+00  0.177E+00    0.15       1.0  T
  10   -211.6105133 -0.722763E-01  0.150E+00    0.08       1.0  T
  11   -211.6666173 -0.561040E-01  0.156E+00    0.14       1.0  T
  12   -211.9290540 -0.262437E+00  0.980E-01    0.09       1.0  T
  13   -211.6653501  0.263704E+00  0.144E+00    0.15       1.0  T
  14   -211.8304972 -0.165147E+00  0.123E+00    0.06       1.0  T
  15   -211.9972305 -0.166733E+00  0.745E-01    0.05       1.0  T
  16   -211.8178180  0.179412E+00  0.114E+00    0.09       1.0  T
  17   -212.0476303 -0.229812E+00  0.502E-01    0.03       1.0  T
  18   -212.0606554 -0.130252E-01  0.403E-01    0.03       1.0  T
  19   -212.0774726 -0.168172E-01  0.219E-01    0.03       1.0  T
  20   -212.0801571 -0.268451E-02  0.203E-01    0.04       1.0  T
  21   -212.0761694  0.398769E-02  0.212E-01    0.03       1.0  T
  22   -212.0852810 -0.911161E-02  0.722E-02    0.05       1.0  T
  23   -212.0861755 -0.894481E-03  0.271E-02    0.05       1.0  T
  24   -212.0861953 -0.197695E-04  0.239E-02    0.05       1.0  T
  25   -212.0862130 -0.176772E-04  0.182E-02    0.05       1.0  T
  26   -212.0862550 -0.420320E-04  0.109E-02    0.05       1.0  T
  27   -212.0862718 -0.168009E-04  0.549E-03    0.05       1.7  T
  28   -212.0862736 -0.183412E-05  0.360E-03    0.05       2.6  T
  29   -212.0862751 -0.152243E-05  0.229E-03    0.05       4.2  T
  30   -212.0862753 -0.106518E-06  0.196E-03    0.05       4.8  T
  31   -212.0862757 -0.444637E-06  0.137E-03    0.05       6.9  T
  32   -212.0862759 -0.217065E-06  0.887E-04    0.05      10.7  T
  33   -212.0862760 -0.129209E-06  0.241E-04    0.05      39.4  T

   *** convergence criteria satisfied after 33 iterations ***

         #    Occupation            Energy/Eh            Energy/eV
      -------------------------------------------------------------
         1        2.0000           -0.6814850             -18.5441
       ...           ...                  ...                  ...
       179        2.0000           -0.2925929              -7.9619
       180        2.0000           -0.2915301              -7.9329
       181        2.0000           -0.2912338              -7.9249
       182        2.0000           -0.2884098              -7.8480
       183        1.9966           -0.2834227              -7.7123
       184        1.9201           -0.2803727              -7.6293
       185        1.3046           -0.2779496              -7.5634 (HOMO)
       186        0.4517           -0.2761815              -7.5153 (LUMO)
       187        0.3221           -0.2757840              -7.5045
       188        0.0049           -0.2716434              -7.3918
       189                         -0.2359073              -6.4194
       190                         -0.2330488              -6.3416
       ...                                ...                  ...
       336                          4.8686487             132.4827
      -------------------------------------------------------------
                  HL-Gap            0.0017681 Eh            0.0481 eV
             Fermi-level           -0.2773519 Eh           -7.5471 eV

 SCC (total)                   0 d,  0 h,  0 min,  2.588 sec
 SCC setup                      ...        0 min,  0.000 sec (  0.012%)
 Dispersion                     ...        0 min,  0.001 sec (  0.046%)
 classical contributions        ...        0 min,  0.000 sec (  0.010%)
 integral evaluation            ...        0 min,  0.006 sec (  0.237%)
 iterations                     ...        0 min,  2.538 sec ( 98.062%)
 molecular gradient             ...        0 min,  0.041 sec (  1.588%)
 printout                       ...        0 min,  0.001 sec (  0.044%)

         :::::::::::::::::::::::::::::::::::::::::::::::::::::
         ::                     SUMMARY                     ::
         :::::::::::::::::::::::::::::::::::::::::::::::::::::
         :: total energy            -207.168665170727 Eh    ::
         :: gradient norm              5.286909098498 Eh/a0 ::
         :: HOMO-LUMO gap              0.048111168822 eV    ::
         ::.................................................::
         :: SCC energy              -212.086276041187 Eh    ::
         :: -> isotropic ES            0.436712932121 Eh    ::
         :: -> anisotropic ES          0.028458202753 Eh    ::
         :: -> anisotropic XC          0.056309963628 Eh    ::
         :: -> dispersion             -0.168582516031 Eh    ::
         :: repulsion energy           4.913932185435 Eh    ::
         :: add. restraining           0.000000000000 Eh    ::
         :: total charge              -1.000000081342 e     ::
         :::::::::::::::::::::::::::::::::::::::::::::::::::::

      ----------------------------------------------------------- 
     |                   =====================                   |
     |                        A N C O P T                        |
     |                   =====================                   |
     |               Approximate Normal Coordinate               |
     |                Rational Function Optimizer                |
      ----------------------------------------------------------- 

          ...................................................
          :                      SETUP                      :
          :.................................................:
          :   optimization level            normal          :
          :   max. optcycles                   333          :
          :   ANC micro-cycles                  20          :
          :   degrees of freedom               327          :
          :.................................................:
          :   RF solver                   davidson          :
          :   write xtbopt.log                true          :
          :   linear?                        false          :
          :   energy convergence         0.5000000E-05 Eh   :
          :   grad. convergence          0.1000000E-02 Eh/α :
          :   maxmium RF displ.          1.0000000          :
          :   Hlow (freq-cutoff)         0.1000000E-01      :
          :   Hmax (freq-cutoff)         5.0000000          :
          :   S6 in model hess.         20.0000000          :
          ...................................................

generating ANC from model Hessian ...
Using Lindh-Hessian (1995)
 Shifting diagonal of input Hessian by    9.9672937093094049E-003
 Lowest  eigenvalues of input Hessian
    0.000000    0.000000    0.000000    0.000000    0.000000    0.000000
    0.010000    0.010015    0.010098    0.010150    0.010176    0.010308
    0.010406    0.010520    0.010567    0.010733    0.010745    0.010901
 Highest eigenvalues
    3.381070    3.757658    3.933820    4.001520    4.910093    7.669347


........................................................................
.............................. CYCLE    1 ..............................
........................................................................

 iter      E             dE          RMSdq      gap      omega  full diag
   1   -212.0862760 -0.212086E+03  0.170E-04    0.05       0.0  T
   2   -212.0862733  0.272331E-05  0.336E-03    0.05       2.8  T
   3   -212.0862758 -0.248765E-05  0.963E-04    0.05       9.9  T
   4   -212.0862760 -0.216271E-06  0.305E-04    0.05      31.1  T
   5   -212.0862760 -0.211518E-07  0.145E-04    0.05      65.3  T
     SCC iter.                  ...        0 min,  0.437 sec
     gradient                   ...        0 min,  0.039 sec
 * total energy  :  -207.1686652 Eh     change       -0.6308994E-08 Eh
   gradient norm :     5.2869085 Eh/α   predicted     0.0000000E+00 (-100.00%)
   displ. norm   :     0.7808970 α      lambda       -0.4043414E+01
   maximum displ.:     0.4641224 α      in ANC's #295, #273, #327, ...

........................................................................
.............................. CYCLE    2 ..............................
........................................................................

 iter      E             dE          RMSdq      gap      omega  full diag
   1   -211.9409906 -0.211941E+03  0.892E-01    0.06       0.0  T
   2   -210.5059951  0.143500E+01  0.244E+00    0.02       1.0  T
   3   -211.0161893 -0.510194E+00  0.215E+00    0.02       1.0  T
   4   -211.6128381 -0.596649E+00  0.134E+00    0.05       1.0  T
   5   -211.8019476 -0.189109E+00  0.111E+00    0.05       1.0  T
   6   -211.8676486 -0.657010E-01  0.115E+00    0.01       1.0  T
   7   -211.8718727 -0.422405E-02  0.109E+00    0.09       1.0  T
   8   -211.9440827 -0.722101E-01  0.825E-01    0.07       1.0  T
   9   -211.7283055  0.215777E+00  0.128E+00    0.07       1.0  T
  10   -212.0130302 -0.284725E+00  0.482E-01    0.07       1.0  T
  11   -212.0509522 -0.379220E-01  0.346E-01    0.06       1.0  T
  12   -212.0423188  0.863347E-02  0.442E-01    0.07       1.0  T
  13   -212.0457697 -0.345089E-02  0.418E-01    0.06       1.0  T
  14   -212.0767464 -0.309768E-01  0.179E-01    0.05       1.0  T
  15   -212.0821370 -0.539062E-02  0.901E-02    0.05       1.0  T
  16   -212.0805131  0.162398E-02  0.116E-01    0.05       1.0  T
  17   -212.0822397 -0.172665E-02  0.753E-02    0.04       1.0  T
  18   -212.0830160 -0.776254E-03  0.450E-02    0.04       1.0  T
  19   -212.0833942 -0.378279E-03  0.176E-02    0.04       1.0  T
  20   -212.0834463 -0.521126E-04  0.776E-03    0.04       1.2  T
  21   -212.0834590 -0.126887E-04  0.353E-03    0.04       2.7  T
  22   -212.0834598 -0.717539E-06  0.321E-03    0.04       3.0  T
  23   -212.0834618 -0.201807E-05  0.119E-03    0.04       8.0  T
  24   -212.0834620 -0.244930E-06  0.529E-04    0.04      18.0  T
  25   -212.0834621 -0.539075E-07  0.165E-04    0.04      57.4  T
     SCC iter.                  ...        0 min,  1.298 sec
     gradient                   ...        0 min,  0.037 sec
 * total energy  :  -209.0057642 Eh     change       -0.1837099E+01 Eh
   gradient norm :     1.1249346 Eh/α   predicted    -0.3254544E+01 (  77.16%)
   displ. norm   :     0.5606512 α      lambda       -0.5334395E+00
   maximum displ.:     0.1866043 α      in ANC's #251, #273, #222, ...

........................................................................
.............................. CYCLE    3 ..............................
........................................................................

 iter      E             dE          RMSdq      gap      omega  full diag
   1   -212.0968822 -0.212097E+03  0.521E-01    0.07       0.0  T
   2   -210.3529871  0.174390E+01  0.262E+00    0.01       1.0  T
   3   -211.9203294 -0.156734E+01  0.102E+00    0.07       1.0  T
   4   -211.8872005  0.331288E-01  0.109E+00    0.10       1.0  T
   5   -211.5064702  0.380730E+00  0.158E+00    0.08       1.0  T
   6   -212.0942910 -0.587821E+00  0.444E-01    0.04       1.0  T
   7   -211.7792055  0.315085E+00  0.128E+00    0.06       1.0  T
   8   -212.1168370 -0.337631E+00  0.220E-01    0.05       1.0  T
   9   -212.0727163  0.441207E-01  0.419E-01    0.04       1.0  T
  10   -212.1213467 -0.486304E-01  0.131E-01    0.05       1.0  T
  11   -212.1245548 -0.320805E-02  0.108E-01    0.04       1.0  T
  12   -212.1207762  0.377861E-02  0.155E-01    0.04       1.0  T
  13   -212.1259309 -0.515470E-02  0.397E-02    0.04       1.0  T
  14   -212.1252537  0.677171E-03  0.714E-02    0.04       1.0  T
  15   -212.1255482 -0.294469E-03  0.588E-02    0.04       1.0  T
  16   -212.1261091 -0.560890E-03  0.283E-02    0.04       1.0  T
  17   -212.1262239 -0.114892E-03  0.159E-02    0.04       1.0  T
  18   -212.1262646 -0.406556E-04  0.730E-03    0.04       1.3  T
  19   -212.1262744 -0.983228E-05  0.301E-03    0.04       3.1  T
  20   -212.1262763 -0.189078E-05  0.741E-04    0.04      12.8  T
  21   -212.1262764 -0.120625E-06  0.443E-04    0.04      21.4  T
  22   -212.1262763  0.147246E-06  0.918E-04    0.04      10.3  T
     SCC iter.                  ...        0 min,  1.197 sec
     gradient                   ...        0 min,  0.040 sec
 * total energy  :  -209.3823893 Eh     change       -0.3766251E+00 Eh
   gradient norm :     0.5637659 Eh/α   predicted    -0.3505576E+00 (  -6.92%)
   displ. norm   :     0.5429923 α      lambda       -0.2375155E+00
   maximum displ.:     0.1448377 α      in ANC's #186, #230, #273, ...

........................................................................
.............................. CYCLE    4 ..............................
........................................................................

 iter      E             dE          RMSdq      gap      omega  full diag
   1   -212.1678102 -0.212168E+03  0.575E-01    0.07       0.0  T
   2   -210.1781184  0.198969E+01  0.283E+00    0.02       1.0  T
   3   -211.9528576 -0.177474E+01  0.111E+00    0.10       1.0  T
   4   -211.8737348  0.791229E-01  0.131E+00    0.17       1.0  T
   5   -211.7838896  0.898451E-01  0.136E+00    0.03       1.0  T
   6   -212.0882889 -0.304399E+00  0.737E-01    0.04       1.0  T
   7   -211.9360230  0.152266E+00  0.114E+00    0.12       1.0  T
   8   -212.1787625 -0.242740E+00  0.352E-01    0.05       1.0  T
   9   -212.1887180 -0.995548E-02  0.256E-01    0.04       1.0  T
  10   -212.1751553  0.135627E-01  0.319E-01    0.06       1.0  T
  11   -212.1960664 -0.209111E-01  0.196E-01    0.04       1.0  T
  12   -212.2051891 -0.912267E-02  0.717E-02    0.03       1.0  T
  13   -212.2027538  0.243531E-02  0.108E-01    0.03       1.0  T
  14   -212.2045570 -0.180321E-02  0.759E-02    0.03       1.0  T
  15   -212.2057475 -0.119046E-02  0.207E-02    0.03       1.0  T
  16   -212.2056652  0.822484E-04  0.283E-02    0.04       1.0  T
  17   -212.2058113 -0.146101E-03  0.114E-02    0.03       1.0  T
  18   -212.2058323 -0.209822E-04  0.307E-03    0.03       3.1  T
  19   -212.2058331 -0.820704E-06  0.220E-03    0.03       4.3  T
  20   -212.2058333 -0.170297E-06  0.197E-03    0.03       4.8  T
  21   -212.2058341 -0.811415E-06  0.732E-04    0.03      13.0  T
  22   -212.2058341  0.330189E-08  0.661E-04    0.03      14.4  T
     SCC iter.                  ...        0 min,  1.280 sec
     gradient                   ...        0 min,  0.043 sec
 * total energy  :  -209.5641076 Eh     change       -0.1817183E+00 Eh
   gradient norm :     0.3229449 Eh/α   predicted    -0.1537726E+00 ( -15.38%)
   displ. norm   :     0.5636506 α      lambda       -0.1314447E+00
   maximum displ.:     0.1285444 α      in ANC's #186, #230, #67, ...

........................................................................
.............................. CYCLE    5 ..............................
........................................................................

 iter      E             dE          RMSdq      gap      omega  full diag
   1   -212.2473505 -0.212247E+03  0.491E-01    0.06       0.0  T
   2   -210.7000585  0.154729E+01  0.257E+00    0.02       1.0  T
   3   -212.1818974 -0.148184E+01  0.665E-01    0.05       1.0  T
   4   -212.0699801  0.111917E+00  0.105E+00    0.11       1.0  T
   5   -211.7491187  0.320861E+00  0.152E+00    0.08       1.0  T
   6   -212.1624261 -0.413307E+00  0.712E-01    0.08       1.0  T
   7   -212.2050295 -0.426034E-01  0.618E-01    0.03       1.0  T
   8   -212.2152245 -0.101950E-01  0.452E-01    0.05       1.0  T
   9   -212.2499088 -0.346843E-01  0.303E-01    0.06       1.0  T
  10   -212.2660381 -0.161293E-01  0.153E-01    0.04       1.0  T
  11   -212.2702314 -0.419335E-02  0.816E-02    0.03       1.0  T
  12   -212.2699048  0.326668E-03  0.809E-02    0.03       1.0  T
  13   -212.2656764  0.422834E-02  0.157E-01    0.03       1.0  T
  14   -212.2702151 -0.453871E-02  0.748E-02    0.03       1.0  T
  15   -212.2711342 -0.919093E-03  0.350E-02    0.03       1.0  T
  16   -212.2713942 -0.260020E-03  0.106E-02    0.03       1.0  T
  17   -212.2714126 -0.184091E-04  0.426E-03    0.03       2.2  T
  18   -212.2714111  0.151751E-05  0.465E-03    0.03       2.0  T
  19   -212.2714146 -0.344497E-05  0.235E-03    0.03       4.0  T
  20   -212.2714156 -0.979940E-06  0.997E-04    0.03       9.5  T
  21   -212.2714157 -0.151310E-06  0.627E-04    0.03      15.1  T
     SCC iter.                  ...        0 min,  1.443 sec
     gradient                   ...        0 min,  0.040 sec
 * total energy  :  -209.6593965 Eh     change       -0.9528893E-01 Eh
   gradient norm :     0.1759772 Eh/α   predicted    -0.8660256E-01 (  -9.12%)
   displ. norm   :     0.5750406 α      lambda       -0.5801318E-01
   maximum displ.:     0.1813634 α      in ANC's #67, #60, #62, ...

........................................................................
.............................. CYCLE    6 ..............................
........................................................................

 iter      E             dE          RMSdq      gap      omega  full diag
   1   -212.3135697 -0.212314E+03  0.313E-01    0.03       0.0  T
   2   -211.7278359  0.585734E+00  0.169E+00    0.08       1.0  T
   3   -212.0547382 -0.326902E+00  0.114E+00    0.09       1.0  T
   4   -212.2011716 -0.146433E+00  0.741E-01    0.05       1.0  T
   5   -211.9546653  0.246506E+00  0.137E+00    0.19       1.0  T
   6   -211.9269634  0.277020E-01  0.138E+00    0.16       1.0  T
   7   -212.2986372 -0.371674E+00  0.324E-01    0.04       1.0  T
   8   -212.3127789 -0.141417E-01  0.188E-01    0.03       1.0  T
   9   -212.2963876  0.163913E-01  0.338E-01    0.05       1.0  T
  10   -212.3145812 -0.181936E-01  0.165E-01    0.03       1.0  T
  11   -212.3177258 -0.314457E-02  0.919E-02    0.03       1.0  T
  12   -212.3186166 -0.890799E-03  0.517E-02    0.02       1.0  T
  13   -212.3191900 -0.573382E-03  0.207E-02    0.03       1.0  T
  14   -212.3192305 -0.405370E-04  0.171E-02    0.03       1.0  T
  15   -212.3192372 -0.671865E-05  0.159E-02    0.03       1.0  T
  16   -212.3192908 -0.535611E-04  0.177E-03    0.03       5.4  T
  17   -212.3192906  0.169633E-06  0.207E-03    0.03       4.6  T
  18   -212.3192908 -0.228916E-06  0.186E-03    0.03       5.1  T
  19   -212.3192916 -0.749372E-06  0.383E-04    0.03      24.8  T
  20   -212.3192916 -0.231433E-07  0.226E-04    0.03      42.0  T
     SCC iter.                  ...        0 min,  1.181 sec
     gradient                   ...        0 min,  0.039 sec
 * total energy  :  -209.7028417 Eh     change       -0.4344518E-01 Eh
   gradient norm :     0.1190219 Eh/α   predicted    -0.3859828E-01 ( -11.16%)
   displ. norm   :     0.6210048 α      lambda       -0.3283245E-01
   maximum displ.:     0.2182117 α      in ANC's #67, #22, #60, ...

........................................................................
.............................. CYCLE    7 ..............................
........................................................................

 iter      E             dE          RMSdq      gap      omega  full diag
   1   -212.3568317 -0.212357E+03  0.251E-01    0.02       0.0  T
   2   -211.8027797  0.554052E+00  0.145E+00    0.03       1.0  T
   3   -212.1803589 -0.377579E+00  0.993E-01    0.08       1.0  T
   4   -212.1990507 -0.186917E-01  0.873E-01    0.05       1.0  T
   5   -212.2195894 -0.205388E-01  0.888E-01    0.01       1.0  T
   6   -212.1896154  0.299741E-01  0.886E-01    0.02       1.0  T
   7   -212.3476455 -0.158030E+00  0.267E-01    0.04       1.0  T
   8   -212.3443861  0.325937E-02  0.276E-01    0.03       1.0  T
   9   -212.3554137 -0.110275E-01  0.158E-01    0.03       1.0  T
  10   -212.3585376 -0.312394E-02  0.105E-01    0.03       1.0  T
  11   -212.3591767 -0.639110E-03  0.901E-02    0.03       1.0  T
  12   -212.3599860 -0.809306E-03  0.636E-02    0.03       1.0  T
  13   -212.3604299 -0.443888E-03  0.365E-02    0.03       1.0  T
  14   -212.3606186 -0.188710E-03  0.204E-02    0.03       1.0  T
  15   -212.3606776 -0.590014E-04  0.101E-02    0.03       1.0  T
  16   -212.3606868 -0.919005E-05  0.702E-03    0.02       1.4  T
  17   -212.3606958 -0.902850E-05  0.250E-03    0.02       3.8  T
  18   -212.3606969 -0.111583E-05  0.100E-03    0.02       9.5  T
  19   -212.3606972 -0.215841E-06  0.317E-04    0.02      29.9  T
  20   -212.3606971  0.163644E-07  0.381E-04    0.02      24.9  T
     SCC iter.                  ...        0 min,  1.061 sec
     gradient                   ...        0 min,  0.041 sec
 * total energy  :  -209.7288300 Eh     change       -0.2598832E-01 Eh
   gradient norm :     0.0902707 Eh/α   predicted    -0.2274711E-01 ( -12.47%)
   displ. norm   :     0.6674184 α      lambda       -0.2370668E-01
   maximum displ.:     0.2214643 α      in ANC's #67, #22, #23, ...

........................................................................
.............................. CYCLE    8 ..............................
........................................................................

 iter      E             dE          RMSdq      gap      omega  full diag
   1   -212.3930794 -0.212393E+03  0.271E-01    0.03       0.0  T
   2   -211.8476749  0.545404E+00  0.160E+00    0.16       1.0  T
   3   -212.2876695 -0.439995E+00  0.788E-01    0.06       1.0  T
   4   -212.2530277  0.346418E-01  0.872E-01    0.07       1.0  T
   5   -212.2186318  0.343959E-01  0.933E-01    0.02       1.0  T
   6   -212.2020094  0.166224E-01  0.939E-01    0.02       1.0  T
   7   -212.3839926 -0.181983E+00  0.282E-01    0.03       1.0  T
   8   -212.3827890  0.120361E-02  0.254E-01    0.05       1.0  T
   9   -212.3968673 -0.140783E-01  0.124E-01    0.03       1.0  T
  10   -212.3994470 -0.257973E-02  0.530E-02    0.03       1.0  T
  11   -212.3992129  0.234141E-03  0.629E-02    0.03       1.0  T
  12   -212.3990672  0.145655E-03  0.689E-02    0.03       1.0  T
  13   -212.4000225 -0.955251E-03  0.151E-02    0.03       1.0  T
  14   -212.4000092  0.132924E-04  0.159E-02    0.03       1.0  T
  15   -212.4000418 -0.326119E-04  0.108E-02    0.03       1.0  T
  16   -212.4000527 -0.109202E-04  0.738E-03    0.03       1.3  T
  17   -212.4000648 -0.121374E-04  0.165E-03    0.03       5.7  T
  18   -212.4000651 -0.247107E-06  0.144E-03    0.03       6.6  T
  19   -212.4000653 -0.177934E-06  0.104E-03    0.03       9.1  T
  20   -212.4000655 -0.240648E-06  0.222E-04    0.03      42.7  T
  21   -212.4000655 -0.521177E-08  0.112E-04    0.03      84.5  T
     SCC iter.                  ...        0 min,  1.132 sec
     gradient                   ...        0 min,  0.041 sec
 * total energy  :  -209.7481875 Eh     change       -0.1935750E-01 Eh
   gradient norm :     0.0669071 Eh/α   predicted    -0.1713351E-01 ( -11.49%)
   displ. norm   :     0.6968781 α      lambda       -0.1828396E-01
   maximum displ.:     0.2235629 α      in ANC's #22, #23, #67, ...

........................................................................
.............................. CYCLE    9 ..............................
........................................................................

 iter      E             dE          RMSdq      gap      omega  full diag
   1   -212.4256666 -0.212426E+03  0.306E-01    0.04       0.0  T
   2   -211.7946387  0.631028E+00  0.174E+00    0.18       1.0  T
   3   -212.1661616 -0.371523E+00  0.120E+00    0.14       1.0  T
   4   -212.3458384 -0.179677E+00  0.643E-01    0.06       1.0  T
   5   -212.2859274  0.599110E-01  0.851E-01    0.01       1.0  T
   6   -212.4019590 -0.116032E+00  0.454E-01    0.04       1.0  T
   7   -212.3182900  0.836691E-01  0.751E-01    0.06       1.0  T
   8   -212.4158129 -0.975229E-01  0.275E-01    0.04       1.0  T
   9   -212.4139826  0.183026E-02  0.323E-01    0.05       1.0  T
  10   -212.4320013 -0.180187E-01  0.144E-01    0.04       1.0  T
  11   -212.4333208 -0.131949E-02  0.111E-01    0.04       1.0  T
  12   -212.4361632 -0.284242E-02  0.137E-02    0.04       1.0  T
  13   -212.4361759 -0.127081E-04  0.118E-02    0.04       1.0  T
  14   -212.4362070 -0.310975E-04  0.273E-03    0.04       3.5  T
  15   -212.4362070 -0.341849E-07  0.268E-03    0.04       3.5  T
  16   -212.4362085 -0.143909E-05  0.705E-04    0.04      13.5  T
  17   -212.4362082  0.236577E-06  0.121E-03    0.04       7.8  T
  18   -212.4362085 -0.268724E-06  0.530E-04    0.04      17.9  T
  19   -212.4362085 -0.508514E-07  0.160E-04    0.04      59.3  T
     SCC iter.                  ...        0 min,  1.152 sec
     gradient                   ...        0 min,  0.039 sec
 * total energy  :  -209.7632164 Eh     change       -0.1502889E-01 Eh
   gradient norm :     0.0520861 Eh/α   predicted    -0.1358169E-01 (  -9.63%)
   displ. norm   :     0.7225733 α      lambda       -0.1389620E-01
   maximum displ.:     0.2526547 α      in ANC's #22, #23, #33, ...

........................................................................
.............................. CYCLE   10 ..............................
........................................................................

 iter      E             dE          RMSdq      gap      omega  full diag
   1   -212.4532233 -0.212453E+03  0.301E-01    0.05       0.0  T
   2   -211.5136387  0.939585E+00  0.191E+00    0.06       1.0  T
   3   -212.2683561 -0.754717E+00  0.107E+00    0.02       1.0  T
   4   -212.4032809 -0.134925E+00  0.601E-01    0.04       1.0  T
   5   -212.3652852  0.379957E-01  0.685E-01    0.04       1.0  T
   6   -212.2669439  0.983413E-01  0.965E-01    0.04       1.0  T
   7   -212.4356426 -0.168699E+00  0.357E-01    0.06       1.0  T
   8   -212.4553890 -0.197465E-01  0.232E-01    0.04       1.0  T
   9   -212.4582882 -0.289911E-02  0.148E-01    0.05       1.0  T
  10   -212.4621079 -0.381976E-02  0.110E-01    0.05       1.0  T
  11   -212.4619773  0.130627E-03  0.117E-01    0.05       1.0  T
  12   -212.4639054 -0.192810E-02  0.569E-02    0.05       1.0  T
  13   -212.4643890 -0.483579E-03  0.399E-02    0.05       1.0  T
  14   -212.4642319  0.157098E-03  0.436E-02    0.05       1.0  T
  15   -212.4645502 -0.318326E-03  0.214E-02    0.05       1.0  T
  16   -212.4646397 -0.894594E-04  0.763E-03    0.05       1.2  T
  17   -212.4646468 -0.718427E-05  0.649E-03    0.05       1.5  T
  18   -212.4646507 -0.380893E-05  0.433E-03    0.05       2.2  T
  19   -212.4646540 -0.332521E-05  0.764E-04    0.05      12.4  T
  20   -212.4646539  0.773740E-07  0.956E-04    0.05       9.9  T
  21   -212.4646541 -0.158569E-06  0.259E-04    0.05      36.6  T
     SCC iter.                  ...        0 min,  1.312 sec
     gradient                   ...        0 min,  0.038 sec
 * total energy  :  -209.7748777 Eh     change       -0.1166129E-01 Eh
   gradient norm :     0.0503252 Eh/α   predicted    -0.1057587E-01 (  -9.31%)
   displ. norm   :     0.7592637 α      lambda       -0.1148368E-01
   maximum displ.:     0.2801549 α      in ANC's #22, #23, #8, ...

........................................................................
.............................. CYCLE   11 ..............................
........................................................................

 iter      E             dE          RMSdq      gap      omega  full diag
   1   -212.4762368 -0.212476E+03  0.260E-01    0.06       0.0  T
   2   -211.4477277  0.102851E+01  0.200E+00    0.14       1.0  T
   3   -212.4028447 -0.955117E+00  0.637E-01    0.08       1.0  T
   4   -212.4440532 -0.412086E-01  0.465E-01    0.05       1.0  T
   5   -212.2768823  0.167171E+00  0.959E-01    0.06       1.0  T
   6   -212.3693034 -0.924211E-01  0.759E-01    0.08       1.0  T
   7   -212.4579570 -0.886536E-01  0.340E-01    0.07       1.0  T
   8   -212.4682393 -0.102823E-01  0.273E-01    0.04       1.0  T
   9   -212.4833091 -0.150698E-01  0.865E-02    0.05       1.0  T
  10   -212.4746413  0.866786E-02  0.229E-01    0.06       1.0  T
  11   -212.4773707 -0.272946E-02  0.200E-01    0.06       1.0  T
  12   -212.4805346 -0.316388E-02  0.152E-01    0.06       1.0  T
  13   -212.4845885 -0.405392E-02  0.415E-02    0.05       1.0  T
  14   -212.4839958  0.592729E-03  0.722E-02    0.05       1.0  T
  15   -212.4836718  0.324006E-03  0.841E-02    0.05       1.0  T
  16   -212.4842922 -0.620432E-03  0.600E-02    0.05       1.0  T
  17   -212.4849481 -0.655915E-03  0.708E-03    0.05       1.3  T
  18   -212.4849442  0.392888E-05  0.826E-03    0.05       1.1  T
  19   -212.4849538 -0.959593E-05  0.321E-03    0.05       3.0  T
  20   -212.4849555 -0.169386E-05  0.113E-03    0.05       8.4  T
  21   -212.4849557 -0.205371E-06  0.501E-04    0.05      19.0  T
  22   -212.4849557 -0.267781E-07  0.354E-04    0.05      26.8  T
     SCC iter.                  ...        0 min,  1.289 sec
     gradient                   ...        0 min,  0.041 sec
 * total energy  :  -209.7849281 Eh     change       -0.1005042E-01 Eh
   gradient norm :     0.0509976 Eh/α   predicted    -0.9051923E-02 (  -9.93%)
   displ. norm   :     0.7991727 α      lambda       -0.1077248E-01
   maximum displ.:     0.3053456 α      in ANC's #22, #23, #8, ...

........................................................................
.............................. CYCLE   12 ..............................
........................................................................

 iter      E             dE          RMSdq      gap      omega  full diag
   1   -212.4952668 -0.212495E+03  0.220E-01    0.05       0.0  T
   2   -211.9750494  0.520217E+00  0.152E+00    0.18       1.0  T
   3   -212.4117264 -0.436677E+00  0.674E-01    0.07       1.0  T
   4   -212.4635911 -0.518646E-01  0.446E-01    0.05       1.0  T
   5   -212.3985059  0.650852E-01  0.639E-01    0.01       1.0  T
   6   -212.4944902 -0.959844E-01  0.159E-01    0.06       1.0  T
   7   -212.4853475  0.914275E-02  0.235E-01    0.03       1.0  T
   8   -212.4975099 -0.121624E-01  0.105E-01    0.05       1.0  T
   9   -212.4948868  0.262307E-02  0.150E-01    0.05       1.0  T
  10   -212.4989920 -0.410518E-02  0.611E-02    0.05       1.0  T
  11   -212.4991756 -0.183589E-03  0.526E-02    0.05       1.0  T
  12   -212.4995938 -0.418179E-03  0.289E-02    0.05       1.0  T
  13   -212.4997349 -0.141084E-03  0.103E-02    0.05       1.0  T
  14   -212.4996100  0.124834E-03  0.276E-02    0.04       1.0  T
  15   -212.4996804 -0.704040E-04  0.198E-02    0.04       1.0  T
  16   -212.4997377 -0.572778E-04  0.939E-03    0.05       1.0  T
  17   -212.4997551 -0.173624E-04  0.997E-04    0.05       9.5  T
  18   -212.4997552 -0.946570E-07  0.738E-04    0.05      12.9  T
  19   -212.4997553 -0.948602E-07  0.207E-04    0.05      45.8  T
     SCC iter.                  ...        0 min,  1.161 sec
     gradient                   ...        0 min,  0.038 sec
 * total energy  :  -209.7946329 Eh     change       -0.9704801E-02 Eh
   gradient norm :     0.0473880 Eh/α   predicted    -0.8826315E-02 (  -9.05%)
   displ. norm   :     0.8310922 α      lambda       -0.1053307E-01
   maximum displ.:     0.3294219 α      in ANC's #8, #22, #23, ...

........................................................................
.............................. CYCLE   13 ..............................
........................................................................

 iter      E             dE          RMSdq      gap      omega  full diag
   1   -212.5023200 -0.212502E+03  0.263E-01    0.03       0.0  T
   2   -212.1479560  0.354364E+00  0.146E+00    0.02       1.0  T
   3   -212.4848186 -0.336863E+00  0.319E-01    0.09       1.0  T
   4   -212.4493768  0.354418E-01  0.509E-01    0.02       1.0  T
   5   -212.3778217  0.715550E-01  0.757E-01    0.09       1.0  T
   6   -212.4314853 -0.536636E-01  0.581E-01    0.07       1.0  T
   7   -212.4784264 -0.469411E-01  0.344E-01    0.04       1.0  T
   8   -212.5027646 -0.243382E-01  0.173E-01    0.04       1.0  T
   9   -212.5057216 -0.295705E-02  0.111E-01    0.05       1.0  T
  10   -212.5078252 -0.210355E-02  0.614E-02    0.04       1.0  T
  11   -212.5081427 -0.317516E-03  0.455E-02    0.04       1.0  T
  12   -212.5084425 -0.299822E-03  0.219E-02    0.04       1.0  T
  13   -212.5085327 -0.901488E-04  0.114E-02    0.04       1.0  T
  14   -212.5085483 -0.156216E-04  0.717E-03    0.04       1.3  T
  15   -212.5085569 -0.862625E-05  0.293E-03    0.04       3.2  T
  16   -212.5085588 -0.190022E-05  0.717E-04    0.04      13.2  T
  17   -212.5085588  0.127943E-07  0.831E-04    0.04      11.4  T
  18   -212.5085589 -0.914816E-07  0.526E-04    0.04      18.0  T
     SCC iter.                  ...        0 min,  1.021 sec
     gradient                   ...        0 min,  0.038 sec
 * total energy  :  -209.8042888 Eh     change       -0.9655877E-02 Eh
   gradient norm :     0.0411844 Eh/α   predicted    -0.8904215E-02 (  -7.78%)
   displ. norm   :     0.8616630 α      lambda       -0.1048120E-01
   maximum displ.:     0.3790639 α      in ANC's #8, #22, #23, ...

........................................................................
.............................. CYCLE   14 ..............................
........................................................................

 iter      E             dE          RMSdq      gap      omega  full diag
   1   -212.4936047 -0.212494E+03  0.400E-01    0.02       0.0  T
   2   -211.9790973  0.514507E+00  0.159E+00    0.24       1.0  T
   3   -212.2585261 -0.279429E+00  0.103E+00    0.03       1.0  T
   4   -212.5026395 -0.244113E+00  0.264E-01    0.04       1.0  T
   5   -212.2876151  0.215024E+00  0.954E-01    0.10       1.0  T
   6   -212.4888136 -0.201198E+00  0.319E-01    0.03       1.0  T
   7   -212.4956261 -0.681252E-02  0.303E-01    0.05       1.0  T
   8   -212.5123844 -0.167583E-01  0.111E-01    0.03       1.0  T
   9   -212.5085083  0.387609E-02  0.165E-01    0.03       1.0  T
  10   -212.5126802 -0.417193E-02  0.103E-01    0.03       1.0  T
  11   -212.5128500 -0.169853E-03  0.931E-02    0.03       1.0  T
  12   -212.5141482 -0.129819E-02  0.466E-02    0.02       1.0  T
  13   -212.5145773 -0.429027E-03  0.203E-02    0.02       1.0  T
  14   -212.5146479 -0.706820E-04  0.806E-03    0.02       1.2  T
  15   -212.5146526 -0.465047E-05  0.652E-03    0.02       1.5  T
  16   -212.5146594 -0.682733E-05  0.332E-03    0.02       2.9  T
  17   -212.5146612 -0.181650E-05  0.996E-04    0.02       9.5  T
  18   -212.5146613 -0.768939E-07  0.659E-04    0.02      14.4  T
  19   -212.5146614 -0.344754E-07  0.481E-04    0.02      19.7  T
     SCC iter.                  ...        0 min,  0.978 sec
     gradient                   ...        0 min,  0.040 sec
 * total energy  :  -209.8141814 Eh     change       -0.9892551E-02 Eh
   gradient norm :     0.0374691 Eh/α   predicted    -0.9131565E-02 (  -7.69%)
   displ. norm   :     0.9112665 α      lambda       -0.1125920E-01
   maximum displ.:     0.4117090 α      in ANC's #8, #22, #23, ...

........................................................................
.............................. CYCLE   15 ..............................
........................................................................

 iter      E             dE          RMSdq      gap      omega  full diag
   1   -212.4880518 -0.212488E+03  0.472E-01    0.03       0.0  T
   2   -211.8975369  0.590515E+00  0.170E+00    0.36       1.0  T
   3   -212.4501067 -0.552570E+00  0.603E-01    0.05       1.0  T
   4   -212.3367673  0.113339E+00  0.883E-01    0.05       1.0  T
   5   -212.2469639  0.898034E-01  0.939E-01    0.13       1.0  T
   6   -212.3630490 -0.116085E+00  0.811E-01    0.14       1.0  T
   7   -212.5060305 -0.142981E+00  0.203E-01    0.03       1.0  T
   8   -212.5056296  0.400897E-03  0.208E-01    0.01       1.0  T
   9   -212.5114560 -0.582639E-02  0.120E-01    0.03       1.0  T
  10   -212.5139563 -0.250031E-02  0.582E-02    0.02       1.0  T
  11   -212.5136984  0.257878E-03  0.663E-02    0.02       1.0  T
  12   -212.5144399 -0.741502E-03  0.213E-02    0.01       1.0  T
  13   -212.5144678 -0.279036E-04  0.185E-02    0.01       1.0  T
  14   -212.5145310 -0.632456E-04  0.788E-03    0.01       1.2  T
  15   -212.5145393 -0.825348E-05  0.463E-03    0.01       2.0  T
  16   -212.5145410 -0.169183E-05  0.285E-03    0.01       3.3  T
  17   -212.5145416 -0.611024E-06  0.262E-03    0.01       3.6  T
  18   -212.5145429 -0.130158E-05  0.784E-04    0.01      12.1  T
  19   -212.5145430 -0.147433E-06  0.209E-04    0.01      45.4  T
  20   -212.5145431 -0.592664E-08  0.152E-04    0.01      62.4  T
     SCC iter.                  ...        0 min,  1.092 sec
     gradient                   ...        0 min,  0.038 sec
 * total energy  :  -209.8253101 Eh     change       -0.1112873E-01 Eh
   gradient norm :     0.0423345 Eh/α   predicted    -0.1030446E-01 (  -7.41%)
   displ. norm   :     0.9247385 α      lambda       -0.1332322E-01
   maximum displ.:     0.4111091 α      in ANC's #8, #22, #23, ...

........................................................................
.............................. CYCLE   16 ..............................
........................................................................

 iter      E             dE          RMSdq      gap      omega  full diag
   1   -212.4958998 -0.212496E+03  0.476E-01    0.03       0.0  T
   2   -211.8866069  0.609293E+00  0.178E+00    0.47       1.0  T
   3   -212.4750734 -0.588466E+00  0.482E-01    0.05       1.0  T
   4   -212.0073542  0.467719E+00  0.144E+00    0.10       1.0  T
   5   -212.3903323 -0.382978E+00  0.746E-01    0.08       1.0  T
   6   -212.4411991 -0.508667E-01  0.528E-01    0.01       1.0  T
   7   -212.4095283  0.316708E-01  0.581E-01    0.07       1.0  T
   8   -212.5020115 -0.924832E-01  0.208E-01    0.02       1.0  T
   9   -212.5095188 -0.750728E-02  0.154E-01    0.01       1.0  T
  10   -212.5120428 -0.252399E-02  0.103E-01    0.00       1.0  T
  11   -212.5127078 -0.665062E-03  0.869E-02    0.00       1.0  T
  12   -212.5130614 -0.353620E-03  0.901E-02    0.01       1.0  T
  13   -212.5132915 -0.230042E-03  0.801E-02    0.01       1.0  T
  14   -212.5134605 -0.169040E-03  0.688E-02    0.01       1.0  T
  15   -212.5139475 -0.486968E-03  0.453E-02    0.00       1.0  T
  16   -212.5142943 -0.346782E-03  0.281E-02    0.00       1.0  T
  17   -212.5144428 -0.148494E-03  0.141E-02    0.00       1.0  T
  18   -212.5144784 -0.356205E-04  0.580E-03    0.00       1.6  T
  19   -212.5144881 -0.975501E-05  0.814E-04    0.00      11.7  T
  20   -212.5144882 -0.498429E-07  0.482E-04    0.00      19.7  T
  21   -212.5144882  0.330971E-07  0.517E-04    0.00      18.4  T
     SCC iter.                  ...        0 min,  1.259 sec
     gradient                   ...        0 min,  0.039 sec
 * total energy  :  -209.8375455 Eh     change       -0.1223537E-01 Eh
   gradient norm :     0.0640390 Eh/α   predicted    -0.1235823E-01 (   1.00%)
   displ. norm   :     0.9067172 α      lambda       -0.1353443E-01
   maximum displ.:     0.3866827 α      in ANC's #8, #22, #23, ...

........................................................................
.............................. CYCLE   17 ..............................
........................................................................

 iter      E             dE          RMSdq      gap      omega  full diag
   1   -212.4870419 -0.212487E+03  0.358E-01    0.01       0.0  T
   2   -212.1856919  0.301350E+00  0.126E+00    0.14       1.0  T
   3   -212.3336528 -0.147961E+00  0.850E-01    0.17       1.0  T
   4   -212.4101118 -0.764590E-01  0.605E-01    0.03       1.0  T
   5   -212.4025786  0.753317E-02  0.653E-01    0.06       1.0  T
   6   -212.4510881 -0.485094E-01  0.402E-01    0.03       1.0  T
   7   -212.4183419  0.327462E-01  0.480E-01    0.06       1.0  T
   8   -212.4837499 -0.654080E-01  0.193E-01    0.03       1.0  T
   9   -212.4909587 -0.720884E-02  0.948E-02    0.01       1.0  T
  10   -212.4924096 -0.145087E-02  0.652E-02    0.01       1.0  T
  11   -212.4928413 -0.431743E-03  0.505E-02    0.01       1.0  T
  12   -212.4932583 -0.417016E-03  0.266E-02    0.00       1.0  T
  13   -212.4930442  0.214185E-03  0.322E-02    0.00       1.0  T
  14   -212.4933677 -0.323497E-03  0.832E-03    0.00       1.1  T
  15   -212.4933768 -0.917309E-05  0.564E-03    0.00       1.7  T
  16   -212.4933839 -0.710819E-05  0.181E-03    0.00       5.3  T
  17   -212.4933834  0.491965E-06  0.222E-03    0.00       4.3  T
  18   -212.4933837 -0.267162E-06  0.170E-03    0.00       5.6  T
  19   -212.4933843 -0.534748E-06  0.836E-04    0.00      11.4  T
  20   -212.4933844 -0.129951E-06  0.234E-04    0.00      40.6  T
     SCC iter.                  ...        0 min,  0.974 sec
     gradient                   ...        0 min,  0.039 sec
 * total energy  :  -209.8500209 Eh     change       -0.1247540E-01 Eh
   gradient norm :     0.0965226 Eh/α   predicted    -0.1233079E-01 (  -1.16%)
   displ. norm   :     0.8044330 α      lambda       -0.1743500E-01
   maximum displ.:     0.2792901 α      in ANC's #8, #22, #23, ...

........................................................................
.............................. CYCLE   18 ..............................
........................................................................

 iter      E             dE          RMSdq      gap      omega  full diag
   1   -212.4836843 -0.212484E+03  0.358E-01    0.01       0.0  T
   2   -212.3630752  0.120609E+00  0.746E-01    0.15       1.0  T
   3   -212.3324704  0.306048E-01  0.841E-01    0.04       1.0  T
   4   -212.3102386  0.222318E-01  0.958E-01    0.15       1.0  T
   5   -212.4253742 -0.115136E+00  0.484E-01    0.02       1.0  T
   6   -212.3904054  0.349687E-01  0.628E-01    0.02       1.0  T
   7   -212.4452787 -0.548733E-01  0.407E-01    0.06       1.0  T
   8   -212.4774763 -0.321976E-01  0.186E-01    0.04       1.0  T
   9   -212.4864880 -0.901171E-02  0.618E-02    0.01       1.0  T
  10   -212.4868310 -0.342995E-03  0.487E-02    0.01       1.0  T
  11   -212.4864573  0.373717E-03  0.593E-02    0.00       1.0  T
  12   -212.4866399 -0.182602E-03  0.458E-02    0.01       1.0  T
  13   -212.4868664 -0.226488E-03  0.296E-02    0.01       1.0  T
  14   -212.4870400 -0.173689E-03  0.120E-02    0.01       1.0  T
  15   -212.4870530 -0.129175E-04  0.940E-03    0.01       1.0  T
  16   -212.4870524  0.580763E-06  0.873E-03    0.01       1.1  T
  17   -212.4870673 -0.149426E-04  0.354E-03    0.01       2.7  T
  18   -212.4870692 -0.190374E-05  0.181E-03    0.01       5.3  T
  19   -212.4870697 -0.513049E-06  0.939E-04    0.01      10.1  T
  20   -212.4870699 -0.161193E-06  0.445E-04    0.01      21.3  T
     SCC iter.                  ...        0 min,  1.135 sec
     gradient                   ...        0 min,  0.041 sec
 * total energy  :  -209.8631270 Eh     change       -0.1310614E-01 Eh
   gradient norm :     0.1448081 Eh/α   predicted    -0.1435872E-01 (   9.56%)
   displ. norm   :     0.7577659 α      lambda       -0.2134302E-01
   maximum displ.:     0.3377728 α      in ANC's #8, #22, #23, ...

........................................................................
.............................. CYCLE   19 ..............................
........................................................................

 iter      E             dE          RMSdq      gap      omega  full diag
   1   -212.4811966 -0.212481E+03  0.251E-01    0.02       0.0  T
   2   -212.3729304  0.108266E+00  0.698E-01    0.10       1.0  T
   3   -212.4146471 -0.417167E-01  0.524E-01    0.10       1.0  T
   4   -212.3483045  0.663425E-01  0.666E-01    0.09       1.0  T
   5   -212.3818205 -0.335159E-01  0.653E-01    0.05       1.0  T
   6   -212.4433464 -0.615259E-01  0.429E-01    0.07       1.0  T
   7   -212.4464049 -0.305850E-02  0.398E-01    0.03       1.0  T
   8   -212.4724875 -0.260827E-01  0.237E-01    0.05       1.0  T
   9   -212.4816960 -0.920844E-02  0.137E-01    0.04       1.0  T
  10   -212.4833428 -0.164680E-02  0.103E-01    0.03       1.0  T
  11   -212.4848485 -0.150579E-02  0.645E-02    0.03       1.0  T
  12   -212.4854091 -0.560574E-03  0.366E-02    0.03       1.0  T
  13   -212.4856832 -0.274069E-03  0.120E-02    0.02       1.0  T
  14   -212.4856968 -0.136292E-04  0.883E-03    0.02       1.1  T
  15   -212.4857156 -0.187502E-04  0.361E-03    0.02       2.6  T
  16   -212.4857164 -0.796807E-06  0.283E-03    0.02       3.3  T
  17   -212.4857177 -0.133639E-05  0.147E-03    0.02       6.5  T
  18   -212.4857180 -0.284308E-06  0.911E-04    0.02      10.4  T
  19   -212.4857182 -0.207611E-06  0.328E-04    0.02      29.0  T
     SCC iter.                  ...        0 min,  1.316 sec
     gradient                   ...        0 min,  0.038 sec
 * total energy  :  -209.8833360 Eh     change       -0.2020902E-01 Eh
   gradient norm :     0.1418224 Eh/α   predicted    -0.1679920E-01 ( -16.87%)
   displ. norm   :     0.7018111 α      lambda       -0.5122776E-01
   maximum displ.:     0.1862030 α      in ANC's #18, #5, #29, ...

........................................................................
.............................. CYCLE   20 ..............................
........................................................................

 iter      E             dE          RMSdq      gap      omega  full diag
   1   -212.5403552 -0.212540E+03  0.412E-01    0.03       0.0  T
   2   -212.2248279  0.315527E+00  0.121E+00    0.31       1.0  T
   3   -212.4160098 -0.191182E+00  0.745E-01    0.12       1.0  T
   4   -212.4655838 -0.495740E-01  0.556E-01    0.07       1.0  T
   5   -212.4018725  0.637113E-01  0.762E-01    0.09       1.0  T
   6   -212.5444203 -0.142548E+00  0.266E-01    0.05       1.0  T
   7   -212.4966729  0.477474E-01  0.511E-01    0.04       1.0  T
   8   -212.5534476 -0.567747E-01  0.138E-01    0.04       1.0  T
   9   -212.5547112 -0.126360E-02  0.117E-01    0.05       1.0  T
  10   -212.5565642 -0.185302E-02  0.604E-02    0.04       1.0  T
  11   -212.5565949 -0.307201E-04  0.488E-02    0.04       1.0  T
  12   -212.5568682 -0.273289E-03  0.315E-02    0.04       1.0  T
  13   -212.5570981 -0.229896E-03  0.772E-03    0.04       1.2  T
  14   -212.5570927  0.541042E-05  0.865E-03    0.04       1.1  T
  15   -212.5570974 -0.465214E-05  0.719E-03    0.04       1.3  T
  16   -212.5571043 -0.687886E-05  0.450E-03    0.04       2.1  T
  17   -212.5571082 -0.392124E-05  0.144E-03    0.04       6.6  T
  18   -212.5571087 -0.539609E-06  0.383E-04    0.04      24.8  T
  19   -212.5571087 -0.160553E-07  0.222E-04    0.04      42.7  T
     SCC iter.                  ...        0 min,  1.062 sec
     gradient                   ...        0 min,  0.040 sec
 * total energy  :  -209.9059763 Eh     change       -0.2264032E-01 Eh
   gradient norm :     0.1334307 Eh/α   predicted    -0.3822975E-01 (  68.86%)
   displ. norm   :     0.7942818 α      lambda       -0.3358961E-01
   maximum displ.:     0.2929524 α      in ANC's #8, #22, #5, ...
 * RMSD in coord.:     1.0321028 α      energy gain  -0.2737311E+01 Eh

generating ANC from model Hessian ...
Using Lindh-Hessian (1995)
 Shifting diagonal of input Hessian by    9.9191932253763059E-003
 Lowest  eigenvalues of input Hessian
    0.000000    0.000000    0.000000    0.000000    0.000000    0.000000
    0.010000    0.010046    0.010115    0.010136    0.010342    0.010425
    0.010469    0.010556    0.010771    0.010915    0.011004    0.011089
 Highest eigenvalues
    2.350534    2.352853    2.375528    2.381757    2.392046    2.502850


........................................................................
.............................. CYCLE   21 ..............................
........................................................................

 iter      E             dE          RMSdq      gap      omega  full diag
   1   -212.5389888 -0.212539E+03  0.265E-01    0.08       0.0  T
   2   -212.1681191  0.370870E+00  0.139E+00    0.23       1.0  T
   3   -212.4358427 -0.267724E+00  0.679E-01    0.13       1.0  T
   4   -212.5095306 -0.736879E-01  0.406E-01    0.08       1.0  T
   5   -212.4731888  0.363418E-01  0.558E-01    0.10       1.0  T
   6   -212.4888622 -0.156734E-01  0.414E-01    0.06       1.0  T
   7   -212.5148511 -0.259889E-01  0.312E-01    0.07       1.0  T
   8   -212.5409303 -0.260792E-01  0.111E-01    0.06       1.0  T
   9   -212.5435171 -0.258685E-02  0.546E-02    0.06       1.0  T
  10   -212.5436338 -0.116716E-03  0.472E-02    0.06       1.0  T
  11   -212.5437039 -0.701123E-04  0.426E-02    0.06       1.0  T
  12   -212.5440456 -0.341692E-03  0.154E-02    0.06       1.0  T
  13   -212.5441030 -0.573483E-04  0.587E-03    0.06       1.6  T
  14   -212.5441111 -0.817599E-05  0.164E-03    0.06       5.8  T
  15   -212.5441114 -0.233357E-06  0.111E-03    0.06       8.6  T
  16   -212.5441113  0.693618E-07  0.102E-03    0.06       9.3  T
  17   -212.5441115 -0.168186E-06  0.481E-04    0.06      19.7  T
  18   -212.5441115 -0.527156E-07  0.139E-04    0.06      68.4  T
     SCC iter.                  ...        0 min,  0.920 sec
     gradient                   ...        0 min,  0.043 sec
 * total energy  :  -209.9316426 Eh     change       -0.2566628E-01 Eh
   gradient norm :     0.1107036 Eh/α   predicted     0.0000000E+00 (-100.00%)
   displ. norm   :     0.6132689 α      lambda       -0.3085700E-01
   maximum displ.:     0.2418861 α      in ANC's #34, #28, #36, ...

........................................................................
.............................. CYCLE   22 ..............................
........................................................................

 iter      E             dE          RMSdq      gap      omega  full diag
   1   -212.5812461 -0.212581E+03  0.219E-01    0.08       0.0  T
   2   -212.1819157  0.399330E+00  0.144E+00    0.22       1.0  T
   3   -212.5117527 -0.329837E+00  0.543E-01    0.12       1.0  T
   4   -212.5761009 -0.643482E-01  0.220E-01    0.09       1.0  T
   5   -212.4520731  0.124028E+00  0.652E-01    0.09       1.0  T
   6   -212.5763075 -0.124234E+00  0.212E-01    0.06       1.0  T
   7   -212.5817902 -0.548273E-02  0.148E-01    0.06       1.0  T
   8   -212.5850918 -0.330156E-02  0.608E-02    0.05       1.0  T
   9   -212.5858567 -0.764942E-03  0.274E-02    0.06       1.0  T
  10   -212.5860035 -0.146826E-03  0.106E-02    0.06       1.0  T
  11   -212.5859078  0.956794E-04  0.199E-02    0.06       1.0  T
  12   -212.5860145 -0.106670E-03  0.644E-03    0.06       1.5  T
  13   -212.5860227 -0.822436E-05  0.316E-03    0.06       3.0  T
  14   -212.5860240 -0.124219E-05  0.206E-03    0.06       4.6  T
  15   -212.5860246 -0.657700E-06  0.115E-03    0.06       8.2  T
  16   -212.5860248 -0.184145E-06  0.692E-04    0.06      13.7  T
  17   -212.5860249 -0.749585E-07  0.340E-04    0.06      27.9  T
     SCC iter.                  ...        0 min,  0.852 sec
     gradient                   ...        0 min,  0.037 sec
 * total energy  :  -209.9561375 Eh     change       -0.2449487E-01 Eh
   gradient norm :     0.0441089 Eh/α   predicted    -0.2123114E-01 ( -13.32%)
   displ. norm   :     0.7751018 α      lambda       -0.2195872E-01
   maximum displ.:     0.3190090 α      in ANC's #34, #28, #36, ...

........................................................................
.............................. CYCLE   23 ..............................
........................................................................

 iter      E             dE          RMSdq      gap      omega  full diag
   1   -212.6162759 -0.212616E+03  0.221E-01    0.09       0.0  T
   2   -212.4133561  0.202920E+00  0.999E-01    0.12       1.0  T
   3   -212.5600063 -0.146650E+00  0.466E-01    0.13       1.0  T
   4   -212.6055191 -0.455128E-01  0.244E-01    0.08       1.0  T
   5   -212.5024318  0.103087E+00  0.657E-01    0.12       1.0  T
   6   -212.6147611 -0.112329E+00  0.176E-01    0.06       1.0  T
   7   -212.6160827 -0.132157E-02  0.141E-01    0.07       1.0  T
   8   -212.6207934 -0.471074E-02  0.563E-02    0.07       1.0  T
   9   -212.6213944 -0.601010E-03  0.276E-02    0.07       1.0  T
  10   -212.6213442  0.501845E-04  0.293E-02    0.07       1.0  T
  11   -212.6214814 -0.137126E-03  0.126E-02    0.07       1.0  T
  12   -212.6215014 -0.200398E-04  0.586E-03    0.07       1.6  T
  13   -212.6215058 -0.437734E-05  0.383E-03    0.07       2.5  T
  14   -212.6215072 -0.144067E-05  0.189E-03    0.07       5.0  T
  15   -212.6215080 -0.751060E-06  0.784E-04    0.07      12.1  T
  16   -212.6215081 -0.134587E-06  0.230E-04    0.07      41.3  T
     SCC iter.                  ...        0 min,  1.182 sec
     gradient                   ...        0 min,  0.039 sec
 * total energy  :  -209.9745354 Eh     change       -0.1839787E-01 Eh
   gradient norm :     0.0296328 Eh/α   predicted    -0.1757557E-01 (  -4.47%)
   displ. norm   :     0.8195971 α      lambda       -0.1674679E-01
   maximum displ.:     0.3572236 α      in ANC's #34, #28, #12, ...

........................................................................
.............................. CYCLE   24 ..............................
........................................................................

 iter      E             dE          RMSdq      gap      omega  full diag
   1   -212.6388380 -0.212639E+03  0.214E-01    0.09       0.0  T
   2   -212.4740298  0.164808E+00  0.829E-01    0.15       1.0  T
   3   -212.6152130 -0.141183E+00  0.331E-01    0.12       1.0  T
   4   -212.5983668  0.168462E-01  0.383E-01    0.09       1.0  T
   5   -212.6330598 -0.346930E-01  0.217E-01    0.08       1.0  T
   6   -212.6372464 -0.418668E-02  0.203E-01    0.08       1.0  T
   7   -212.6415195 -0.427305E-02  0.108E-01    0.06       1.0  T
   8   -212.6437526 -0.223315E-02  0.310E-02    0.07       1.0  T
   9   -212.6438749 -0.122311E-03  0.176E-02    0.07       1.0  T
  10   -212.6437544  0.120524E-03  0.298E-02    0.07       1.0  T
  11   -212.6438610 -0.106573E-03  0.159E-02    0.07       1.0  T
  12   -212.6438986 -0.376472E-04  0.703E-03    0.07       1.4  T
  13   -212.6439106 -0.119548E-04  0.187E-03    0.07       5.1  T
  14   -212.6439112 -0.638224E-06  0.406E-04    0.07      23.4  T
  15   -212.6439112 -0.152411E-07  0.256E-04    0.07      37.1  T
     SCC iter.                  ...        0 min,  0.705 sec
     gradient                   ...        0 min,  0.038 sec
 * total energy  :  -209.9893465 Eh     change       -0.1481111E-01 Eh
   gradient norm :     0.0312173 Eh/α   predicted    -0.1399815E-01 (  -5.49%)
   displ. norm   :     0.8546608 α      lambda       -0.1461555E-01
   maximum displ.:     0.3597380 α      in ANC's #34, #28, #12, ...

........................................................................
.............................. CYCLE   25 ..............................
........................................................................

 iter      E             dE          RMSdq      gap      omega  full diag
   1   -212.6550149 -0.212655E+03  0.227E-01    0.10       0.0  T
   2   -212.4348146  0.220200E+00  0.969E-01    0.20       1.0  T
   3   -212.6423568 -0.207542E+00  0.295E-01    0.08       1.0  T
   4   -212.5789160  0.634409E-01  0.521E-01    0.12       1.0  T
   5   -212.6223676 -0.434516E-01  0.378E-01    0.13       1.0  T
   6   -212.5869161  0.354515E-01  0.575E-01    0.02       1.0  T
   7   -212.6528713 -0.659551E-01  0.195E-01    0.09       1.0  T
   8   -212.6593620 -0.649071E-02  0.543E-02    0.07       1.0  T
   9   -212.6596337 -0.271769E-03  0.308E-02    0.07       1.0  T
  10   -212.6597263 -0.925913E-04  0.241E-02    0.07       1.0  T
  11   -212.6597623 -0.359755E-04  0.150E-02    0.07       1.0  T
  12   -212.6597830 -0.206841E-04  0.576E-03    0.07       1.6  T
  13   -212.6597899 -0.687249E-05  0.245E-03    0.07       3.9  T
  14   -212.6597909 -0.100793E-05  0.128E-03    0.07       7.4  T
  15   -212.6597911 -0.260027E-06  0.672E-04    0.07      14.1  T
  16   -212.6597912 -0.736641E-07  0.255E-04    0.07      37.3  T
     SCC iter.                  ...        0 min,  0.804 sec
     gradient                   ...        0 min,  0.037 sec
 * total energy  :  -210.0027297 Eh     change       -0.1338319E-01 Eh
   gradient norm :     0.0301422 Eh/α   predicted    -0.1264571E-01 (  -5.51%)
   displ. norm   :     0.9020085 α      lambda       -0.1431326E-01
   maximum displ.:     0.3561113 α      in ANC's #34, #28, #26, ...

........................................................................
.............................. CYCLE   26 ..............................
........................................................................

 iter      E             dE          RMSdq      gap      omega  full diag
   1   -212.6669637 -0.212667E+03  0.258E-01    0.09       0.0  T
   2   -212.4232366  0.243727E+00  0.105E+00    0.17       1.0  T
   3   -212.6501044 -0.226868E+00  0.312E-01    0.10       1.0  T
   4   -212.5516332  0.984712E-01  0.632E-01    0.14       1.0  T
   5   -212.6490251 -0.973919E-01  0.309E-01    0.07       1.0  T
   6   -212.6538192 -0.479407E-02  0.262E-01    0.11       1.0  T
   7   -212.6650401 -0.112208E-01  0.136E-01    0.07       1.0  T
   8   -212.6686590 -0.361899E-02  0.812E-02    0.08       1.0  T
   9   -212.6694723 -0.813240E-03  0.530E-02    0.08       1.0  T
  10   -212.6698316 -0.359338E-03  0.351E-02    0.07       1.0  T
  11   -212.6698757 -0.441149E-04  0.287E-02    0.07       1.0  T
  12   -212.6700434 -0.167703E-03  0.741E-03    0.07       1.3  T
  13   -212.6700521 -0.870808E-05  0.218E-03    0.06       4.4  T
  14   -212.6700516  0.537288E-06  0.254E-03    0.06       3.7  T
  15   -212.6700527 -0.104751E-05  0.920E-04    0.07      10.3  T
  16   -212.6700528 -0.155160E-06  0.245E-04    0.06      38.7  T
  17   -212.6700528 -0.350724E-08  0.209E-04    0.06      45.4  T
     SCC iter.                  ...        0 min,  0.924 sec
     gradient                   ...        0 min,  0.040 sec
 * total energy  :  -210.0169258 Eh     change       -0.1419613E-01 Eh
   gradient norm :     0.0337379 Eh/α   predicted    -0.1297941E-01 (  -8.57%)
   displ. norm   :     0.9564372 α      lambda       -0.1659391E-01
   maximum displ.:     0.3649037 α      in ANC's #34, #28, #26, ...

........................................................................
.............................. CYCLE   27 ..............................
........................................................................

 iter      E             dE          RMSdq      gap      omega  full diag
   1   -212.6709740 -0.212671E+03  0.300E-01    0.08       0.0  T
   2   -212.4641484  0.206826E+00  0.985E-01    0.11       1.0  T
   3   -212.6520119 -0.187863E+00  0.337E-01    0.14       1.0  T
   4   -212.5118297  0.140182E+00  0.881E-01    0.02       1.0  T
   5   -212.5360366 -0.242069E-01  0.701E-01    0.26       1.0  T
   6   -212.6621756 -0.126139E+00  0.221E-01    0.09       1.0  T
   7   -212.6656457 -0.347008E-02  0.182E-01    0.10       1.0  T
   8   -212.6689530 -0.330734E-02  0.138E-01    0.10       1.0  T
   9   -212.6708015 -0.184852E-02  0.106E-01    0.09       1.0  T
  10   -212.6721390 -0.133747E-02  0.723E-02    0.08       1.0  T
  11   -212.6729078 -0.768790E-03  0.381E-02    0.07       1.0  T
  12   -212.6732095 -0.301676E-03  0.100E-02    0.07       1.0  T
  13   -212.6731767  0.327543E-04  0.148E-02    0.07       1.0  T
  14   -212.6732302 -0.534984E-04  0.214E-03    0.07       4.4  T
  15   -212.6732309 -0.746168E-06  0.990E-04    0.07       9.6  T
  16   -212.6732311 -0.200492E-06  0.275E-04    0.07      34.5  T
     SCC iter.                  ...        0 min,  0.971 sec
     gradient                   ...        0 min,  0.049 sec
 * total energy  :  -210.0333579 Eh     change       -0.1643208E-01 Eh
   gradient norm :     0.0449792 Eh/α   predicted    -0.1588679E-01 (  -3.32%)
   displ. norm   :     0.9006893 α      lambda       -0.1973504E-01
   maximum displ.:     0.2765974 α      in ANC's #34, #28, #25, ...

........................................................................
.............................. CYCLE   28 ..............................
........................................................................

 iter      E             dE          RMSdq      gap      omega  full diag
   1   -212.6571939 -0.212657E+03  0.440E-01    0.07       0.0  T
   2   -212.4838917  0.173302E+00  0.940E-01    0.06       1.0  T
   3   -212.6185774 -0.134686E+00  0.484E-01    0.21       1.0  T
   4   -212.6038259  0.147515E-01  0.568E-01    0.04       1.0  T
   5   -212.5567159  0.471101E-01  0.640E-01    0.21       1.0  T
   6   -212.6138124 -0.570965E-01  0.455E-01    0.20       1.0  T
   7   -212.6488808 -0.350685E-01  0.280E-01    0.17       1.0  T
   8   -212.6520132 -0.313241E-02  0.244E-01    0.14       1.0  T
   9   -212.6602309 -0.821768E-02  0.152E-01    0.10       1.0  T
  10   -212.6642677 -0.403684E-02  0.725E-02    0.07       1.0  T
  11   -212.6640668  0.200907E-03  0.783E-02    0.09       1.0  T
  12   -212.6650694 -0.100258E-02  0.247E-02    0.08       1.0  T
  13   -212.6651806 -0.111151E-03  0.649E-03    0.07       1.5  T
  14   -212.6651579  0.226533E-04  0.132E-02    0.08       1.0  T
  15   -212.6651773 -0.194363E-04  0.840E-03    0.07       1.1  T
  16   -212.6651897 -0.123113E-04  0.224E-03    0.07       4.2  T
  17   -212.6651906 -0.982084E-06  0.233E-04    0.07      40.8  T
  18   -212.6651906 -0.603859E-08  0.153E-04    0.07      61.9  T
     SCC iter.                  ...        0 min,  0.907 sec
     gradient                   ...        0 min,  0.040 sec
 * total energy  :  -210.0478163 Eh     change       -0.1445842E-01 Eh
   gradient norm :     0.0973427 Eh/α   predicted    -0.1787247E-01 (  23.61%)
   displ. norm   :     0.8842958 α      lambda       -0.1810379E-01
   maximum displ.:     0.3357822 α      in ANC's #34, #28, #26, ...

........................................................................
.............................. CYCLE   29 ..............................
........................................................................

 iter      E             dE          RMSdq      gap      omega  full diag
   1   -212.6515117 -0.212652E+03  0.213E-01    0.12       0.0  T
   2   -212.3124055  0.339106E+00  0.129E+00    0.16       1.0  T
   3   -212.6474481 -0.335043E+00  0.228E-01    0.08       1.0  T
   4   -212.6335935  0.138547E-01  0.298E-01    0.16       1.0  T
   5   -212.6007452  0.328483E-01  0.443E-01    0.14       1.0  T
   6   -212.6371251 -0.363799E-01  0.254E-01    0.07       1.0  T
   7   -212.6514162 -0.142911E-01  0.111E-01    0.11       1.0  T
   8   -212.6528990 -0.148286E-02  0.712E-02    0.10       1.0  T
   9   -212.6536415 -0.742527E-03  0.374E-02    0.09       1.0  T
  10   -212.6538325 -0.190983E-03  0.220E-02    0.09       1.0  T
  11   -212.6539198 -0.872791E-04  0.834E-03    0.09       1.1  T
  12   -212.6539280 -0.819687E-05  0.394E-03    0.09       2.4  T
  13   -212.6539303 -0.231534E-05  0.150E-03    0.08       6.3  T
  14   -212.6539305 -0.200292E-06  0.785E-04    0.09      12.1  T
  15   -212.6539306 -0.421962E-07  0.767E-04    0.08      12.4  T
     SCC iter.                  ...        0 min,  0.690 sec
     gradient                   ...        0 min,  0.037 sec
 * total energy  :  -210.0622317 Eh     change       -0.1441537E-01 Eh
   gradient norm :     0.0910910 Eh/α   predicted    -0.1613029E-01 (  11.90%)
   displ. norm   :     0.6081994 α      lambda       -0.2446918E-01
   maximum displ.:     0.1690414 α      in ANC's #23, #25, #28, ...

........................................................................
.............................. CYCLE   30 ..............................
........................................................................

 iter      E             dE          RMSdq      gap      omega  full diag
   1   -212.6623756 -0.212662E+03  0.279E-01    0.11       0.0  T
   2   -212.6345802  0.277954E-01  0.401E-01    0.04       1.0  T
   3   -212.6266796  0.790058E-02  0.409E-01    0.24       1.0  T
   4   -212.5819584  0.447212E-01  0.531E-01    0.19       1.0  T
   5   -212.6390558 -0.570973E-01  0.348E-01    0.06       1.0  T
   6   -212.6554506 -0.163948E-01  0.190E-01    0.08       1.0  T
   7   -212.6571633 -0.171273E-02  0.174E-01    0.15       1.0  T
   8   -212.6611853 -0.402197E-02  0.114E-01    0.13       1.0  T
   9   -212.6636662 -0.248091E-02  0.464E-02    0.10       1.0  T
  10   -212.6638531 -0.186917E-03  0.304E-02    0.10       1.0  T
  11   -212.6640340 -0.180828E-03  0.842E-03    0.10       1.1  T
  12   -212.6640465 -0.125263E-04  0.487E-03    0.10       1.9  T
  13   -212.6640513 -0.481429E-05  0.244E-03    0.10       3.9  T
  14   -212.6640511  0.228385E-06  0.230E-03    0.10       4.1  T
  15   -212.6640522 -0.114550E-05  0.471E-04    0.10      20.1  T
  16   -212.6640523 -0.490716E-07  0.251E-04    0.10      37.7  T
  17   -212.6640523 -0.502843E-08  0.160E-04    0.10      59.3  T
     SCC iter.                  ...        0 min,  0.750 sec
     gradient                   ...        0 min,  0.039 sec
 * total energy  :  -210.0666373 Eh     change       -0.4405668E-02 Eh
   gradient norm :     0.1154037 Eh/α   predicted    -0.1676032E-01 ( 280.43%)
   displ. norm   :     0.6136751 α      lambda       -0.2934378E-01
   maximum displ.:     0.1831615 α      in ANC's #21, #34, #7, ...

........................................................................
.............................. CYCLE   31 ..............................
........................................................................

 iter      E             dE          RMSdq      gap      omega  full diag
   1   -212.6958679 -0.212696E+03  0.213E-01    0.11       0.0  T
   2   -212.6889474  0.692051E-02  0.241E-01    0.12       1.0  T
   3   -212.6738523  0.150951E-01  0.335E-01    0.06       1.0  T
   4   -212.6881572 -0.143050E-01  0.221E-01    0.19       1.0  T
   5   -212.6643272  0.238300E-01  0.409E-01    0.06       1.0  T
   6   -212.6964777 -0.321504E-01  0.899E-02    0.12       1.0  T
   7   -212.6956036  0.874063E-03  0.927E-02    0.11       1.0  T
   8   -212.6948340  0.769642E-03  0.106E-01    0.13       1.0  T
   9   -212.6975874 -0.275343E-02  0.337E-02    0.11       1.0  T
  10   -212.6977443 -0.156905E-03  0.179E-02    0.11       1.0  T
  11   -212.6977909 -0.466077E-04  0.599E-03    0.10       1.6  T
  12   -212.6977974 -0.649558E-05  0.213E-03    0.10       4.5  T
  13   -212.6977977 -0.292279E-06  0.161E-03    0.10       5.9  T
  14   -212.6977982 -0.485297E-06  0.596E-04    0.10      15.9  T
  15   -212.6977982 -0.285701E-07  0.454E-04    0.10      20.9  T
     SCC iter.                  ...        0 min,  0.662 sec
     gradient                   ...        0 min,  0.038 sec
 * total energy  :  -210.0878677 Eh     change       -0.2123033E-01 Eh
   gradient norm :     0.0581035 Eh/α   predicted    -0.2019728E-01 (  -4.87%)
   displ. norm   :     0.6499374 α      lambda       -0.1781991E-01
   maximum displ.:     0.2222617 α      in ANC's #23, #7, #31, ...

........................................................................
.............................. CYCLE   32 ..............................
........................................................................

 iter      E             dE          RMSdq      gap      omega  full diag
   1   -212.7203326 -0.212720E+03  0.196E-01    0.12       0.0  T
   2   -212.6783025  0.420301E-01  0.450E-01    0.20       1.0  T
   3   -212.7091071 -0.308045E-01  0.250E-01    0.10       1.0  T
   4   -212.7114566 -0.234959E-02  0.219E-01    0.11       1.0  T
   5   -212.7214579 -0.100013E-01  0.121E-01    0.14       1.0  T
   6   -212.7094119  0.120460E-01  0.262E-01    0.07       1.0  T
   7   -212.7240047 -0.145927E-01  0.459E-02    0.12       1.0  T
   8   -212.7240500 -0.453097E-04  0.401E-02    0.12       1.0  T
   9   -212.7243397 -0.289716E-03  0.161E-02    0.11       1.0  T
  10   -212.7243767 -0.369871E-04  0.720E-03    0.11       1.3  T
  11   -212.7243841 -0.748496E-05  0.256E-03    0.11       3.7  T
  12   -212.7243841  0.974244E-07  0.210E-03    0.11       4.5  T
  13   -212.7243849 -0.875678E-06  0.782E-04    0.11      12.1  T
  14   -212.7243850 -0.687350E-07  0.449E-04    0.11      21.1  T
     SCC iter.                  ...        0 min,  0.599 sec
     gradient                   ...        0 min,  0.037 sec
 * total energy  :  -210.0986750 Eh     change       -0.1080732E-01 Eh
   gradient norm :     0.0639561 Eh/α   predicted    -0.1267369E-01 (  17.27%)
   displ. norm   :     0.6107740 α      lambda       -0.1638906E-01
   maximum displ.:     0.2267360 α      in ANC's #7, #21, #6, ...

........................................................................
.............................. CYCLE   33 ..............................
........................................................................

 iter      E             dE          RMSdq      gap      omega  full diag
   1   -212.7687110 -0.212769E+03  0.172E-01    0.12       0.0  T
   2   -212.7522769  0.164341E-01  0.273E-01    0.14       1.0  T
   3   -212.7622346 -0.995768E-02  0.186E-01    0.09       1.0  T
   4   -212.7397415  0.224931E-01  0.329E-01    0.17       1.0  T
   5   -212.7673282 -0.275867E-01  0.135E-01    0.12       1.0  T
   6   -212.7696874 -0.235919E-02  0.581E-02    0.13       1.0  T
   7   -212.7643006  0.538674E-02  0.166E-01    0.09       1.0  T
   8   -212.7703073 -0.600672E-02  0.194E-02    0.12       1.0  T
   9   -212.7703655 -0.581838E-04  0.835E-03    0.12       1.1  T
  10   -212.7703752 -0.971930E-05  0.386E-03    0.12       2.5  T
  11   -212.7703765 -0.127952E-05  0.299E-03    0.12       3.2  T
  12   -212.7703783 -0.182664E-05  0.479E-04    0.12      19.8  T
  13   -212.7703783  0.355415E-07  0.599E-04    0.12      15.8  T
  14   -212.7703784 -0.692908E-07  0.235E-04    0.12      40.4  T
     SCC iter.                  ...        0 min,  0.700 sec
     gradient                   ...        0 min,  0.036 sec
 * total energy  :  -210.1095539 Eh     change       -0.1087892E-01 Eh
   gradient norm :     0.0564958 Eh/α   predicted    -0.1125146E-01 (   3.42%)
   displ. norm   :     0.7098389 α      lambda       -0.1312664E-01
   maximum displ.:     0.2899472 α      in ANC's #7, #23, #25, ...

........................................................................
.............................. CYCLE   34 ..............................
........................................................................

 iter      E             dE          RMSdq      gap      omega  full diag
   1   -212.7670904 -0.212767E+03  0.168E-01    0.14       0.0  T
   2   -212.7457096  0.213808E-01  0.318E-01    0.17       1.0  T
   3   -212.7675998 -0.218903E-01  0.114E-01    0.13       1.0  T
   4   -212.7536734  0.139264E-01  0.243E-01    0.18       1.0  T
   5   -212.7585250 -0.485160E-02  0.201E-01    0.16       1.0  T
   6   -212.7680463 -0.952130E-02  0.651E-02    0.12       1.0  T
   7   -212.7688186 -0.772321E-03  0.344E-02    0.15       1.0  T
   8   -212.7690111 -0.192489E-03  0.154E-02    0.14       1.0  T
   9   -212.7690514 -0.403054E-04  0.772E-03    0.13       1.2  T
  10   -212.7690624 -0.109449E-04  0.204E-03    0.13       4.7  T
  11   -212.7690619  0.533137E-06  0.248E-03    0.13       3.8  T
  12   -212.7690628 -0.956988E-06  0.829E-04    0.13      11.5  T
  13   -212.7690629 -0.126153E-06  0.241E-04    0.13      39.3  T
     SCC iter.                  ...        0 min,  0.573 sec
     gradient                   ...        0 min,  0.038 sec
 * total energy  :  -210.1184346 Eh     change       -0.8880662E-02 Eh
   gradient norm :     0.0323580 Eh/α   predicted    -0.9870391E-02 (  11.14%)
   displ. norm   :     0.7410175 α      lambda       -0.9850174E-02
   maximum displ.:     0.2554063 α      in ANC's #7, #23, #34, ...

........................................................................
.............................. CYCLE   35 ..............................
........................................................................

 iter      E             dE          RMSdq      gap      omega  full diag
   1   -212.7778868 -0.212778E+03  0.164E-01    0.13       0.0  T
   2   -212.7673139  0.105729E-01  0.245E-01    0.19       1.0  T
   3   -212.7681604 -0.846470E-03  0.230E-01    0.11       1.0  T
[...]
   104   1 H        0.926     0.073     2.057     2.243
   105   1 H        0.926     0.067     2.124     2.279
   106   1 H        0.926     0.070     2.084     2.258
   107   1 H        0.926     0.073     2.052     2.240
   108   1 H        0.926     0.062     2.173     2.305
   109   1 H        0.926     0.063     2.164     2.300
   110   1 H        0.926     0.072     2.063     2.246
   111   1 H        0.926     0.070     2.089     2.260

 Mol. C6AA /au·bohr⁶  :     179726.399500
 Mol. C8AA /au·bohr⁸  :    4427883.709060
 Mol. α(0) /au        :        659.691728


Wiberg/Mayer (AO) data.
largest (>0.10) Wiberg bond orders for each atom

 ---------------------------------------------------------------------------
     #   Z sym  total        # sym  WBO       # sym  WBO       # sym  WBO
 ---------------------------------------------------------------------------
     1   6 C    3.924 --     2 C    1.319     6 C    1.258    44 C    1.070
     2   6 C    3.936 --     1 C    1.319     3 C    1.285    22 O    1.112
     3   6 C    3.943 --     2 C    1.285     4 C    1.200     7 C    1.188
     4   6 C    3.971 --    10 N    1.364     5 C    1.233     3 C    1.200
     5   6 C    3.930 --     6 C    1.493     4 C    1.233   111 H    0.963
     6   6 C    3.967 --     5 C    1.493     1 C    1.258    23 C    0.999
     7   6 C    3.978 --     8 C    1.347    11 C    1.191     3 C    1.188
     8   6 C    3.974 --     7 C    1.347    14 C    1.179     9 C    1.176
     9   6 C    3.976 --    10 N    1.327    17 C    1.300     8 C    1.176
    10   7 N    2.930 --     4 C    1.364     9 C    1.327
    11   6 C    3.935 --    18 C    1.292     7 C    1.191    12 C    1.189
    12   6 C    3.967 --    13 N    1.371    21 C    1.228    11 C    1.189
    13   7 N    2.938 --    12 C    1.371    14 C    1.322
    14   6 C    3.976 --    13 N    1.322    15 C    1.301     8 C    1.179
    15   6 C    3.841 --    16 C    1.387    14 C    1.301   109 H    0.964
    16   6 C    3.973 --    17 C    1.388    15 C    1.387    25 C    1.011
    17   6 C    3.841 --    16 C    1.388     9 C    1.300   110 H    0.963
    18   6 C    3.944 --    19 C    1.306    11 C    1.292    70 N    1.105
    19   6 C    3.884 --    18 C    1.306    20 C    1.270    26 C    1.069
    20   6 C    3.968 --    21 C    1.488    19 C    1.270    24 C    0.995
    21   6 C    3.899 --    20 C    1.488    12 C    1.228   108 H    0.964
    22   8 O    2.136 --     2 C    1.112    51 B    0.782
    23   6 C    3.912 --    67 O    1.712    68 O    1.120     6 C    0.999
    24   6 C    3.912 --    57 O    1.740    55 O    1.100    20 C    0.995
    25   6 C    3.911 --    52 O    1.723    53 O    1.102    16 C    1.011
    26   6 C    3.922 --    27 C    1.320    31 C    1.258    19 C    1.069
    27   6 C    3.936 --    26 C    1.320    28 C    1.284    47 O    1.112
    28   6 C    3.944 --    27 C    1.284    29 C    1.199    32 C    1.189
    29   6 C    3.970 --    35 N    1.364    30 C    1.233    28 C    1.199
    30   6 C    3.926 --    31 C    1.491    29 C    1.233   107 H    0.963
    31   6 C    3.968 --    30 C    1.491    26 C    1.258    48 C    1.003
    32   6 C    3.978 --    33 C    1.346    36 C    1.190    28 C    1.189
    33   6 C    3.974 --    32 C    1.346    39 C    1.180    34 C    1.176
    34   6 C    3.976 --    35 N    1.326    42 C    1.300    33 C    1.176
    35   7 N    2.927 --    29 C    1.364    34 C    1.326
    36   6 C    3.935 --    43 C    1.293    32 C    1.190    37 C    1.187
    37   6 C    3.966 --    38 N    1.374    46 C    1.225    36 C    1.187
    38   7 N    2.947 --    37 C    1.374    39 C    1.324
    39   6 C    3.975 --    38 N    1.324    40 C    1.298    33 C    1.180
    40   6 C    3.839 --    41 C    1.388    39 C    1.298   104 H    0.963
    41   6 C    3.973 --    40 C    1.388    42 C    1.388    50 C    1.010
    42   6 C    3.839 --    41 C    1.388    34 C    1.300   105 H    0.964
    43   6 C    3.944 --    44 C    1.304    36 C    1.293    73 N    1.106
    44   6 C    3.879 --    43 C    1.304    45 C    1.271     1 C    1.070
    45   6 C    3.969 --    46 C    1.494    44 C    1.271    49 C    0.987
    46   6 C    3.895 --    45 C    1.494    37 C    1.225   106 H    0.963
    47   8 O    2.138 --    27 C    1.112    51 B    0.784
    48   6 C    3.911 --    58 O    1.725    59 O    1.103    31 C    1.003
    49   6 C    3.912 --    64 O    1.710    65 O    1.133    45 C    0.987
    50   6 C    3.911 --    61 O    1.723    62 O    1.104    41 C    1.010
    51   5 B    3.357 --    73 N    0.785    70 N    0.784    47 O    0.784
                            22 O    0.782
    52   8 O    2.017 --    25 C    1.723    53 O    0.163
    53   8 O    2.288 --    25 C    1.102    54 C    0.967    52 O    0.163
    54   6 C    3.934 --    82 H    0.982    84 H    0.977    83 H    0.977
                            53 O    0.967
    55   8 O    2.283 --    24 C    1.100    56 C    0.962    57 O    0.166
    56   6 C    3.930 --    81 H    0.983    80 H    0.978    79 H    0.976
                            55 O    0.962
    57   8 O    2.034 --    24 C    1.740    55 O    0.166
    58   8 O    2.028 --    48 C    1.725    59 O    0.166
    59   8 O    2.289 --    48 C    1.103    60 C    0.960    58 O    0.166
    60   6 C    3.927 --    76 H    0.979    78 H    0.975    77 H    0.973
                            59 O    0.960
    61   8 O    2.017 --    50 C    1.723    62 O    0.164
    62   8 O    2.290 --    50 C    1.104    63 C    0.966    61 O    0.164
    63   6 C    3.934 --    98 H    0.982    99 H    0.977   100 H    0.977
                            62 O    0.966
    64   8 O    2.011 --    49 C    1.710    65 O    0.171
    65   8 O    2.313 --    49 C    1.133    66 C    0.954    64 O    0.171
    66   6 C    3.921 --    95 H    0.982    96 H    0.977    97 H    0.970
                            65 O    0.954
    67   8 O    2.014 --    23 C    1.712    68 O    0.168
    68   8 O    2.301 --    23 C    1.120    69 C    0.955    67 O    0.168
    69   6 C    3.922 --   102 H    0.982   103 H    0.977   101 H    0.970
                            68 O    0.955
    70   7 N    3.129 --    18 C    1.105    72 C    0.997    51 B    0.784
    71   6 C    3.989 --    72 C    1.002    86 H    0.988    85 H    0.986
                            87 H    0.982
    72   6 C    3.979 --    71 C    1.002    70 N    0.997    89 H    0.966
                            88 H    0.963
    73   7 N    3.132 --    43 C    1.106    75 C    0.997    51 B    0.785
    74   6 C    3.988 --    75 C    1.002    91 H    0.988    90 H    0.986
                            92 H    0.982
    75   6 C    3.979 --    74 C    1.002    73 N    0.997    94 H    0.966
                            93 H    0.963
    76   1 H    0.996 --    60 C    0.979
    77   1 H    0.995 --    60 C    0.973
    78   1 H    0.995 --    60 C    0.975
    79   1 H    0.995 --    56 C    0.976
    80   1 H    0.997 --    56 C    0.978
    81   1 H    0.996 --    56 C    0.983
    82   1 H    0.996 --    54 C    0.982
    83   1 H    0.996 --    54 C    0.977
    84   1 H    0.997 --    54 C    0.977
    85   1 H    0.998 --    71 C    0.986
    86   1 H    0.999 --    71 C    0.988
    87   1 H    0.998 --    71 C    0.982
    88   1 H    0.997 --    72 C    0.963
    89   1 H    0.996 --    72 C    0.966
    90   1 H    0.998 --    74 C    0.986
    91   1 H    0.998 --    74 C    0.988
    92   1 H    0.998 --    74 C    0.982
    93   1 H    0.997 --    75 C    0.963
    94   1 H    0.996 --    75 C    0.966
    95   1 H    0.996 --    66 C    0.982
    96   1 H    0.996 --    66 C    0.977
    97   1 H    0.994 --    66 C    0.970
    98   1 H    0.996 --    63 C    0.982
    99   1 H    0.996 --    63 C    0.977
   100   1 H    0.996 --    63 C    0.977
   101   1 H    0.994 --    69 C    0.970
   102   1 H    0.996 --    69 C    0.982
   103   1 H    0.996 --    69 C    0.977
   104   1 H    0.994 --    40 C    0.963
   105   1 H    0.995 --    42 C    0.964
   106   1 H    0.993 --    46 C    0.963
   107   1 H    0.993 --    30 C    0.963
   108   1 H    0.994 --    21 C    0.964
   109   1 H    0.995 --    15 C    0.964
   110   1 H    0.994 --    17 C    0.963
   111   1 H    0.994 --     5 C    0.963
 ---------------------------------------------------------------------------

Topologies differ in total number of bonds
Writing corrected topology to xtbtopo.mol

molecular dipole:
                 x           y           z       tot (Debye)
 q only:        3.055      -2.543      -2.714
   full:        3.215      -2.798      -2.571      12.652
molecular quadrupole (traceless):
                xx          xy          yy          xz          yz          zz
 q only:      -49.505     -24.249     -13.266      11.129     -13.095      62.771
  q+dip:      -57.377     -28.672     -14.095      10.037     -15.361      71.472
   full:      -63.832     -29.239     -20.389       6.532     -16.185      84.221

           -------------------------------------------------
          |                Geometry Summary                 |
           -------------------------------------------------

      molecular mass/u    :     1003.7085218
   center of mass at/Å    :       -0.8796703       0.4501534       0.6507376
  moments of inertia/u·Å² :        0.1235270E+05   0.2234418E+05   0.3185060E+05
rotational constants/cm⁻¹ :        0.1364692E-02   0.7544531E-03   0.5292720E-03

 * 111 selected distances

     #   Z          #   Z                                           value/Å
     1   6 C        2   6 C                                       1.4042896
     2   6 C        3   6 C                                       1.3980847
     3   6 C        4   6 C                                       1.4251194
     4   6 C        5   6 C                                       1.4244377
     1   6 C        6   6 C                                       1.4185534
     5   6 C        6   6 C                                       1.3837967
     7   6 C        8   6 C                                       1.4063343
     4   6 C       10   7 N                                       1.3316197
     9   6 C       10   7 N                                       1.3409559
    11   6 C       12   6 C                                       1.4347876
    12   6 C       13   7 N                                       1.3299209
     8   6 C       14   6 C                                       1.4332329
    13   7 N       14   6 C                                       1.3392283
    14   6 C       15   6 C                                       1.4032486
    15   6 C       16   6 C                                       1.3901479
     9   6 C       17   6 C                                       1.4040442
    16   6 C       17   6 C                                       1.3906401
    11   6 C       18   6 C                                       1.4145821
    18   6 C       19   6 C                                       1.4179637
    19   6 C       20   6 C                                       1.4128234
    12   6 C       21   6 C                                       1.4236539
    20   6 C       21   6 C                                       1.3793821
     2   6 C       22   8 O                                       1.3121679
    26   6 C       27   6 C                                       1.4044456
    27   6 C       28   6 C                                       1.3981837
    28   6 C       29   6 C                                       1.4252678
    29   6 C       30   6 C                                       1.4242749
    26   6 C       31   6 C                                       1.4189454
    30   6 C       31   6 C                                       1.3841643
    32   6 C       33   6 C                                       1.4064779
    33   6 C       34   6 C                                       1.4386404
    29   6 C       35   7 N                                       1.3315757
    34   6 C       35   7 N                                       1.3411597
    36   6 C       37   6 C                                       1.4351962
    37   6 C       38   7 N                                       1.3289312
    33   6 C       39   6 C                                       1.4334378
    38   7 N       39   6 C                                       1.3383296
    39   6 C       40   6 C                                       1.4029911
    40   6 C       41   6 C                                       1.3905440
    34   6 C       42   6 C                                       1.4046440
    41   6 C       42   6 C                                       1.3901138
    36   6 C       43   6 C                                       1.4145301
    43   6 C       44   6 C                                       1.4192461
    44   6 C       45   6 C                                       1.4126788
    37   6 C       46   6 C                                       1.4236201
    45   6 C       46   6 C                                       1.3792728
    27   6 C       47   8 O                                       1.3121858
    22   8 O       51   5 B                                       1.4428834
    47   8 O       51   5 B                                       1.4419061
    25   6 C       52   8 O                                       1.2081128
    25   6 C       53   8 O                                       1.3478515
    53   8 O       54   6 C                                       1.4155734
    24   6 C       55   8 O                                       1.3493767
    55   8 O       56   6 C                                       1.4191153
    24   6 C       57   8 O                                       1.2047611
    48   6 C       58   8 O                                       1.2061810
    48   6 C       59   8 O                                       1.3483702
    59   8 O       60   6 C                                       1.4178659
    50   6 C       61   8 O                                       1.2082092
    50   6 C       62   8 O                                       1.3470009
    62   8 O       63   6 C                                       1.4157190
    49   6 C       64   8 O                                       1.2093873
    49   6 C       65   8 O                                       1.3358579
    65   8 O       66   6 C                                       1.4201599
    23   6 C       67   8 O                                       1.2086495
    23   6 C       68   8 O                                       1.3411578
    68   8 O       69   6 C                                       1.4199405
    18   6 C       70   7 N                                       1.3802779
    51   5 B       70   7 N                                       1.5265047
    70   7 N       72   6 C                                       1.4503026
    71   6 C       72   6 C                                       1.5324160 (max)
    43   6 C       73   7 N                                       1.3799257
    51   5 B       73   7 N                                       1.5259449
    73   7 N       75   6 C                                       1.4498773
    74   6 C       75   6 C                                       1.5323850
    60   6 C       76   1 H                                       1.0904850
    60   6 C       77   1 H                                       1.0926142
    60   6 C       78   1 H                                       1.0910713
    56   6 C       79   1 H                                       1.0926265
    56   6 C       80   1 H                                       1.0922569
    56   6 C       81   1 H                                       1.0874928
    54   6 C       82   1 H                                       1.0873973
    54   6 C       83   1 H                                       1.0926759
    54   6 C       84   1 H                                       1.0927281
    71   6 C       85   1 H                                       1.0879146
    71   6 C       86   1 H                                       1.0880163
Note: The following floating-point exceptions are signalling: IEEE_UNDERFLOW_FLAG
normal termination of xtb
    71   6 C       87   1 H                                       1.0868521
    72   6 C       88   1 H                                       1.0953447
    72   6 C       89   1 H                                       1.0889910
    74   6 C       90   1 H                                       1.0878456
    74   6 C       91   1 H                                       1.0880117
    74   6 C       92   1 H                                       1.0869195
    75   6 C       93   1 H                                       1.0953710
    75   6 C       94   1 H                                       1.0889049
    66   6 C       95   1 H                                       1.0873203
    66   6 C       96   1 H                                       1.0922522
    66   6 C       97   1 H                                       1.0924763
    63   6 C       98   1 H                                       1.0872218
    63   6 C       99   1 H                                       1.0927522
    63   6 C      100   1 H                                       1.0924820
    69   6 C      101   1 H                                       1.0924314
    69   6 C      102   1 H                                       1.0875684
    69   6 C      103   1 H                                       1.0921224
    40   6 C      104   1 H                                       1.0781692
    42   6 C      105   1 H                                       1.0772944
    46   6 C      106   1 H                                       1.0793574
    30   6 C      107   1 H                                       1.0795239
    21   6 C      108   1 H                                       1.0789121
    15   6 C      109   1 H                                       1.0771354 (min)
    17   6 C      110   1 H                                       1.0783005
     5   6 C      111   1 H                                       1.0796358

 * 6 distinct bonds (by element types)

   Z      Z             #   av. dist./Å        max./Å        min./Å
   1 H    6 C          36     1.0877354     1.0953710     1.0771354
   6 C    6 C          39     1.4163230     1.5324160     1.3792728
   5 B    7 N           2     1.5262248     1.5265047     1.5259449
   6 C    7 N          12     1.3618420     1.4503026     1.3289312
   5 B    8 O           2     1.4423948     1.4428834     1.4419061
   6 C    8 O          20     1.3223822     1.4201599     1.2047611


optimized geometry written to: xtbopt.mol


           -------------------------------------------------
          | TOTAL ENERGY             -210.198337333985 Eh   |
          | GRADIENT NORM               0.000616742379 Eh/α |
          | HOMO-LUMO GAP               0.128747930382 eV   |
           -------------------------------------------------
########################################################################
[WARNING] Runtime exception occurred
-2- restart_readRestart: Multiplicity missmatch in restart file.
-1- restart_readRestart: Number of electron missmatch in restart file.
########################################################################

------------------------------------------------------------------------
 * finished run on 2024/10/31 at 16:39:44.604     
------------------------------------------------------------------------
 total:
 * wall-time:     0 d,  0 h,  1 min, 52.350 sec
 *  cpu-time:     0 d,  0 h,  5 min, 51.601 sec
 * ratio c/w:     3.130 speedup
 SCF:
 * wall-time:     0 d,  0 h,  0 min,  2.589 sec
 *  cpu-time:     0 d,  0 h,  0 min,  9.337 sec
 * ratio c/w:     3.606 speedup
 ANC optimizer:
 * wall-time:     0 d,  0 h,  1 min, 49.743 sec
 *  cpu-time:     0 d,  0 h,  5 min, 42.230 sec
 * ratio c/w:     3.118 speedup

