      -----------------------------------------------------------      
     |                   =====================                   |     
     |                           x T B                           |     
     |                   =====================                   |     
     |                         S. Grimme                         |     
     |          Mulliken Center for Theoretical Chemistry        |     
     |                    University of Bonn                     |     
      -----------------------------------------------------------      

   * xtb version 6.6.1 (8d0f1dd) compiled by 'runner@Mac-1690902418499.local' on 2023-08-01

   xtb is free software: you can redistribute it and/or modify it under
   the terms of the GNU Lesser General Public License as published by
   the Free Software Foundation, either version 3 of the License, or
   (at your option) any later version.
   
   xtb is distributed in the hope that it will be useful,
   but WITHOUT ANY WARRANTY; without even the implied warranty of
   MERCHANTABILITY or FITNESS FOR A PARTICULAR PURPOSE.  See the
   GNU Lesser General Public License for more details.
   
   Cite this work as:
   * C. Bannwarth, E. Caldeweyher, S. Ehlert, A. Hansen, P. Pracht,
     J. Seibert, S. Spicher, S. Grimme, WIREs Comput. Mol. Sci., 2020, 11,
     e01493. DOI: 10.1002/wcms.1493
   
   for GFN2-xTB:
   * C. Bannwarth, S. Ehlert and S. Grimme., J. Chem. Theory Comput., 2019,
     15, 1652-1671. DOI: 10.1021/acs.jctc.8b01176
   for GFN1-xTB:
   * S. Grimme, C. Bannwarth, P. Shushkov, J. Chem. Theory Comput., 2017,
     13, 1989-2009. DOI: 10.1021/acs.jctc.7b00118
   for GFN0-xTB:
   * P. Pracht, E. Caldeweyher, S. Ehlert, S. Grimme, ChemRxiv, 2019, preprint.
     DOI: 10.26434/chemrxiv.8326202.v1
   for GFN-FF:
   * S. Spicher and S. Grimme, Angew. Chem. Int. Ed., 2020, 59, 15665-15673.
     DOI: 10.1002/anie.202004239
   
   for ALPB and GBSA implicit solvation:
   * S. Ehlert, M. Stahn, S. Spicher, S. Grimme, J. Chem. Theory Comput.,
     2021, 17, 4250-4261. DOI: 10.1021/acs.jctc.1c00471
   
   for DFT-D4:
   * E. Caldeweyher, C. Bannwarth and S. Grimme, J. Chem. Phys., 2017,
     147, 034112. DOI: 10.1063/1.4993215
   * E. Caldeweyher, S. Ehlert, A. Hansen, H. Neugebauer, S. Spicher,
     C. Bannwarth and S. Grimme, J. Chem. Phys., 2019, 150, 154122.
     DOI: 10.1063/1.5090222
   * E. Caldeweyher, J.-M. Mewes, S. Ehlert and S. Grimme, Phys. Chem. Chem. Phys.
     2020, 22, 8499-8512. DOI: 10.1039/D0CP00502A
   
   for sTDA-xTB:
   * S. Grimme and C. Bannwarth, J. Chem. Phys., 2016, 145, 054103.
     DOI: 10.1063/1.4959605
   
   in the mass-spec context:
   * V. Asgeirsson, C. Bauer and S. Grimme, Chem. Sci., 2017, 8, 4879.
     DOI: 10.1039/c7sc00601b
   * J. Koopman and S. Grimme, ACS Omega 2019, 4, 12, 15120-15133.
     DOI: 10.1021/acsomega.9b02011
   
   for metadynamics refer to:
   * S. Grimme, J. Chem. Theory Comput., 2019, 155, 2847-2862
     DOI: 10.1021/acs.jctc.9b00143
   
   for SPH calculations refer to:
   * S. Spicher and S. Grimme, J. Chem. Theory Comput., 2021, 17, 1701-1714
     DOI: 10.1021/acs.jctc.0c01306
   
   with help from (in alphabetical order)
   P. Atkinson, C. Bannwarth, F. Bohle, G. Brandenburg, E. Caldeweyher
   M. Checinski, S. Dohm, S. Ehlert, S. Ehrlich, I. Gerasimov, C. Hölzer
   A. Katbashev, J. Koopman, C. Lavigne, S. Lehtola, F. März, M. Müller,
   F. Musil, H. Neugebauer, J. Pisarek, C. Plett, P. Pracht, F. Pultar,
   J. Seibert, P. Shushkov, S. Spicher, M. Stahn, M. Steiner, T. Strunk,
   J. Stückrath, T. Rose, and J. Unsleber
   
 * started run on 2024/11/07 at 16:15:51.756     

           -------------------------------------------------
          |                Calculation Setup                |
           -------------------------------------------------

          program call               : xtb opt_cation_Base2CO2Me.mol --gfn2 --sp --chrg 1 --uhf 0
          coordinate file            : opt_cation_Base2CO2Me.mol
          omp threads                :                     8

   ID    Z sym.   atoms
    1    6 C      1-9, 11, 12, 14-21, 23-34, 36, 37, 39-46, 48-50, 54, 56,
                  60, 63, 66, 69, 71, 72, 74, 75
    2    7 N      10, 13, 35, 38, 70, 73
    3    8 O      22, 47, 52, 53, 55, 57-59, 61, 62, 64, 65, 67, 68
    4    5 B      51
    5    1 H      76-111
########################################################################
[WARNING] Please study the warnings concerning your input carefully
-1- prog_main: Charge in sdf/mol input was overwritten
########################################################################

           -------------------------------------------------
          |                 G F N 2 - x T B                 |
           -------------------------------------------------

        Reference                      10.1021/acs.jctc.8b01176
      * Hamiltonian:
        H0-scaling (s, p, d)           1.850000    2.230000    2.230000
        zeta-weighting                 0.500000
      * Dispersion:
        s8                             2.700000
        a1                             0.520000
        a2                             5.000000
        s9                             5.000000
      * Repulsion:
        kExp                           1.500000    1.000000
        rExp                           1.000000
      * Coulomb:
        alpha                          2.000000
        third order                    shell-resolved
        anisotropic                    true
        a3                             3.000000
        a5                             4.000000
        cn-shift                       1.200000
        cn-exp                         4.000000
        max-rad                        5.000000

q/qsh data taken from xtbrestart
CAMM data taken from xtbrestart

          ...................................................
          :                      SETUP                      :
          :.................................................:
          :  # basis functions                 336          :
          :  # atomic orbitals                 336          :
          :  # shells                          186          :
          :  # electrons                       368          :
          :  max. iterations                   250          :
          :  Hamiltonian                  GFN2-xTB          :
          :  restarted?                       true          :
          :  GBSA solvation                  false          :
          :  PC potential                    false          :
          :  electronic temp.          300.0000000     K    :
          :  accuracy                    1.0000000          :
          :  -> integral cutoff          0.2500000E+02      :
          :  -> integral neglect         0.1000000E-07      :
          :  -> SCF convergence          0.1000000E-05 Eh   :
          :  -> wf. convergence          0.1000000E-03 e    :
          :  Broyden damping             0.4000000          :
          ...................................................

 iter      E             dE          RMSdq      gap      omega  full diag
   1   -211.7882800 -0.211788E+03  0.244E+00    0.05       0.0  T
   2   -211.3488603  0.439420E+00  0.225E+00    0.10       1.0  T
   3   -212.0212588 -0.672399E+00  0.136E+00    0.04       1.0  T
   4   -211.3024911  0.718768E+00  0.170E+00    0.33       1.0  T
   5   -211.4598167 -0.157326E+00  0.156E+00    0.04       1.0  T
   6   -211.3613520  0.984647E-01  0.192E+00    0.19       1.0  T
   7   -212.1470005 -0.785649E+00  0.716E-01    0.25       1.0  T
   8   -212.1700648 -0.230643E-01  0.523E-01    0.14       1.0  T
   9   -212.1179888  0.520760E-01  0.574E-01    0.04       1.0  T
  10   -212.1907087 -0.727199E-01  0.426E-01    0.14       1.0  T
  11   -212.2046513 -0.139425E-01  0.273E-01    0.13       1.0  T
  12   -212.2098630 -0.521174E-02  0.131E-01    0.10       1.0  T
  13   -212.2085805  0.128249E-02  0.145E-01    0.11       1.0  T
  14   -212.2069617  0.161888E-02  0.148E-01    0.09       1.0  T
  15   -212.2103990 -0.343732E-02  0.928E-02    0.12       1.0  T
  16   -212.2113752 -0.976241E-03  0.438E-02    0.11       1.0  T
  17   -212.2114470 -0.717734E-04  0.346E-02    0.12       1.0  T
  18   -212.2116227 -0.175739E-03  0.994E-03    0.11       1.0  T
  19   -212.2116221  0.594624E-06  0.844E-03    0.11       1.1  T
  20   -212.2116328 -0.106562E-04  0.319E-03    0.11       3.0  T
  21   -212.2116341 -0.133142E-05  0.186E-03    0.11       5.1  T
  22   -212.2116347 -0.558637E-06  0.105E-03    0.11       9.0  T
  23   -212.2116347  0.116806E-07  0.111E-03    0.11       8.5  T
  24   -212.2116348 -0.118788E-06  0.721E-04    0.11      13.2  T
  25   -212.2116349 -0.111095E-06  0.106E-04    0.11      89.8  T

   *** convergence criteria satisfied after 25 iterations ***

         #    Occupation            Energy/Eh            Energy/eV
      -------------------------------------------------------------
         1        2.0000           -0.8428633             -22.9355
       ...           ...                  ...                  ...
       178        2.0000           -0.4951667             -13.4742
       179        2.0000           -0.4915892             -13.3768
       180        2.0000           -0.4894984             -13.3199
       181        2.0000           -0.4776247             -12.9968
       182        1.9999           -0.4757828             -12.9467
       183        1.9354           -0.4699877             -12.7890
       184        1.8170           -0.4689382             -12.7605 (HOMO)
       185        0.2461           -0.4648915             -12.6503 (LUMO)
       186        0.0017           -0.4600248             -12.5179
       187                         -0.4070221             -11.0756
       188                         -0.4033394             -10.9754
       189                         -0.3780244             -10.2866
       ...                                ...                  ...
       336                          0.6218254              16.9207
      -------------------------------------------------------------
                  HL-Gap            0.0040467 Eh            0.1101 eV
             Fermi-level           -0.4667574 Eh          -12.7011 eV

 SCC (total)                   0 d,  0 h,  0 min,  1.411 sec
 SCC setup                      ...        0 min,  0.000 sec (  0.027%)
 Dispersion                     ...        0 min,  0.001 sec (  0.099%)
 classical contributions        ...        0 min,  0.000 sec (  0.019%)
 integral evaluation            ...        0 min,  0.007 sec (  0.480%)
 iterations                     ...        0 min,  1.362 sec ( 96.543%)
 molecular gradient             ...        0 min,  0.038 sec (  2.682%)
 printout                       ...        0 min,  0.002 sec (  0.150%)

         :::::::::::::::::::::::::::::::::::::::::::::::::::::
         ::                     SUMMARY                     ::
         :::::::::::::::::::::::::::::::::::::::::::::::::::::
         :: total energy            -209.498858843045 Eh    ::
         :: gradient norm              0.001089674916 Eh/a0 ::
         :: HOMO-LUMO gap              0.110117428093 eV    ::
         ::.................................................::
         :: SCC energy              -212.211634898937 Eh    ::
         :: -> isotropic ES            0.406102778295 Eh    ::
         :: -> anisotropic ES         -0.016992018268 Eh    ::
         :: -> anisotropic XC          0.065593338875 Eh    ::
         :: -> dispersion             -0.180607840708 Eh    ::
         :: repulsion energy           2.709591158417 Eh    ::
         :: add. restraining           0.000000000000 Eh    ::
         :: total charge               1.000000763268 e     ::
         :::::::::::::::::::::::::::::::::::::::::::::::::::::

           -------------------------------------------------
          |                Property Printout                |
           -------------------------------------------------

    * Orbital Energies and Occupations

         #    Occupation            Energy/Eh            Energy/eV
      -------------------------------------------------------------
         1        2.0000           -0.8428633             -22.9355
       ...           ...                  ...                  ...
       172        2.0000           -0.5100709             -13.8797
       173        2.0000           -0.5064608             -13.7815
       174        2.0000           -0.5043843             -13.7250
       175        2.0000           -0.5039873             -13.7142
       176        2.0000           -0.5026769             -13.6785
       177        2.0000           -0.4986450             -13.5688
       178        2.0000           -0.4951667             -13.4742
       179        2.0000           -0.4915892             -13.3768
       180        2.0000           -0.4894984             -13.3199
       181        2.0000           -0.4776247             -12.9968
       182        1.9999           -0.4757828             -12.9467
       183        1.9354           -0.4699877             -12.7890
       184        1.8170           -0.4689382             -12.7605 (HOMO)
       185        0.2461           -0.4648915             -12.6503 (LUMO)
       186        0.0017           -0.4600248             -12.5179
       187                         -0.4070221             -11.0756
       188                         -0.4033394             -10.9754
       189                         -0.3780244             -10.2866
       190                         -0.3757041             -10.2234
       191                         -0.3731150             -10.1530
       192                         -0.3703850             -10.0787
       193                         -0.3548841              -9.6569
       194                         -0.3491143              -9.4999
       195                         -0.3441568              -9.3650
       ...                                ...                  ...
       336                          0.6218254              16.9207
      -------------------------------------------------------------
                  HL-Gap            0.0040467 Eh            0.1101 eV
             Fermi-level           -0.4667574 Eh          -12.7011 eV

     #   Z          covCN         q      C6AA      α(0)
     1   6 C        2.966    -0.017    28.420     8.744
     2   6 C        2.979     0.168    24.369     8.098
     3   6 C        2.991    -0.007    28.195     8.710
     4   6 C        2.960     0.101    25.770     8.327
     5   6 C        2.924    -0.039    28.960     8.825
     6   6 C        2.968    -0.017    28.421     8.745
     7   6 C        2.980     0.045    26.987     8.521
     8   6 C        3.000    -0.014    28.360     8.736
     9   6 C        2.954     0.100    25.779     8.328
    10   7 N        1.849    -0.189    25.910     7.544
    11   6 C        2.973    -0.001    28.037     8.685
    12   6 C        2.956     0.105    25.683     8.312
    13   7 N        1.855    -0.191    25.969     7.553
    14   6 C        2.951     0.101    25.759     8.324
    15   6 C        2.920    -0.009    28.236     8.714
    16   6 C        2.962    -0.003    28.092     8.694
    17   6 C        2.924    -0.003    28.109     8.694
    18   6 C        2.946     0.095    25.893     8.346
    19   6 C        2.984     0.036    27.198     8.555
    20   6 C        2.963    -0.006    28.160     8.704
    21   6 C        2.926    -0.022    28.565     8.765
    22   8 O        1.637    -0.364    20.173     6.063
    23   6 C        2.730     0.360    20.896     7.484
    24   6 C        2.730     0.360    20.886     7.482
    25   6 C        2.732     0.354    20.989     7.501
    26   6 C        2.977     0.012    27.746     8.640
    27   6 C        2.908     0.170    24.335     8.089
    28   6 C        2.974    -0.017    28.424     8.745
    29   6 C        2.964     0.104    25.693     8.314
    30   6 C        2.931    -0.026    28.642     8.777
    31   6 C        2.964    -0.005    28.149     8.703
    32   6 C        2.970     0.045    26.977     8.520
    33   6 C        2.995    -0.013    28.331     8.731
    34   6 C        2.961     0.102    25.738     8.321
    35   7 N        1.859    -0.192    25.996     7.557
    36   6 C        2.969    -0.001    28.051     8.688
    37   6 C        2.965     0.104    25.706     8.316
    38   7 N        1.866    -0.180    25.715     7.517
    39   6 C        2.956     0.102    25.749     8.323
    40   6 C        2.926    -0.002    28.075     8.689
    41   6 C        2.961    -0.001    28.048     8.687
    42   6 C        2.925    -0.004    28.133     8.698
    43   6 C        2.917     0.102    25.744     8.320
    44   6 C        2.930    -0.016    28.414     8.742
    45   6 C        2.961    -0.005    28.148     8.702
    46   6 C        2.941    -0.013    28.348     8.732
    47   8 O        1.639    -0.375    20.386     6.095
    48   6 C        2.727     0.360    20.890     7.482
    49   6 C        2.731     0.355    20.969     7.497
    50   6 C        2.731     0.354    20.983     7.499
    51   5 B        3.485     0.504    14.547     6.341
    52   8 O        0.856    -0.383    21.343     6.194
    53   8 O        1.704    -0.245    18.057     5.737
    54   6 C        3.658     0.024    20.446     6.489
    55   8 O        1.704    -0.246    18.082     5.741
    56   6 C        3.657     0.022    20.498     6.498
    57   8 O        0.856    -0.395    21.582     6.229
    58   8 O        0.856    -0.382    21.324     6.191
    59   8 O        1.704    -0.270    18.484     5.805
    60   6 C        3.653     0.026    20.445     6.493
    61   8 O        0.856    -0.381    21.311     6.189
    62   8 O        1.704    -0.243    18.034     5.734
    63   6 C        3.659     0.024    20.453     6.490
    64   8 O        0.857    -0.378    21.244     6.180
    65   8 O        1.704    -0.254    18.201     5.760
    66   6 C        3.659     0.026    20.412     6.484
    67   8 O        0.856    -0.409    21.856     6.268
    68   8 O        1.705    -0.236    17.909     5.714
    69   6 C        3.655     0.022    20.510     6.502
    70   7 N        2.661    -0.246    26.421     7.634
    71   6 C        3.752    -0.111    22.673     6.790
    72   6 C        3.741     0.018    20.348     6.436
    73   7 N        2.660    -0.220    25.798     7.543
    74   6 C        3.751    -0.115    22.767     6.805
    75   6 C        3.792     0.052    19.711     6.322
    76   1 H        0.925     0.076     2.026     2.226
    77   1 H        0.924     0.083     1.949     2.183
    78   1 H        0.924     0.072     2.060     2.245
    79   1 H        0.924     0.089     1.888     2.149
    80   1 H        0.924     0.078     2.003     2.213
    81   1 H        0.925     0.083     1.949     2.183
    82   1 H        0.925     0.082     1.957     2.188
    83   1 H        0.924     0.076     2.021     2.223
    84   1 H        0.924     0.075     2.031     2.229
    85   1 H        0.925     0.064     2.149     2.292
    86   1 H        0.925     0.044     2.392     2.419
    87   1 H        0.925     0.049     2.333     2.388
    88   1 H        0.924     0.040     2.442     2.444
    89   1 H        0.924     0.042     2.429     2.437
    90   1 H        0.925     0.072     2.065     2.247
    91   1 H        0.925     0.054     2.269     2.356
    92   1 H        0.925     0.055     2.253     2.347
    93   1 H        0.926     0.094     1.841     2.122
    94   1 H        0.923     0.094     1.838     2.120
    95   1 H        0.925     0.077     2.012     2.218
    96   1 H        0.924     0.075     2.032     2.229
    97   1 H        0.924     0.075     2.035     2.231
    98   1 H        0.925     0.083     1.950     2.184
    99   1 H        0.924     0.076     2.026     2.226
   100   1 H        0.924     0.076     2.017     2.221
   101   1 H        0.924     0.072     2.063     2.246
   102   1 H        0.924     0.079     1.989     2.205
   103   1 H        0.925     0.086     1.917     2.165
   104   1 H        0.926     0.119     1.622     1.991
   105   1 H        0.926     0.112     1.684     2.029
   106   1 H        0.926     0.115     1.651     2.009
   107   1 H        0.926     0.107     1.722     2.052
   108   1 H        0.926     0.100     1.785     2.089
   109   1 H        0.926     0.107     1.723     2.053
   110   1 H        0.926     0.116     1.644     2.005
   111   1 H        0.926     0.097     1.816     2.108

 Mol. C6AA /au·bohr⁶  :     174726.500905
 Mol. C8AA /au·bohr⁸  :    4325774.140515
 Mol. α(0) /au        :        650.681491


Wiberg/Mayer (AO) data.
largest (>0.10) Wiberg bond orders for each atom

 ---------------------------------------------------------------------------
     #   Z sym  total        # sym  WBO       # sym  WBO       # sym  WBO
 ---------------------------------------------------------------------------
     1   6 C    3.890 --     2 C    1.348     6 C    1.288    75 C    0.974
     2   6 C    3.931 --     1 C    1.348     3 C    1.235    22 O    1.112
     3   6 C    3.950 --     2 C    1.235     7 C    1.224     4 C    1.161
     4   6 C    3.973 --    10 N    1.390     5 C    1.233     3 C    1.161
     5   6 C    3.932 --     6 C    1.495     4 C    1.233   111 H    0.958
     6   6 C    3.972 --     5 C    1.495     1 C    1.288    23 C    0.964
     7   6 C    3.980 --     8 C    1.309     3 C    1.224    11 C    1.199
     8   6 C    3.974 --     7 C    1.309    14 C    1.192     9 C    1.187
     9   6 C    3.976 --    10 N    1.338    17 C    1.273     8 C    1.187
    10   7 N    3.022 --     4 C    1.390     9 C    1.338
    11   6 C    3.953 --    18 C    1.308     7 C    1.199    12 C    1.168
    12   6 C    3.973 --    13 N    1.405    21 C    1.211    11 C    1.168
    13   7 N    3.010 --    12 C    1.405    14 C    1.335
    14   6 C    3.972 --    13 N    1.335    15 C    1.267     8 C    1.192
    15   6 C    3.842 --    16 C    1.413    14 C    1.267   109 H    0.956
    16   6 C    3.974 --    15 C    1.413    17 C    1.402    25 C    0.969
    17   6 C    3.833 --    16 C    1.402     9 C    1.273   110 H    0.954
    18   6 C    3.953 --    19 C    1.319    11 C    1.308    70 N    1.079
    19   6 C    3.890 --    18 C    1.319    20 C    1.246    26 C    1.091
    20   6 C    3.964 --    21 C    1.536    19 C    1.246    24 C    0.957
    21   6 C    3.922 --    20 C    1.536    12 C    1.211   108 H    0.957
    22   8 O    2.164 --     2 C    1.112    51 B    0.796
    23   6 C    3.923 --    67 O    1.714    68 O    1.171     6 C    0.964
    24   6 C    3.925 --    57 O    1.734    55 O    1.161    20 C    0.957
    25   6 C    3.929 --    52 O    1.745    53 O    1.151    16 C    0.969
    26   6 C    3.905 --    27 C    1.304    31 C    1.251    19 C    1.091
    27   6 C    3.926 --    26 C    1.304    28 C    1.297    47 O    1.100
    28   6 C    3.960 --    27 C    1.297    32 C    1.200    29 C    1.173
    29   6 C    3.972 --    35 N    1.399    30 C    1.218    28 C    1.173
    30   6 C    3.913 --    31 C    1.527    29 C    1.218   107 H    0.955
    31   6 C    3.969 --    30 C    1.527    26 C    1.251    48 C    0.968
    32   6 C    3.978 --    33 C    1.311    36 C    1.222    28 C    1.200
    33   6 C    3.972 --    32 C    1.311    34 C    1.194    39 C    1.189
    34   6 C    3.972 --    35 N    1.335    42 C    1.269    33 C    1.194
    35   7 N    2.965 --    29 C    1.399    34 C    1.335
    36   6 C    3.948 --    43 C    1.250    32 C    1.222    37 C    1.169
    37   6 C    3.972 --    38 N    1.394    46 C    1.222    36 C    1.169
    38   7 N    3.037 --    37 C    1.394    39 C    1.352
    39   6 C    3.978 --    38 N    1.352    40 C    1.257    33 C    1.189
    40   6 C    3.837 --    41 C    1.415    39 C    1.257   104 H    0.953
    41   6 C    3.976 --    40 C    1.415    42 C    1.402    50 C    0.968
    42   6 C    3.828 --    41 C    1.402    34 C    1.269   105 H    0.955
    43   6 C    3.953 --    44 C    1.368    36 C    1.250    73 N    1.133
    44   6 C    3.859 --    43 C    1.368    45 C    1.326    93 H    0.953
    45   6 C    3.976 --    46 C    1.481    44 C    1.326    49 C    0.973
    46   6 C    3.883 --    45 C    1.481    37 C    1.222   106 H    0.953
    47   8 O    2.163 --    27 C    1.100    51 B    0.829
    48   6 C    3.924 --    58 O    1.753    59 O    1.127    31 C    0.968
    49   6 C    3.927 --    64 O    1.751    65 O    1.138    45 C    0.973
    50   6 C    3.931 --    61 O    1.746    62 O    1.153    41 C    0.968
    51   5 B    3.378 --    47 O    0.829    22 O    0.796    73 N    0.789
                            70 N    0.784
    52   8 O    2.054 --    25 C    1.745    53 O    0.185
    53   8 O    2.329 --    25 C    1.151    54 C    0.946    52 O    0.185
    54   6 C    3.909 --    82 H    0.980    84 H    0.975    83 H    0.975
                            53 O    0.946
    55   8 O    2.333 --    24 C    1.161    56 C    0.938    57 O    0.185
    56   6 C    3.900 --    81 H    0.979    80 H    0.976    79 H    0.968
                            55 O    0.938
    57   8 O    2.045 --    24 C    1.734    55 O    0.185
    58   8 O    2.059 --    48 C    1.753    59 O    0.178
    59   8 O    2.303 --    48 C    1.127    60 C    0.944    58 O    0.178
    60   6 C    3.908 --    76 H    0.980    77 H    0.974    78 H    0.973
                            59 O    0.944
    61   8 O    2.056 --    50 C    1.746    62 O    0.186
    62   8 O    2.331 --    50 C    1.153    63 C    0.946    61 O    0.186
    63   6 C    3.909 --    98 H    0.980   100 H    0.974    99 H    0.974
                            62 O    0.946
    64   8 O    2.059 --    49 C    1.751    65 O    0.182
    65   8 O    2.316 --    49 C    1.138    66 C    0.948    64 O    0.182
    66   6 C    3.912 --    95 H    0.981    96 H    0.975    97 H    0.975
                            65 O    0.948
    67   8 O    2.030 --    23 C    1.714    68 O    0.183
    68   8 O    2.345 --    23 C    1.171    69 C    0.943    67 O    0.183
    69   6 C    3.907 --   103 H    0.978   102 H    0.976   101 H    0.974
                            68 O    0.943
    70   7 N    3.122 --    18 C    1.079    72 C    0.998    51 B    0.784
    71   6 C    3.969 --    72 C    0.990    86 H    0.987    87 H    0.984
                            85 H    0.980
    72   6 C    3.963 --    70 N    0.998    71 C    0.990    89 H    0.969
                            88 H    0.958
    73   7 N    3.187 --    43 C    1.133    75 C    0.993    51 B    0.789
    74   6 C    3.973 --    75 C    0.985    91 H    0.982    92 H    0.976
                            90 H    0.975
    75   6 C    3.955 --    73 N    0.993    74 C    0.985     1 C    0.974
                            94 H    0.915
    76   1 H    0.994 --    60 C    0.980
    77   1 H    0.993 --    60 C    0.974
    78   1 H    0.994 --    60 C    0.973
    79   1 H    0.992 --    56 C    0.968
    80   1 H    0.994 --    56 C    0.976
    81   1 H    0.992 --    56 C    0.979
    82   1 H    0.993 --    54 C    0.980
    83   1 H    0.994 --    54 C    0.975
    84   1 H    0.994 --    54 C    0.975
    85   1 H    0.994 --    71 C    0.980
    86   1 H    0.998 --    71 C    0.987
    87   1 H    0.997 --    71 C    0.984
    88   1 H    0.988 --    72 C    0.958
    89   1 H    0.994 --    72 C    0.969
    90   1 H    0.994 --    74 C    0.975
    91   1 H    0.996 --    74 C    0.982
    92   1 H    0.994 --    74 C    0.976
    93   1 H    0.990 --    44 C    0.953
    94   1 H    0.974 --    75 C    0.915
    95   1 H    0.994 --    66 C    0.981
    96   1 H    0.994 --    66 C    0.975
    97   1 H    0.994 --    66 C    0.975
    98   1 H    0.993 --    63 C    0.980
    99   1 H    0.994 --    63 C    0.974
   100   1 H    0.994 --    63 C    0.974
   101   1 H    0.995 --    69 C    0.974
   102   1 H    0.994 --    69 C    0.976
   103   1 H    0.992 --    69 C    0.978
   104   1 H    0.985 --    40 C    0.953
   105   1 H    0.987 --    42 C    0.955
   106   1 H    0.986 --    46 C    0.953
   107   1 H    0.986 --    30 C    0.955
   108   1 H    0.987 --    21 C    0.957
   109   1 H    0.988 --    15 C    0.956
   110   1 H    0.985 --    17 C    0.954
   111   1 H    0.989 --     5 C    0.958
 ---------------------------------------------------------------------------

Topologies differ in total number of bonds
Writing corrected topology to xtbtopo.mol

molecular dipole:
                 x           y           z       tot (Debye)
 q only:       -0.013       0.520      -0.367
   full:        0.200       0.478      -0.169       1.385
molecular quadrupole (traceless):
                xx          xy          yy          xz          yz          zz
Note: The following floating-point exceptions are signalling: IEEE_UNDERFLOW_FLAG
normal termination of xtb
 q only:       65.124      12.246       8.143      56.811      -1.393     -73.267
  q+dip:       52.972       8.098       9.674      58.653      -1.753     -62.646
   full:       45.746       7.253       6.434      55.360      -3.446     -52.180


           -------------------------------------------------
          | TOTAL ENERGY             -209.498858843045 Eh   |
          | GRADIENT NORM               0.001089674916 Eh/α |
          | HOMO-LUMO GAP               0.110117428093 eV   |
           -------------------------------------------------
########################################################################
[WARNING] Runtime exception occurred
-1- restart_readRestart: Number of electron missmatch in restart file.
########################################################################

------------------------------------------------------------------------
 * finished run on 2024/11/07 at 16:15:53.187     
------------------------------------------------------------------------
 total:
 * wall-time:     0 d,  0 h,  0 min,  1.431 sec
 *  cpu-time:     0 d,  0 h,  0 min,  4.298 sec
 * ratio c/w:     3.003 speedup
 SCF:
 * wall-time:     0 d,  0 h,  0 min,  1.411 sec
 *  cpu-time:     0 d,  0 h,  0 min,  4.265 sec
 * ratio c/w:     3.022 speedup

