      -----------------------------------------------------------      
     |                   =====================                   |     
     |                           x T B                           |     
     |                   =====================                   |     
     |                         S. Grimme                         |     
     |          Mulliken Center for Theoretical Chemistry        |     
     |                    University of Bonn                     |     
      -----------------------------------------------------------      

   * xtb version 6.6.1 (8d0f1dd) compiled by 'runner@Mac-1690902418499.local' on 2023-08-01

   xtb is free software: you can redistribute it and/or modify it under
   the terms of the GNU Lesser General Public License as published by
   the Free Software Foundation, either version 3 of the License, or
   (at your option) any later version.
   
   xtb is distributed in the hope that it will be useful,
   but WITHOUT ANY WARRANTY; without even the implied warranty of
   MERCHANTABILITY or FITNESS FOR A PARTICULAR PURPOSE.  See the
   GNU Lesser General Public License for more details.
   
   Cite this work as:
   * C. Bannwarth, E. Caldeweyher, S. Ehlert, A. Hansen, P. Pracht,
     J. Seibert, S. Spicher, S. Grimme, WIREs Comput. Mol. Sci., 2020, 11,
     e01493. DOI: 10.1002/wcms.1493
   
   for GFN2-xTB:
   * C. Bannwarth, S. Ehlert and S. Grimme., J. Chem. Theory Comput., 2019,
     15, 1652-1671. DOI: 10.1021/acs.jctc.8b01176
   for GFN1-xTB:
   * S. Grimme, C. Bannwarth, P. Shushkov, J. Chem. Theory Comput., 2017,
     13, 1989-2009. DOI: 10.1021/acs.jctc.7b00118
   for GFN0-xTB:
   * P. Pracht, E. Caldeweyher, S. Ehlert, S. Grimme, ChemRxiv, 2019, preprint.
     DOI: 10.26434/chemrxiv.8326202.v1
   for GFN-FF:
   * S. Spicher and S. Grimme, Angew. Chem. Int. Ed., 2020, 59, 15665-15673.
     DOI: 10.1002/anie.202004239
   
   for ALPB and GBSA implicit solvation:
   * S. Ehlert, M. Stahn, S. Spicher, S. Grimme, J. Chem. Theory Comput.,
     2021, 17, 4250-4261. DOI: 10.1021/acs.jctc.1c00471
   
   for DFT-D4:
   * E. Caldeweyher, C. Bannwarth and S. Grimme, J. Chem. Phys., 2017,
     147, 034112. DOI: 10.1063/1.4993215
   * E. Caldeweyher, S. Ehlert, A. Hansen, H. Neugebauer, S. Spicher,
     C. Bannwarth and S. Grimme, J. Chem. Phys., 2019, 150, 154122.
     DOI: 10.1063/1.5090222
   * E. Caldeweyher, J.-M. Mewes, S. Ehlert and S. Grimme, Phys. Chem. Chem. Phys.
     2020, 22, 8499-8512. DOI: 10.1039/D0CP00502A
   
   for sTDA-xTB:
   * S. Grimme and C. Bannwarth, J. Chem. Phys., 2016, 145, 054103.
     DOI: 10.1063/1.4959605
   
   in the mass-spec context:
   * V. Asgeirsson, C. Bauer and S. Grimme, Chem. Sci., 2017, 8, 4879.
     DOI: 10.1039/c7sc00601b
   * J. Koopman and S. Grimme, ACS Omega 2019, 4, 12, 15120-15133.
     DOI: 10.1021/acsomega.9b02011
   
   for metadynamics refer to:
   * S. Grimme, J. Chem. Theory Comput., 2019, 155, 2847-2862
     DOI: 10.1021/acs.jctc.9b00143
   
   for SPH calculations refer to:
   * S. Spicher and S. Grimme, J. Chem. Theory Comput., 2021, 17, 1701-1714
     DOI: 10.1021/acs.jctc.0c01306
   
   with help from (in alphabetical order)
   P. Atkinson, C. Bannwarth, F. Bohle, G. Brandenburg, E. Caldeweyher
   M. Checinski, S. Dohm, S. Ehlert, S. Ehrlich, I. Gerasimov, C. Hölzer
   A. Katbashev, J. Koopman, C. Lavigne, S. Lehtola, F. März, M. Müller,
   F. Musil, H. Neugebauer, J. Pisarek, C. Plett, P. Pracht, F. Pultar,
   J. Seibert, P. Shushkov, S. Spicher, M. Stahn, M. Steiner, T. Strunk,
   J. Stückrath, T. Rose, and J. Unsleber
   
 * started run on 2024/11/07 at 16:15:54.343     

           -------------------------------------------------
          |                Calculation Setup                |
           -------------------------------------------------

          program call               : xtb opt_radical_Base2CO2Me.mol --gfn2 --sp --chrg 1 --uhf 0
          coordinate file            : opt_radical_Base2CO2Me.mol
          omp threads                :                     8

   ID    Z sym.   atoms
    1    6 C      1-9, 11, 12, 14-21, 23-34, 36, 37, 39-46, 48-50, 54, 56,
                  60, 63, 66, 69, 71, 72, 74, 75
    2    7 N      10, 13, 35, 38, 70, 73
    3    8 O      22, 47, 52, 53, 55, 57-59, 61, 62, 64, 65, 67, 68
    4    5 B      51
    5    1 H      76-111

           -------------------------------------------------
          |                 G F N 2 - x T B                 |
           -------------------------------------------------

        Reference                      10.1021/acs.jctc.8b01176
      * Hamiltonian:
        H0-scaling (s, p, d)           1.850000    2.230000    2.230000
        zeta-weighting                 0.500000
      * Dispersion:
        s8                             2.700000
        a1                             0.520000
        a2                             5.000000
        s9                             5.000000
      * Repulsion:
        kExp                           1.500000    1.000000
        rExp                           1.000000
      * Coulomb:
        alpha                          2.000000
        third order                    shell-resolved
        anisotropic                    true
        a3                             3.000000
        a5                             4.000000
        cn-shift                       1.200000
        cn-exp                         4.000000
        max-rad                        5.000000

q/qsh data taken from xtbrestart
CAMM data taken from xtbrestart

          ...................................................
          :                      SETUP                      :
          :.................................................:
          :  # basis functions                 336          :
          :  # atomic orbitals                 336          :
          :  # shells                          186          :
          :  # electrons                       368          :
          :  max. iterations                   250          :
          :  Hamiltonian                  GFN2-xTB          :
          :  restarted?                       true          :
          :  GBSA solvation                  false          :
          :  PC potential                    false          :
          :  electronic temp.          300.0000000     K    :
          :  accuracy                    1.0000000          :
          :  -> integral cutoff          0.2500000E+02      :
          :  -> integral neglect         0.1000000E-07      :
          :  -> SCF convergence          0.1000000E-05 Eh   :
          :  -> wf. convergence          0.1000000E-03 e    :
          :  Broyden damping             0.4000000          :
          ...................................................

 iter      E             dE          RMSdq      gap      omega  full diag
   1   -212.0725719 -0.212073E+03  0.222E+00    0.05       0.0  T
   2   -211.4812645  0.591307E+00  0.184E+00    0.14       1.0  T
   3   -209.2810448  0.220022E+01  0.278E+00    0.29       1.0  T
   4   -210.7847405 -0.150370E+01  0.228E+00    0.54       1.0  T
   5   -211.7999795 -0.101524E+01  0.126E+00    0.12       1.0  T
   6   -211.9752801 -0.175301E+00  0.877E-01    0.06       1.0  T
   7   -211.8903053  0.849748E-01  0.101E+00    0.14       1.0  T
   8   -212.0394903 -0.149185E+00  0.654E-01    0.11       1.0  T
   9   -212.1158787 -0.763884E-01  0.392E-01    0.06       1.0  T
  10   -212.1124325  0.344625E-02  0.381E-01    0.06       1.0  T
  11   -212.1252893 -0.128568E-01  0.267E-01    0.06       1.0  T
  12   -212.1350563 -0.976699E-02  0.199E-01    0.03       1.0  T
  13   -212.1384376 -0.338137E-02  0.125E-01    0.03       1.0  T
  14   -212.1390156 -0.577948E-03  0.982E-02    0.03       1.0  T
  15   -212.1392861 -0.270523E-03  0.725E-02    0.02       1.0  T
  16   -212.1395713 -0.285165E-03  0.352E-02    0.03       1.0  T
  17   -212.1398072 -0.235908E-03  0.171E-02    0.03       1.0  T
  18   -212.1398226 -0.153956E-04  0.113E-02    0.03       1.0  T
  19   -212.1398419 -0.193128E-04  0.644E-03    0.03       1.5  T
  20   -212.1398452 -0.326314E-05  0.318E-03    0.03       3.0  T
  21   -212.1398475 -0.231592E-05  0.979E-04    0.03       9.7  T
  22   -212.1398476 -0.144903E-06  0.444E-04    0.03      21.4  T
  23   -212.1398476 -0.186226E-07  0.223E-04    0.03      42.6  T

   *** convergence criteria satisfied after 23 iterations ***

         #    Occupation            Energy/Eh            Energy/eV
      -------------------------------------------------------------
         1        2.0000           -0.8417670             -22.9056
       ...           ...                  ...                  ...
       178        2.0000           -0.4996377             -13.5958
       179        2.0000           -0.4978131             -13.5462
       180        2.0000           -0.4904785             -13.3466
       181        2.0000           -0.4853874             -13.2081
       182        1.9994           -0.4819042             -13.1133
       183        1.9983           -0.4808925             -13.0858
       184        1.3021           -0.4747938             -12.9198 (HOMO)
       185        0.7002           -0.4736135             -12.8877 (LUMO)
       186        0.0001           -0.4643714             -12.6362
       187                         -0.4214759             -11.4689
       188                         -0.4108735             -11.1804
       189                         -0.3887711             -10.5790
       ...                                ...                  ...
       336                          0.6075374              16.5319
      -------------------------------------------------------------
                  HL-Gap            0.0011803 Eh            0.0321 eV
             Fermi-level           -0.4742012 Eh          -12.9037 eV

 SCC (total)                   0 d,  0 h,  0 min,  1.579 sec
 SCC setup                      ...        0 min,  0.000 sec (  0.020%)
 Dispersion                     ...        0 min,  0.001 sec (  0.079%)
 classical contributions        ...        0 min,  0.000 sec (  0.017%)
 integral evaluation            ...        0 min,  0.006 sec (  0.391%)
 iterations                     ...        0 min,  1.531 sec ( 96.931%)
 molecular gradient             ...        0 min,  0.039 sec (  2.497%)
 printout                       ...        0 min,  0.001 sec (  0.064%)

         :::::::::::::::::::::::::::::::::::::::::::::::::::::
         ::                     SUMMARY                     ::
         :::::::::::::::::::::::::::::::::::::::::::::::::::::
         :: total energy            -209.454696171113 Eh    ::
         :: gradient norm              0.035494192225 Eh/a0 ::
         :: HOMO-LUMO gap              0.032116472242 eV    ::
         ::.................................................::
         :: SCC energy              -212.139847635933 Eh    ::
         :: -> isotropic ES            0.415465183880 Eh    ::
         :: -> anisotropic ES         -0.021360030122 Eh    ::
         :: -> anisotropic XC          0.066931484480 Eh    ::
         :: -> dispersion             -0.186802499332 Eh    ::
         :: repulsion energy           2.680937180181 Eh    ::
         :: add. restraining           0.000000000000 Eh    ::
         :: total charge               1.000000508842 e     ::
         :::::::::::::::::::::::::::::::::::::::::::::::::::::

           -------------------------------------------------
          |                Property Printout                |
           -------------------------------------------------

    * Orbital Energies and Occupations

         #    Occupation            Energy/Eh            Energy/eV
      -------------------------------------------------------------
         1        2.0000           -0.8417670             -22.9056
       ...           ...                  ...                  ...
       172        2.0000           -0.5158459             -14.0369
       173        2.0000           -0.5123687             -13.9423
       174        2.0000           -0.5110286             -13.9058
       175        2.0000           -0.5106278             -13.8949
       176        2.0000           -0.5066750             -13.7873
       177        2.0000           -0.5055255             -13.7561
       178        2.0000           -0.4996377             -13.5958
       179        2.0000           -0.4978131             -13.5462
       180        2.0000           -0.4904785             -13.3466
       181        2.0000           -0.4853874             -13.2081
       182        1.9994           -0.4819042             -13.1133
       183        1.9983           -0.4808925             -13.0858
       184        1.3021           -0.4747938             -12.9198 (HOMO)
       185        0.7002           -0.4736135             -12.8877 (LUMO)
       186        0.0001           -0.4643714             -12.6362
       187                         -0.4214759             -11.4689
       188                         -0.4108735             -11.1804
       189                         -0.3887711             -10.5790
       190                         -0.3871365             -10.5345
       191                         -0.3772759             -10.2662
       192                         -0.3752033             -10.2098
       193                         -0.3626669              -9.8687
       194                         -0.3604864              -9.8093
       195                         -0.3500624              -9.5257
       ...                                ...                  ...
       336                          0.6075374              16.5319
      -------------------------------------------------------------
                  HL-Gap            0.0011803 Eh            0.0321 eV
             Fermi-level           -0.4742012 Eh          -12.9037 eV

     #   Z          covCN         q      C6AA      α(0)
     1   6 C        2.960     0.008    27.836     8.654
     2   6 C        2.986     0.170    24.347     8.094
     3   6 C        2.985    -0.020    28.492     8.756
     4   6 C        2.962     0.104    25.703     8.316
     5   6 C        2.920    -0.030    28.738     8.791
     6   6 C        2.973    -0.008    28.213     8.713
     7   6 C        2.966     0.050    26.870     8.503
     8   6 C        2.997    -0.007    28.188     8.709
     9   6 C        2.956     0.102    25.739     8.321
    10   7 N        1.847    -0.184    25.802     7.528
    11   6 C        2.975     0.002    27.968     8.675
    12   6 C        2.957     0.106    25.648     8.307
    13   7 N        1.851    -0.187    25.867     7.538
    14   6 C        2.949     0.101    25.755     8.324
    15   6 C        2.922    -0.013    28.345     8.731
    16   6 C        2.963     0.001    28.010     8.681
    17   6 C        2.928    -0.009    28.239     8.715
    18   6 C        3.079     0.108    25.544     8.286
    19   6 C        2.971     0.031    27.296     8.570
    20   6 C        2.965    -0.001    28.058     8.688
    21   6 C        2.921    -0.024    28.612     8.772
    22   8 O        1.650    -0.374    20.364     6.092
    23   6 C        2.726     0.359    20.901     7.484
    24   6 C        2.732     0.361    20.879     7.481
    25   6 C        2.733     0.352    21.024     7.507
    26   6 C        2.960     0.015    27.687     8.631
    27   6 C        2.986     0.171    24.315     8.089
    28   6 C        2.985    -0.018    28.460     8.751
    29   6 C        2.962     0.105    25.670     8.310
    30   6 C        2.920    -0.026    28.644     8.777
    31   6 C        2.973    -0.001    28.042     8.686
    32   6 C        2.965     0.051    26.859     8.501
    33   6 C        2.997    -0.006    28.168     8.706
    34   6 C        2.956     0.102    25.737     8.321
    35   7 N        1.848    -0.183    25.783     7.526
    36   6 C        2.975     0.003    27.949     8.672
    37   6 C        2.957     0.107    25.630     8.304
    38   7 N        1.851    -0.177    25.638     7.504
    39   6 C        2.949     0.102    25.733     8.320
    40   6 C        2.926    -0.008    28.224     8.712
    41   6 C        2.963     0.001    27.993     8.678
    42   6 C        2.924    -0.010    28.278     8.721
    43   6 C        3.078     0.108    25.531     8.284
    44   6 C        2.969     0.030    27.335     8.576
    45   6 C        2.965    -0.001    28.046     8.687
    46   6 C        2.924    -0.020    28.507     8.756
    47   8 O        1.651    -0.372    20.324     6.086
    48   6 C        2.721     0.363    20.848     7.475
    49   6 C        2.727     0.361    20.877     7.480
    50   6 C        2.733     0.352    21.020     7.506
    51   5 B        3.748     0.532    15.058     6.264
    52   8 O        0.856    -0.381    21.305     6.189
    53   8 O        1.705    -0.248    18.106     5.745
    54   6 C        3.659     0.026    20.422     6.485
    55   8 O        1.704    -0.250    18.149     5.752
    56   6 C        3.659     0.026    20.422     6.485
    57   8 O        0.856    -0.395    21.574     6.227
    58   8 O        0.856    -0.376    21.209     6.174
    59   8 O        1.705    -0.274    18.553     5.815
    60   6 C        3.646     0.023    20.515     6.509
    61   8 O        0.856    -0.381    21.311     6.189
    62   8 O        1.705    -0.246    18.078     5.741
    63   6 C        3.659     0.025    20.428     6.486
    64   8 O        0.856    -0.389    21.466     6.212
    65   8 O        1.704    -0.258    18.267     5.771
    66   6 C        3.653     0.022    20.506     6.503
    67   8 O        0.856    -0.386    21.405     6.203
    68   8 O        1.705    -0.267    18.432     5.797
    69   6 C        3.652     0.023    20.501     6.503
    70   7 N        2.669    -0.251    26.531     7.650
    71   6 C        3.753    -0.109    22.650     6.787
    72   6 C        3.747     0.012    20.444     6.449
    73   7 N        2.669    -0.248    26.462     7.640
    74   6 C        3.753    -0.109    22.652     6.787
    75   6 C        3.747     0.011    20.451     6.450
    76   1 H        0.925     0.072     2.065     2.247
    77   1 H        0.924     0.087     1.911     2.162
    78   1 H        0.924     0.071     2.076     2.253
    79   1 H        0.924     0.079     1.992     2.207
    80   1 H        0.924     0.075     2.030     2.228
    81   1 H        0.925     0.082     1.956     2.187
    82   1 H        0.925     0.081     1.970     2.195
    83   1 H        0.924     0.075     2.029     2.228
    84   1 H        0.924     0.074     2.039     2.233
    85   1 H        0.925     0.063     2.169     2.303
    86   1 H        0.925     0.048     2.344     2.394
    87   1 H        0.925     0.051     2.310     2.377
    88   1 H        0.924     0.036     2.499     2.472
    89   1 H        0.925     0.056     2.242     2.341
    90   1 H        0.925     0.064     2.156     2.296
    91   1 H        0.925     0.049     2.338     2.391
    92   1 H        0.925     0.050     2.317     2.380
    93   1 H        0.924     0.038     2.477     2.461
    94   1 H        0.925     0.057     2.236     2.338
    95   1 H        0.925     0.078     2.000     2.212
    96   1 H        0.924     0.083     1.950     2.184
    97   1 H        0.924     0.086     1.923     2.168
    98   1 H        0.925     0.082     1.961     2.190
    99   1 H        0.924     0.075     2.034     2.231
   100   1 H        0.924     0.075     2.029     2.228
   101   1 H        0.924     0.086     1.914     2.164
   102   1 H        0.925     0.075     2.035     2.231
   103   1 H        0.924     0.083     1.953     2.185
   104   1 H        0.926     0.117     1.638     2.001
   105   1 H        0.926     0.111     1.686     2.030
   106   1 H        0.926     0.112     1.679     2.026
   107   1 H        0.926     0.115     1.658     2.013
   108   1 H        0.926     0.105     1.742     2.064
   109   1 H        0.926     0.107     1.722     2.052
   110   1 H        0.926     0.117     1.636     2.000
   111   1 H        0.926     0.111     1.688     2.032

 Mol. C6AA /au·bohr⁶  :     174919.465239
 Mol. C8AA /au·bohr⁸  :    4328709.230631
 Mol. α(0) /au        :        650.811115


Wiberg/Mayer (AO) data.
largest (>0.10) Wiberg bond orders for each atom

 ---------------------------------------------------------------------------
     #   Z sym  total        # sym  WBO       # sym  WBO       # sym  WBO
 ---------------------------------------------------------------------------
     1   6 C    3.898 --     2 C    1.287     6 C    1.247    44 C    1.104
     2   6 C    3.916 --     3 C    1.310     1 C    1.287    22 O    1.096
     3   6 C    3.935 --     2 C    1.310     4 C    1.185     7 C    1.180
     4   6 C    3.968 --    10 N    1.395     5 C    1.211     3 C    1.185
     5   6 C    3.905 --     6 C    1.524     4 C    1.211   111 H    0.954
     6   6 C    3.966 --     5 C    1.524     1 C    1.247    23 C    0.976
     7   6 C    3.970 --     8 C    1.337    11 C    1.205     3 C    1.180
     8   6 C    3.955 --     7 C    1.337    14 C    1.183     9 C    1.176
     9   6 C    3.967 --    10 N    1.332    17 C    1.284     8 C    1.176
    10   7 N    2.945 --     4 C    1.395     9 C    1.332
    11   6 C    3.905 --    18 C    1.267     7 C    1.205    12 C    1.176
    12   6 C    3.958 --    13 N    1.392    21 C    1.208    11 C    1.176
    13   7 N    2.967 --    12 C    1.392    14 C    1.331
    14   6 C    3.964 --    13 N    1.331    15 C    1.274     8 C    1.183
    15   6 C    3.816 --    16 C    1.409    14 C    1.274   109 H    0.956
    16   6 C    3.975 --    15 C    1.409    17 C    1.396    25 C    0.980
    17   6 C    3.810 --    16 C    1.396     9 C    1.284   110 H    0.953
    18   6 C    3.920 --    11 C    1.267    19 C    1.267    70 N    1.130
    19   6 C    3.856 --    20 C    1.268    18 C    1.267    26 C    1.101
    20   6 C    3.967 --    21 C    1.509    19 C    1.268    24 C    0.973
    21   6 C    3.863 --    20 C    1.509    12 C    1.208   108 H    0.955
    22   8 O    2.173 --     2 C    1.096    51 B    0.838
    23   6 C    3.926 --    67 O    1.741    68 O    1.135     6 C    0.976
    24   6 C    3.927 --    57 O    1.737    55 O    1.145    20 C    0.973
    25   6 C    3.931 --    52 O    1.745    53 O    1.142    16 C    0.980
    26   6 C    3.893 --    27 C    1.286    31 C    1.248    19 C    1.101
    27   6 C    3.916 --    28 C    1.311    26 C    1.286    47 O    1.096
    28   6 C    3.937 --    27 C    1.311    29 C    1.184    32 C    1.181
    29   6 C    3.969 --    35 N    1.396    30 C    1.211    28 C    1.184
    30   6 C    3.901 --    31 C    1.521    29 C    1.211   107 H    0.953
    31   6 C    3.967 --    30 C    1.521    26 C    1.248    48 C    0.980
    32   6 C    3.971 --    33 C    1.336    36 C    1.206    28 C    1.181
    33   6 C    3.955 --    32 C    1.336    39 C    1.182    34 C    1.178
    34   6 C    3.969 --    35 N    1.332    42 C    1.282    33 C    1.178
    35   7 N    2.946 --    29 C    1.396    34 C    1.332
    36   6 C    3.904 --    43 C    1.268    32 C    1.206    37 C    1.173
    37   6 C    3.957 --    38 N    1.394    46 C    1.206    36 C    1.173
    38   7 N    2.978 --    37 C    1.394    39 C    1.333
    39   6 C    3.963 --    38 N    1.333    40 C    1.273    33 C    1.182
    40   6 C    3.813 --    41 C    1.407    39 C    1.273   104 H    0.953
    41   6 C    3.975 --    40 C    1.407    42 C    1.399    50 C    0.979
    42   6 C    3.816 --    41 C    1.399    34 C    1.282   105 H    0.955
    43   6 C    3.920 --    36 C    1.268    44 C    1.259    73 N    1.135
    44   6 C    3.857 --    45 C    1.272    43 C    1.259     1 C    1.104
    45   6 C    3.968 --    46 C    1.510    44 C    1.272    49 C    0.966
    46   6 C    3.858 --    45 C    1.510    37 C    1.206   106 H    0.953
    47   8 O    2.175 --    27 C    1.096    51 B    0.841
    48   6 C    3.925 --    58 O    1.756    59 O    1.118    31 C    0.980
    49   6 C    3.927 --    64 O    1.737    65 O    1.149    45 C    0.966
    50   6 C    3.931 --    61 O    1.744    62 O    1.144    41 C    0.979
    51   5 B    3.329 --    47 O    0.841    22 O    0.838    70 N    0.707
                            73 N    0.704
    52   8 O    2.053 --    25 C    1.745    53 O    0.185
    53   8 O    2.324 --    25 C    1.142    54 C    0.950    52 O    0.185
    54   6 C    3.911 --    82 H    0.980    84 H    0.974    83 H    0.974
                            53 O    0.950
    55   8 O    2.322 --    24 C    1.145    56 C    0.945    57 O    0.182
    56   6 C    3.907 --    81 H    0.979    80 H    0.974    79 H    0.974
                            55 O    0.945
    57   8 O    2.047 --    24 C    1.737    55 O    0.182
    58   8 O    2.066 --    48 C    1.756    59 O    0.179
    59   8 O    2.299 --    48 C    1.118    60 C    0.946    58 O    0.179
    60   6 C    3.907 --    76 H    0.977    78 H    0.973    77 H    0.972
                            59 O    0.946
    61   8 O    2.053 --    50 C    1.744    62 O    0.186
    62   8 O    2.327 --    50 C    1.144    63 C    0.950    61 O    0.186
    63   6 C    3.910 --    98 H    0.980    99 H    0.974   100 H    0.974
                            62 O    0.950
    64   8 O    2.048 --    49 C    1.737    65 O    0.184
    65   8 O    2.325 --    49 C    1.149    66 C    0.940    64 O    0.184
    66   6 C    3.900 --    95 H    0.979    96 H    0.974    97 H    0.967
                            65 O    0.940
    67   8 O    2.052 --    23 C    1.741    68 O    0.181
    68   8 O    2.312 --    23 C    1.135    69 C    0.941    67 O    0.181
    69   6 C    3.902 --   102 H    0.980   103 H    0.974   101 H    0.967
                            68 O    0.941
    70   7 N    3.086 --    18 C    1.130    72 C    0.991    51 B    0.707
    71   6 C    3.975 --    72 C    0.995    86 H    0.986    85 H    0.980
                            87 H    0.980
    72   6 C    3.960 --    71 C    0.995    70 N    0.991    88 H    0.959
                            89 H    0.957
    73   7 N    3.092 --    43 C    1.135    75 C    0.991    51 B    0.704
    74   6 C    3.974 --    75 C    0.994    91 H    0.986    92 H    0.980
                            90 H    0.980
    75   6 C    3.959 --    74 C    0.994    73 N    0.991    93 H    0.960
                            94 H    0.957
    76   1 H    0.994 --    60 C    0.977
    77   1 H    0.992 --    60 C    0.972
    78   1 H    0.993 --    60 C    0.973
    79   1 H    0.993 --    56 C    0.974
    80   1 H    0.994 --    56 C    0.974
    81   1 H    0.993 --    56 C    0.979
    82   1 H    0.993 --    54 C    0.980
    83   1 H    0.994 --    54 C    0.974
    84   1 H    0.994 --    54 C    0.974
    85   1 H    0.994 --    71 C    0.980
    86   1 H    0.997 --    71 C    0.986
    87   1 H    0.997 --    71 C    0.980
    88   1 H    0.995 --    72 C    0.959
    89   1 H    0.990 --    72 C    0.957
    90   1 H    0.994 --    74 C    0.980
    91   1 H    0.997 --    74 C    0.986
    92   1 H    0.997 --    74 C    0.980
    93   1 H    0.996 --    75 C    0.960
    94   1 H    0.990 --    75 C    0.957
    95   1 H    0.994 --    66 C    0.979
    96   1 H    0.993 --    66 C    0.974
    97   1 H    0.992 --    66 C    0.967
    98   1 H    0.993 --    63 C    0.980
    99   1 H    0.994 --    63 C    0.974
   100   1 H    0.994 --    63 C    0.974
   101   1 H    0.992 --    69 C    0.967
   102   1 H    0.994 --    69 C    0.980
   103   1 H    0.993 --    69 C    0.974
   104   1 H    0.985 --    40 C    0.953
   105   1 H    0.987 --    42 C    0.955
   106   1 H    0.984 --    46 C    0.953
   107   1 H    0.984 --    30 C    0.953
   108   1 H    0.985 --    21 C    0.955
   109   1 H    0.987 --    15 C    0.956
   110   1 H    0.985 --    17 C    0.953
   111   1 H    0.985 --     5 C    0.954
 ---------------------------------------------------------------------------

Topologies differ in total number of bonds
Writing corrected topology to xtbtopo.mol

molecular dipole:
                 x           y           z       tot (Debye)
 q only:       -0.279      -0.915      -0.322
   full:       -0.156      -1.137      -0.094       2.926
molecular quadrupole (traceless):
                xx          xy          yy          xz          yz          zz
 q only:       82.242      -1.562     -32.689      57.244      -1.199     -49.553
  q+dip:       71.863      -6.544     -34.824      53.809      -3.559     -37.039
   full:       64.882      -7.279     -41.908      49.894      -4.461     -22.974
Note: The following floating-point exceptions are signalling: IEEE_UNDERFLOW_FLAG
normal termination of xtb


           -------------------------------------------------
          | TOTAL ENERGY             -209.454696171113 Eh   |
          | GRADIENT NORM               0.035494192225 Eh/α |
          | HOMO-LUMO GAP               0.032116472242 eV   |
           -------------------------------------------------
########################################################################
[WARNING] Runtime exception occurred
-2- restart_readRestart: Multiplicity missmatch in restart file.
-1- restart_readRestart: Number of electron missmatch in restart file.
########################################################################

------------------------------------------------------------------------
 * finished run on 2024/11/07 at 16:15:55.938     
------------------------------------------------------------------------
 total:
 * wall-time:     0 d,  0 h,  0 min,  1.594 sec
 *  cpu-time:     0 d,  0 h,  0 min,  5.459 sec
 * ratio c/w:     3.424 speedup
 SCF:
 * wall-time:     0 d,  0 h,  0 min,  1.580 sec
 *  cpu-time:     0 d,  0 h,  0 min,  5.425 sec
 * ratio c/w:     3.434 speedup

