      -----------------------------------------------------------      
     |                   =====================                   |     
     |                           x T B                           |     
     |                   =====================                   |     
     |                         S. Grimme                         |     
     |          Mulliken Center for Theoretical Chemistry        |     
     |                    University of Bonn                     |     
      -----------------------------------------------------------      

   * xtb version 6.6.1 (8d0f1dd) compiled by 'runner@Mac-1690902418499.local' on 2023-08-01

   xtb is free software: you can redistribute it and/or modify it under
   the terms of the GNU Lesser General Public License as published by
   the Free Software Foundation, either version 3 of the License, or
   (at your option) any later version.
   
   xtb is distributed in the hope that it will be useful,
   but WITHOUT ANY WARRANTY; without even the implied warranty of
   MERCHANTABILITY or FITNESS FOR A PARTICULAR PURPOSE.  See the
   GNU Lesser General Public License for more details.
   
   Cite this work as:
   * C. Bannwarth, E. Caldeweyher, S. Ehlert, A. Hansen, P. Pracht,
     J. Seibert, S. Spicher, S. Grimme, WIREs Comput. Mol. Sci., 2020, 11,
     e01493. DOI: 10.1002/wcms.1493
   
   for GFN2-xTB:
   * C. Bannwarth, S. Ehlert and S. Grimme., J. Chem. Theory Comput., 2019,
     15, 1652-1671. DOI: 10.1021/acs.jctc.8b01176
   for GFN1-xTB:
   * S. Grimme, C. Bannwarth, P. Shushkov, J. Chem. Theory Comput., 2017,
     13, 1989-2009. DOI: 10.1021/acs.jctc.7b00118
   for GFN0-xTB:
   * P. Pracht, E. Caldeweyher, S. Ehlert, S. Grimme, ChemRxiv, 2019, preprint.
     DOI: 10.26434/chemrxiv.8326202.v1
   for GFN-FF:
   * S. Spicher and S. Grimme, Angew. Chem. Int. Ed., 2020, 59, 15665-15673.
     DOI: 10.1002/anie.202004239
   
   for ALPB and GBSA implicit solvation:
   * S. Ehlert, M. Stahn, S. Spicher, S. Grimme, J. Chem. Theory Comput.,
     2021, 17, 4250-4261. DOI: 10.1021/acs.jctc.1c00471
   
   for DFT-D4:
   * E. Caldeweyher, C. Bannwarth and S. Grimme, J. Chem. Phys., 2017,
     147, 034112. DOI: 10.1063/1.4993215
   * E. Caldeweyher, S. Ehlert, A. Hansen, H. Neugebauer, S. Spicher,
     C. Bannwarth and S. Grimme, J. Chem. Phys., 2019, 150, 154122.
     DOI: 10.1063/1.5090222
   * E. Caldeweyher, J.-M. Mewes, S. Ehlert and S. Grimme, Phys. Chem. Chem. Phys.
     2020, 22, 8499-8512. DOI: 10.1039/D0CP00502A
   
   for sTDA-xTB:
   * S. Grimme and C. Bannwarth, J. Chem. Phys., 2016, 145, 054103.
     DOI: 10.1063/1.4959605
   
   in the mass-spec context:
   * V. Asgeirsson, C. Bauer and S. Grimme, Chem. Sci., 2017, 8, 4879.
     DOI: 10.1039/c7sc00601b
   * J. Koopman and S. Grimme, ACS Omega 2019, 4, 12, 15120-15133.
     DOI: 10.1021/acsomega.9b02011
   
   for metadynamics refer to:
   * S. Grimme, J. Chem. Theory Comput., 2019, 155, 2847-2862
     DOI: 10.1021/acs.jctc.9b00143
   
   for SPH calculations refer to:
   * S. Spicher and S. Grimme, J. Chem. Theory Comput., 2021, 17, 1701-1714
     DOI: 10.1021/acs.jctc.0c01306
   
   with help from (in alphabetical order)
   P. Atkinson, C. Bannwarth, F. Bohle, G. Brandenburg, E. Caldeweyher
   M. Checinski, S. Dohm, S. Ehlert, S. Ehrlich, I. Gerasimov, C. Hölzer
   A. Katbashev, J. Koopman, C. Lavigne, S. Lehtola, F. März, M. Müller,
   F. Musil, H. Neugebauer, J. Pisarek, C. Plett, P. Pracht, F. Pultar,
   J. Seibert, P. Shushkov, S. Spicher, M. Stahn, M. Steiner, T. Strunk,
   J. Stückrath, T. Rose, and J. Unsleber
   
 * started run on 2024/10/31 at 17:01:18.852     

           -------------------------------------------------
          |                Calculation Setup                |
           -------------------------------------------------

          program call               : xtb stacked_dimer_Base2CO2Me.mol --opt --gfn2 --chrg 1 --uhf 0 --tight
          coordinate file            : stacked_dimer_Base2CO2Me.mol
          omp threads                :                     8

   ID    Z sym.   atoms
    1    6 C      1-9, 11, 12, 14-21, 23-34, 36, 37, 39-46, 48-50, 54, 56,
                  60, 63, 66, 69, 71, 72, 74, 75, 112-120, 122, 123, 125-132,
                  134-145, 147, 148, 150-157, 159-161, 165, 167, 171, 174,
                  177, 180, 182, 183, 185, 186
    2    7 N      10, 13, 35, 38, 70, 73, 121, 124, 146, 149, 181, 184
    3    8 O      22, 47, 52, 53, 55, 57-59, 61, 62, 64, 65, 67, 68, 133,
                  158, 163, 164, 166, 168-170, 172, 173, 175, 176, 178, 179
    4    5 B      51, 162
    5    1 H      76-111, 187-222

molecular fragmentation (1/2 indicates fragments):
111111111111111111111111111111111111111111111111111111111111111111111111
111111111111111111111111111111111111111222222222222222222222222222222222
222222222222222222222222222222222222222222222222222222222222222222222222
222222
# atoms in fragment 1/2:   111   111
 fragment masses (1/2) :     1003.71     1003.71
CMA distance (Bohr)    :  13.228
constraining FC (au)   :  0.0500
########################################################################
[WARNING] Please study the warnings concerning your input carefully
-1- prog_main_parseArguments: Unknown option '--tight' provided
########################################################################

           -------------------------------------------------
          |                 G F N 2 - x T B                 |
           -------------------------------------------------

        Reference                      10.1021/acs.jctc.8b01176
      * Hamiltonian:
        H0-scaling (s, p, d)           1.850000    2.230000    2.230000
        zeta-weighting                 0.500000
      * Dispersion:
        s8                             2.700000
        a1                             0.520000
        a2                             5.000000
        s9                             5.000000
      * Repulsion:
        kExp                           1.500000    1.000000
        rExp                           1.000000
      * Coulomb:
        alpha                          2.000000
        third order                    shell-resolved
        anisotropic                    true
        a3                             3.000000
        a5                             4.000000
        cn-shift                       1.200000
        cn-exp                         4.000000
        max-rad                        5.000000

q/qsh data taken from xtbrestart
CAMM data taken from xtbrestart

          ...................................................
          :                      SETUP                      :
          :.................................................:
          :  # basis functions                 672          :
          :  # atomic orbitals                 672          :
          :  # shells                          372          :
          :  # electrons                       737          :
          :  max. iterations                   250          :
          :  Hamiltonian                  GFN2-xTB          :
          :  restarted?                       true          :
          :  GBSA solvation                  false          :
          :  PC potential                    false          :
          :  electronic temp.          300.0000000     K    :
          :  accuracy                    1.0000000          :
          :  -> integral cutoff          0.2500000E+02      :
          :  -> integral neglect         0.1000000E-07      :
          :  -> SCF convergence          0.1000000E-05 Eh   :
          :  -> wf. convergence          0.1000000E-03 e    :
          :  Broyden damping             0.4000000          :
          ...................................................

 iter      E             dE          RMSdq      gap      omega  full diag
   1   -424.4789795 -0.424479E+03  0.198E+00    0.07       0.0  T
   2   -420.7358141  0.374317E+01  0.244E+00    0.11       1.0  T
   3   -422.1128746 -0.137706E+01  0.193E+00    0.07       1.0  T
   4   -421.3177619  0.795113E+00  0.240E+00    0.09       1.0  T
   5   -423.8651993 -0.254744E+01  0.130E+00    0.33       1.0  T
   6   -424.1608614 -0.295662E+00  0.102E+00    0.16       1.0  T
   7   -422.9769533  0.118391E+01  0.139E+00    0.10       1.0  T
   8   -424.2450021 -0.126805E+01  0.843E-01    0.16       1.0  T
   9   -424.6099432 -0.364941E+00  0.589E-01    0.06       1.0  T
  10   -424.5125216  0.974216E-01  0.616E-01    0.08       1.0  T
  11   -424.5909269 -0.784053E-01  0.537E-01    0.06       1.0  T
  12   -424.6284246 -0.374978E-01  0.457E-01    0.03       1.0  T
  13   -424.6622041 -0.337795E-01  0.366E-01    0.01       1.0  T
  14   -424.6578461  0.435799E-02  0.352E-01    0.04       1.0  T
  15   -424.6760055 -0.181594E-01  0.294E-01    0.03       1.0  T
  16   -424.6930935 -0.170880E-01  0.244E-01    0.02       1.0  T
  17   -424.6960198 -0.292625E-02  0.199E-01    0.01       1.0  T
  18   -424.7010274 -0.500765E-02  0.179E-01    0.00       1.0  T
  19   -424.6827070  0.183204E-01  0.184E-01    0.03       1.0  T
  20   -424.7014483 -0.187413E-01  0.101E-01    0.01       1.0  T
  21   -424.7056095 -0.416124E-02  0.679E-02    0.02       1.0  T
  22   -424.7084196 -0.281005E-02  0.251E-02    0.01       1.0  T
  23   -424.7086127 -0.193094E-03  0.237E-02    0.01       1.0  T
  24   -424.7078352  0.777471E-03  0.310E-02    0.00       1.0  T
  25   -424.7087569 -0.921730E-03  0.939E-03    0.01       1.0  T
  26   -424.7087727 -0.158028E-04  0.639E-03    0.01       1.1  T
  27   -424.7087711  0.165473E-05  0.586E-03    0.01       1.1  T
  28   -424.7087694  0.170749E-05  0.480E-03    0.01       1.4  T
  29   -424.7087836 -0.142488E-04  0.170E-03    0.01       4.0  T
  30   -424.7087845 -0.868482E-06  0.997E-04    0.01       6.7  T
  31   -424.7087849 -0.431417E-06  0.460E-04    0.01      14.6  T

   *** convergence criteria satisfied after 31 iterations ***

         #    Occupation            Energy/Eh            Energy/eV
      -------------------------------------------------------------
         1        2.0000           -0.8321494             -22.6439
       ...           ...                  ...                  ...
       363        1.9996           -0.4592325             -12.4964
       364        1.9995           -0.4589808             -12.4895
       365        1.9988           -0.4581310             -12.4664
       366        1.9975           -0.4574039             -12.4466
       367        1.6375           -0.4524247             -12.3111
       368        1.5620           -0.4521866             -12.3046
       369        0.9713           -0.4508072             -12.2671 (HOMO)
       370        0.8334           -0.4505141             -12.2591 (LUMO)
       371        0.0002           -0.4418491             -12.0233
       372        0.0001           -0.4416389             -12.0176
       373                         -0.3999486             -10.8832
       374                         -0.3990418             -10.8585
       ...                                ...                  ...
       672                          0.6243389              16.9891
      -------------------------------------------------------------
                  HL-Gap            0.0002931 Eh            0.0080 eV
             Fermi-level           -0.4508676 Eh          -12.2687 eV

 SCC (total)                   0 d,  0 h,  0 min,  7.453 sec
 SCC setup                      ...        0 min,  0.002 sec (  0.020%)
 Dispersion                     ...        0 min,  0.006 sec (  0.084%)
 classical contributions        ...        0 min,  0.001 sec (  0.019%)
 integral evaluation            ...        0 min,  0.031 sec (  0.411%)
 iterations                     ...        0 min,  7.151 sec ( 95.945%)
 molecular gradient             ...        0 min,  0.226 sec (  3.030%)
 printout                       ...        0 min,  0.037 sec (  0.490%)

         :::::::::::::::::::::::::::::::::::::::::::::::::::::
         ::                     SUMMARY                     ::
         :::::::::::::::::::::::::::::::::::::::::::::::::::::
         :: total energy            -419.318008838877 Eh    ::
         :: gradient norm              0.053040775029 Eh/a0 ::
         :: HOMO-LUMO gap              0.007975228408 eV    ::
         ::.................................................::
         :: SCC energy              -424.708784912283 Eh    ::
         :: -> isotropic ES            0.788137752397 Eh    ::
         :: -> anisotropic ES         -0.029672283921 Eh    ::
         :: -> anisotropic XC          0.130481793591 Eh    ::
         :: -> dispersion             -0.392293833248 Eh    ::
         :: repulsion energy           5.362511157448 Eh    ::
         :: add. restraining           0.000000000000 Eh    ::
         :: total charge               1.000000118046 e     ::
         :::::::::::::::::::::::::::::::::::::::::::::::::::::

      ----------------------------------------------------------- 
     |                   =====================                   |
     |                        A N C O P T                        |
     |                   =====================                   |
     |               Approximate Normal Coordinate               |
     |                Rational Function Optimizer                |
      ----------------------------------------------------------- 

          ...................................................
          :                      SETUP                      :
          :.................................................:
          :   optimization level            normal          :
          :   max. optcycles                   666          :
          :   ANC micro-cycles                  20          :
          :   degrees of freedom               660          :
          :.................................................:
          :   RF solver                   davidson          :
          :   write xtbopt.log                true          :
          :   linear?                        false          :
          :   energy convergence         0.5000000E-05 Eh   :
          :   grad. convergence          0.1000000E-02 Eh/α :
          :   maxmium RF displ.          1.0000000          :
          :   Hlow (freq-cutoff)         0.1000000E-01      :
          :   Hmax (freq-cutoff)         5.0000000          :
          :   S6 in model hess.         20.0000000          :
          ...................................................

generating ANC from model Hessian ...
Using Lindh-Hessian (1995)
 Shifting diagonal of input Hessian by    1.0016000930404816E-002
 Lowest  eigenvalues of input Hessian
    0.010000    0.000000    0.000000    0.000000    0.000000    0.000000
    0.000000    0.010025    0.010058    0.010087    0.010102    0.010112
    0.010172    0.010212    0.010229    0.010289    0.010366    0.010436
 Highest eigenvalues
    2.395475    2.395503    2.397468    2.397473    2.398639    2.398641


........................................................................
.............................. CYCLE    1 ..............................
........................................................................

 iter      E             dE          RMSdq      gap      omega  full diag
   1   -424.7087850 -0.424709E+03  0.259E-04    0.01       0.0  T
   2   -424.7087671  0.178559E-04  0.408E-03    0.01       1.6  T
   3   -424.7087846 -0.175186E-04  0.682E-04    0.01       9.8  T
   4   -424.7087850 -0.364303E-06  0.206E-04    0.01      32.5  T
   5   -424.7087850 -0.245853E-08  0.168E-04    0.01      39.9  T
     SCC iter.                  ...        0 min,  1.167 sec
     gradient                   ...        0 min,  0.229 sec
 * total energy  :  -419.3180089 Eh     change       -0.7913388E-07 Eh
   gradient norm :     0.0530445 Eh/α   predicted     0.0000000E+00 (-100.00%)
   displ. norm   :     0.7414159 α      lambda       -0.2649687E-01
   maximum displ.:     0.2520781 α      in ANC's #21, #30, #32, ...

........................................................................
.............................. CYCLE    2 ..............................
........................................................................

 iter      E             dE          RMSdq      gap      omega  full diag
   1   -424.7355800 -0.424736E+03  0.109E-01    0.02       0.0  T
   2   -424.5486646  0.186915E+00  0.427E-01    0.07       1.0  T
   3   -424.6411878 -0.925232E-01  0.318E-01    0.02       1.0  T
   4   -424.7302229 -0.890351E-01  0.129E-01    0.01       1.0  T
   5   -424.7269299  0.329300E-02  0.157E-01    0.00       1.0  T
   6   -424.7307278 -0.379793E-02  0.105E-01    0.01       1.0  T
   7   -424.7363769 -0.564902E-02  0.469E-02    0.00       1.0  T
   8   -424.7354635  0.913403E-03  0.573E-02    0.01       1.0  T
   9   -424.7369784 -0.151491E-02  0.331E-02    0.01       1.0  T
  10   -424.7375048 -0.526392E-03  0.186E-02    0.01       1.0  T
  11   -424.7375400 -0.352109E-04  0.126E-02    0.00       1.0  T
  12   -424.7376186 -0.786154E-04  0.796E-03    0.01       1.0  T
  13   -424.7376334 -0.147848E-04  0.624E-03    0.01       1.1  T
  14   -424.7376516 -0.181920E-04  0.328E-03    0.01       2.0  T
  15   -424.7376586 -0.699963E-05  0.118E-03    0.01       5.7  T
  16   -424.7376591 -0.547243E-06  0.633E-04    0.01      10.6  T
  17   -424.7376589  0.181935E-06  0.628E-04    0.01      10.7  T
     SCC iter.                  ...        0 min,  4.355 sec
     gradient                   ...        0 min,  0.225 sec
 * total energy  :  -419.3350675 Eh     change       -0.1705863E-01 Eh
   gradient norm :     0.0237532 Eh/α   predicted    -0.2053135E-01 (  20.36%)
   displ. norm   :     0.5328539 α      lambda       -0.7506937E-02
   maximum displ.:     0.1311051 α      in ANC's #42, #12, #33, ...

........................................................................
.............................. CYCLE    3 ..............................
........................................................................

 iter      E             dE          RMSdq      gap      omega  full diag
   1   -424.7422585 -0.424742E+03  0.696E-02    0.02       0.0  T
   2   -424.6254309  0.116828E+00  0.337E-01    0.07       1.0  T
   3   -424.6963018 -0.708709E-01  0.215E-01    0.04       1.0  T
   4   -424.7369111 -0.406093E-01  0.105E-01    0.00       1.0  T
   5   -424.7379368 -0.102571E-02  0.108E-01    0.01       1.0  T
   6   -424.7402217 -0.228487E-02  0.725E-02    0.00       1.0  T
   7   -424.7415698 -0.134808E-02  0.472E-02    0.01       1.0  T
   8   -424.7426991 -0.112931E-02  0.227E-02    0.01       1.0  T
   9   -424.7427616 -0.625075E-04  0.210E-02    0.01       1.0  T
  10   -424.7429571 -0.195543E-03  0.101E-02    0.01       1.0  T
  11   -424.7429796 -0.224598E-04  0.621E-03    0.01       1.1  T
  12   -424.7429846 -0.499444E-05  0.519E-03    0.01       1.3  T
  13   -424.7429873 -0.275788E-05  0.396E-03    0.01       1.7  T
  14   -424.7429993 -0.119418E-04  0.137E-03    0.01       4.9  T
  15   -424.7430002 -0.940932E-06  0.733E-04    0.01       9.2  T
  16   -424.7430002 -0.224960E-07  0.550E-04    0.01      12.2  T
     SCC iter.                  ...        0 min,  2.780 sec
     gradient                   ...        0 min,  0.204 sec
 * total energy  :  -419.3409952 Eh     change       -0.5927624E-02 Eh
   gradient norm :     0.0137226 Eh/α   predicted    -0.4819204E-02 ( -18.70%)
   displ. norm   :     0.6268325 α      lambda       -0.5357504E-02
   maximum displ.:     0.1742566 α      in ANC's #12, #42, #33, ...

........................................................................
.............................. CYCLE    4 ..............................
........................................................................

 iter      E             dE          RMSdq      gap      omega  full diag
   1   -424.7414333 -0.424741E+03  0.733E-02    0.02       0.0  T
   2   -424.6333848  0.108048E+00  0.325E-01    0.08       1.0  T
   3   -424.6959391 -0.625542E-01  0.212E-01    0.06       1.0  T
   4   -424.7342299 -0.382909E-01  0.117E-01    0.01       1.0  T
   5   -424.7363024 -0.207245E-02  0.116E-01    0.01       1.0  T
   6   -424.7392122 -0.290979E-02  0.755E-02    0.01       1.0  T
   7   -424.7401854 -0.973268E-03  0.548E-02    0.01       1.0  T
   8   -424.7416353 -0.144982E-02  0.300E-02    0.01       1.0  T
   9   -424.7420127 -0.377445E-03  0.171E-02    0.01       1.0  T
  10   -424.7420798 -0.670526E-04  0.120E-02    0.01       1.0  T
  11   -424.7421193 -0.395524E-04  0.750E-03    0.01       1.0  T
  12   -424.7421186  0.699930E-06  0.648E-03    0.01       1.0  T
  13   -424.7421269 -0.828791E-05  0.370E-03    0.01       1.8  T
  14   -424.7421367 -0.981103E-05  0.107E-03    0.01       6.2  T
  15   -424.7421371 -0.403985E-06  0.679E-04    0.01       9.9  T
  16   -424.7421373 -0.168224E-06  0.320E-04    0.01      21.0  T
     SCC iter.                  ...        0 min,  2.763 sec
     gradient                   ...        0 min,  0.218 sec
 * total energy  :  -419.3451027 Eh     change       -0.4107487E-02 Eh
   gradient norm :     0.0098007 Eh/α   predicted    -0.3731286E-02 (  -9.16%)
   displ. norm   :     0.6126780 α      lambda       -0.3107629E-02
   maximum displ.:     0.1996069 α      in ANC's #12, #7, #64, ...

........................................................................
.............................. CYCLE    5 ..............................
........................................................................

 iter      E             dE          RMSdq      gap      omega  full diag
   1   -424.7397309 -0.424740E+03  0.613E-02    0.02       0.0  T
   2   -424.7061987  0.335322E-01  0.191E-01    0.05       1.0  T
   3   -424.6964863  0.971240E-02  0.201E-01    0.08       1.0  T
   4   -424.7324158 -0.359295E-01  0.110E-01    0.01       1.0  T
   5   -424.7355891 -0.317339E-02  0.979E-02    0.02       1.0  T
   6   -424.7369530 -0.136389E-02  0.762E-02    0.01       1.0  T
   7   -424.7377133 -0.760311E-03  0.571E-02    0.02       1.0  T
   8   -424.7396562 -0.194289E-02  0.256E-02    0.01       1.0  T
   9   -424.7399630 -0.306752E-03  0.135E-02    0.01       1.0  T
  10   -424.7399838 -0.207812E-04  0.980E-03    0.01       1.0  T
  11   -424.7400147 -0.309685E-04  0.616E-03    0.01       1.1  T
  12   -424.7400112  0.355749E-05  0.536E-03    0.01       1.3  T
  13   -424.7400210 -0.982989E-05  0.272E-03    0.01       2.5  T
  14   -424.7400259 -0.492592E-05  0.914E-04    0.01       7.3  T
  15   -424.7400259  0.450484E-09  0.670E-04    0.01      10.0  T
  16   -424.7400263 -0.344216E-06  0.167E-04    0.01      40.3  T
     SCC iter.                  ...        0 min,  2.739 sec
     gradient                   ...        0 min,  0.217 sec
 * total energy  :  -419.3475264 Eh     change       -0.2423752E-02 Eh
   gradient norm :     0.0092379 Eh/α   predicted    -0.2137085E-02 ( -11.83%)
   displ. norm   :     0.6093051 α      lambda       -0.2018598E-02
   maximum displ.:     0.2210377 α      in ANC's #12, #7, #5, ...

........................................................................
.............................. CYCLE    6 ..............................
........................................................................

 iter      E             dE          RMSdq      gap      omega  full diag
   1   -424.7388521 -0.424739E+03  0.536E-02    0.02       0.0  T
   2   -424.7283827  0.104694E-01  0.117E-01    0.02       1.0  T
   3   -424.7074709  0.209118E-01  0.172E-01    0.08       1.0  T
   4   -424.7279102 -0.204393E-01  0.121E-01    0.02       1.0  T
   5   -424.7339406 -0.603039E-02  0.965E-02    0.03       1.0  T
   6   -424.7355461 -0.160549E-02  0.752E-02    0.01       1.0  T
   7   -424.7369429 -0.139682E-02  0.543E-02    0.02       1.0  T
   8   -424.7387797 -0.183681E-02  0.196E-02    0.02       1.0  T
   9   -424.7389716 -0.191855E-03  0.101E-02    0.01       1.0  T
  10   -424.7389844 -0.128613E-04  0.715E-03    0.01       1.0  T
  11   -424.7390010 -0.165293E-04  0.447E-03    0.01       1.5  T
  12   -424.7389978  0.320821E-05  0.378E-03    0.01       1.8  T
  13   -424.7390053 -0.753195E-05  0.161E-03    0.01       4.2  T
  14   -424.7390068 -0.151721E-05  0.509E-04    0.01      13.2  T
  15   -424.7390068 -0.110583E-07  0.371E-04    0.01      18.1  T
  16   -424.7390069 -0.890934E-07  0.155E-04    0.01      43.4  T
     SCC iter.                  ...        0 min,  2.618 sec
     gradient                   ...        0 min,  0.235 sec
 * total energy  :  -419.3491224 Eh     change       -0.1596021E-02 Eh
   gradient norm :     0.0082197 Eh/α   predicted    -0.1384011E-02 ( -13.28%)
   displ. norm   :     0.6073979 α      lambda       -0.1416315E-02
   maximum displ.:     0.2376867 α      in ANC's #12, #7, #5, ...

........................................................................
.............................. CYCLE    7 ..............................
........................................................................

 iter      E             dE          RMSdq      gap      omega  full diag
   1   -424.7393061 -0.424739E+03  0.491E-02    0.02       0.0  T
   2   -424.7364622  0.284389E-02  0.752E-02    0.01       1.0  T
   3   -424.7331228  0.333941E-02  0.103E-01    0.01       1.0  T
   4   -424.7281291  0.499367E-02  0.131E-01    0.02       1.0  T
   5   -424.7368349 -0.870580E-02  0.671E-02    0.02       1.0  T
   6   -424.7386069 -0.177195E-02  0.357E-02    0.01       1.0  T
   7   -424.7376504  0.956495E-03  0.395E-02    0.03       1.0  T
   8   -424.7392014 -0.155102E-02  0.152E-02    0.01       1.0  T
   9   -424.7393827 -0.181338E-03  0.552E-03    0.01       1.2  T
  10   -424.7393915 -0.876176E-05  0.278E-03    0.02       2.4  T
  11   -424.7393932 -0.165841E-05  0.192E-03    0.01       3.5  T
  12   -424.7393934 -0.236031E-06  0.152E-03    0.01       4.4  T
  13   -424.7393944 -0.105863E-05  0.904E-04    0.01       7.4  T
  14   -424.7393950 -0.555673E-06  0.396E-04    0.01      17.0  T
  15   -424.7393951 -0.110812E-06  0.148E-04    0.01      45.3  T
     SCC iter.                  ...        0 min,  2.443 sec
     gradient                   ...        0 min,  0.208 sec
 * total energy  :  -419.3502537 Eh     change       -0.1131314E-02 Eh
   gradient norm :     0.0069162 Eh/α   predicted    -0.9694263E-03 ( -14.31%)
   displ. norm   :     0.6000423 α      lambda       -0.1047794E-02
   maximum displ.:     0.2489253 α      in ANC's #12, #5, #7, ...

........................................................................
.............................. CYCLE    8 ..............................
........................................................................

 iter      E             dE          RMSdq      gap      omega  full diag
   1   -424.7412618 -0.424741E+03  0.454E-02    0.01       0.0  T
   2   -424.7385711  0.269074E-02  0.703E-02    0.02       1.0  T
   3   -424.7321468  0.642425E-02  0.111E-01    0.01       1.0  T
   4   -424.7174307  0.147161E-01  0.161E-01    0.08       1.0  T
   5   -424.7262946 -0.886391E-02  0.130E-01    0.02       1.0  T
   6   -424.7396136 -0.133190E-01  0.489E-02    0.02       1.0  T
   7   -424.7410470 -0.143335E-02  0.228E-02    0.02       1.0  T
   8   -424.7412521 -0.205089E-03  0.945E-03    0.02       1.0  T
   9   -424.7413133 -0.611710E-04  0.536E-03    0.02       1.3  T
  10   -424.7413176 -0.435127E-05  0.325E-03    0.02       2.1  T
  11   -424.7413213 -0.370714E-05  0.217E-03    0.01       3.1  T
  12   -424.7413227 -0.137000E-05  0.185E-03    0.01       3.6  T
  13   -424.7413231 -0.450740E-06  0.119E-03    0.01       5.7  T
  14   -424.7413241 -0.953908E-06  0.579E-04    0.01      11.6  T
  15   -424.7413244 -0.266571E-06  0.171E-04    0.02      39.3  T
     SCC iter.                  ...        0 min,  2.250 sec
     gradient                   ...        0 min,  0.215 sec
 * total energy  :  -419.3510939 Eh     change       -0.8401826E-03 Eh
   gradient norm :     0.0058734 Eh/α   predicted    -0.7125372E-03 ( -15.19%)
   displ. norm   :     0.5903158 α      lambda       -0.8017009E-03
   maximum displ.:     0.2529855 α      in ANC's #12, #5, #4, ...

........................................................................
.............................. CYCLE    9 ..............................
........................................................................

 iter      E             dE          RMSdq      gap      omega  full diag
   1   -424.7433200 -0.424743E+03  0.431E-02    0.01       0.0  T
   2   -424.7400868  0.323327E-02  0.723E-02    0.02       1.0  T
   3   -424.7317985  0.828827E-02  0.117E-01    0.02       1.0  T
   4   -424.7106196  0.211789E-01  0.185E-01    0.09       1.0  T
   5   -424.7348679 -0.242483E-01  0.105E-01    0.01       1.0  T
   6   -424.7425064 -0.763852E-02  0.371E-02    0.02       1.0  T
   7   -424.7432592 -0.752764E-03  0.149E-02    0.02       1.0  T
   8   -424.7433083 -0.491473E-04  0.884E-03    0.02       1.0  T
   9   -424.7433594 -0.510468E-04  0.473E-03    0.01       1.4  T
  10   -424.7433681 -0.869012E-05  0.222E-03    0.02       3.0  T
  11   -424.7433653  0.279791E-05  0.222E-03    0.01       3.0  T
  12   -424.7433684 -0.315335E-05  0.134E-03    0.01       5.0  T
  13   -424.7433693 -0.930360E-06  0.753E-04    0.01       8.9  T
  14   -424.7433698 -0.413924E-06  0.326E-04    0.02      20.6  T
     SCC iter.                  ...        0 min,  2.066 sec
     gradient                   ...        0 min,  0.212 sec
 * total energy  :  -419.3517408 Eh     change       -0.6468563E-03 Eh
   gradient norm :     0.0061959 Eh/α   predicted    -0.5405362E-03 ( -16.44%)
   displ. norm   :     0.5838039 α      lambda       -0.6551382E-03
   maximum displ.:     0.2529660 α      in ANC's #12, #5, #4, ...

........................................................................
.............................. CYCLE   10 ..............................
........................................................................

 iter      E             dE          RMSdq      gap      omega  full diag
   1   -424.7453511 -0.424745E+03  0.422E-02    0.01       0.0  T
   2   -424.7423572  0.299384E-02  0.715E-02    0.02       1.0  T
   3   -424.7382254  0.413182E-02  0.100E-01    0.01       1.0  T
   4   -424.7151622  0.230633E-01  0.176E-01    0.07       1.0  T
   5   -424.7331619 -0.179998E-01  0.113E-01    0.02       1.0  T
   6   -424.7444151 -0.112532E-01  0.383E-02    0.02       1.0  T
   7   -424.7453475 -0.932335E-03  0.104E-02    0.02       1.0  T
   8   -424.7453750 -0.274888E-04  0.635E-03    0.02       1.1  T
   9   -424.7453937 -0.186991E-04  0.334E-03    0.01       2.0  T
  10   -424.7453960 -0.238421E-05  0.210E-03    0.01       3.2  T
  11   -424.7453956  0.433876E-06  0.222E-03    0.01       3.0  T
  12   -424.7453943  0.129965E-05  0.201E-03    0.01       3.3  T
  13   -424.7453972 -0.291887E-05  0.971E-04    0.01       6.9  T
  14   -424.7453980 -0.802743E-06  0.231E-04    0.01      29.1  T
  15   -424.7453980 -0.607685E-08  0.200E-04    0.01      33.6  T
     SCC iter.                  ...        0 min,  2.271 sec
     gradient                   ...        0 min,  0.203 sec
 * total energy  :  -419.3522762 Eh     change       -0.5354567E-03 Eh
   gradient norm :     0.0067678 Eh/α   predicted    -0.4392144E-03 ( -17.97%)
   displ. norm   :     0.5935609 α      lambda       -0.5917381E-03
   maximum displ.:     0.2519411 α      in ANC's #12, #5, #4, ...

........................................................................
.............................. CYCLE   11 ..............................
........................................................................

 iter      E             dE          RMSdq      gap      omega  full diag
   1   -424.7463600 -0.424746E+03  0.448E-02    0.01       0.0  T
   2   -424.7416160  0.474406E-02  0.883E-02    0.01       1.0  T
   3   -424.7402859  0.133009E-02  0.944E-02    0.02       1.0  T
   4   -424.7223727  0.179132E-01  0.162E-01    0.03       1.0  T
   5   -424.7116077  0.107650E-01  0.182E-01    0.07       1.0  T
   6   -424.7458918 -0.342841E-01  0.322E-02    0.01       1.0  T
   7   -424.7462294 -0.337650E-03  0.203E-02    0.02       1.0  T
   8   -424.7463950 -0.165619E-03  0.101E-02    0.01       1.0  T
   9   -424.7464272 -0.321704E-04  0.522E-03    0.01       1.3  T
  10   -424.7464339 -0.670695E-05  0.274E-03    0.01       2.5  T
  11   -424.7464371 -0.319878E-05  0.170E-03    0.01       3.9  T
  12   -424.7464380 -0.870570E-06  0.113E-03    0.01       5.9  T
  13   -424.7464385 -0.475688E-06  0.653E-04    0.01      10.3  T
  14   -424.7464388 -0.296553E-06  0.286E-04    0.01      23.5  T
     SCC iter.                  ...        0 min,  2.132 sec
     gradient                   ...        0 min,  0.205 sec
 * total energy  :  -419.3527676 Eh     change       -0.4913127E-03 Eh
   gradient norm :     0.0067664 Eh/α   predicted    -0.4001104E-03 ( -18.56%)
   displ. norm   :     0.6107419 α      lambda       -0.5758110E-03
   maximum displ.:     0.2456620 α      in ANC's #12, #5, #4, ...

........................................................................
.............................. CYCLE   12 ..............................
........................................................................

 iter      E             dE          RMSdq      gap      omega  full diag
   1   -424.7468172 -0.424747E+03  0.508E-02    0.01       0.0  T
   2   -424.7368618  0.995538E-02  0.121E-01    0.01       1.0  T
   3   -424.7325206  0.434115E-02  0.126E-01    0.05       1.0  T
   4   -424.7030879  0.294327E-01  0.207E-01    0.06       1.0  T
   5   -424.7220517 -0.189638E-01  0.168E-01    0.05       1.0  T
   6   -424.7463366 -0.242849E-01  0.360E-02    0.01       1.0  T
   7   -424.7468463 -0.509678E-03  0.179E-02    0.01       1.0  T
   8   -424.7469194 -0.731345E-04  0.113E-02    0.01       1.0  T
   9   -424.7469397 -0.203035E-04  0.842E-03    0.01       1.0  T
  10   -424.7469656 -0.259145E-04  0.431E-03    0.01       1.6  T
  11   -424.7469699 -0.420968E-05  0.330E-03    0.01       2.0  T
  12   -424.7469709 -0.104684E-05  0.266E-03    0.01       2.5  T
  13   -424.7469730 -0.213200E-05  0.143E-03    0.01       4.7  T
  14   -424.7469746 -0.152935E-05  0.624E-04    0.01      10.8  T
  15   -424.7469747 -0.135651E-06  0.333E-04    0.01      20.2  T
  16   -424.7469747 -0.496051E-07  0.140E-04    0.01      47.9  T
     SCC iter.                  ...        0 min,  2.244 sec
     gradient                   ...        0 min,  0.210 sec
 * total energy  :  -419.3532454 Eh     change       -0.4778179E-03 Eh
   gradient norm :     0.0062753 Eh/α   predicted    -0.3952962E-03 ( -17.27%)
   displ. norm   :     0.6156287 α      lambda       -0.5392540E-03
   maximum displ.:     0.2255189 α      in ANC's #12, #5, #4, ...

........................................................................
.............................. CYCLE   13 ..............................
........................................................................

 iter      E             dE          RMSdq      gap      omega  full diag
   1   -424.7455352 -0.424746E+03  0.565E-02    0.01       0.0  T
   2   -424.7254599  0.200752E-01  0.163E-01    0.02       1.0  T
   3   -424.7207313  0.472859E-02  0.158E-01    0.06       1.0  T
   4   -424.7151195  0.561179E-02  0.178E-01    0.04       1.0  T
   5   -424.7202302 -0.511071E-02  0.176E-01    0.04       1.0  T
   6   -424.7443060 -0.240758E-01  0.512E-02    0.02       1.0  T
   7   -424.7456296 -0.132352E-02  0.215E-02    0.01       1.0  T
   8   -424.7457581 -0.128536E-03  0.101E-02    0.01       1.0  T
   9   -424.7457894 -0.313122E-04  0.558E-03    0.01       1.2  T
  10   -424.7457941 -0.470782E-05  0.458E-03    0.01       1.5  T
  11   -424.7457920  0.212210E-05  0.469E-03    0.01       1.4  T
  12   -424.7457903  0.166879E-05  0.431E-03    0.01       1.6  T
  13   -424.7457975 -0.713008E-05  0.256E-03    0.01       2.6  T
  14   -424.7458015 -0.401362E-05  0.808E-04    0.01       8.3  T
  15   -424.7458017 -0.265416E-06  0.478E-04    0.01      14.0  T
  16   -424.7458019 -0.124968E-06  0.199E-04    0.01      33.7  T
     SCC iter.                  ...        0 min,  2.486 sec
     gradient                   ...        0 min,  0.209 sec
 * total energy  :  -419.3536832 Eh     change       -0.4377962E-03 Eh
   gradient norm :     0.0053925 Eh/α   predicted    -0.3718159E-03 ( -15.07%)
   displ. norm   :     0.5901275 α      lambda       -0.4560288E-03
   maximum displ.:     0.1948234 α      in ANC's #5, #12, #1, ...

........................................................................
.............................. CYCLE   14 ..............................
........................................................................

 iter      E             dE          RMSdq      gap      omega  full diag
   1   -424.7452487 -0.424745E+03  0.579E-02    0.01       0.0  T
   2   -424.7106456  0.346031E-01  0.201E-01    0.04       1.0  T
   3   -424.7169326 -0.628697E-02  0.168E-01    0.07       1.0  T
   4   -424.7267714 -0.983883E-02  0.146E-01    0.03       1.0  T
   5   -424.7206528  0.611859E-02  0.175E-01    0.04       1.0  T
   6   -424.7427253 -0.220725E-01  0.642E-02    0.02       1.0  T
   7   -424.7453482 -0.262283E-02  0.240E-02    0.02       1.0  T
   8   -424.7454848 -0.136599E-03  0.120E-02    0.01       1.0  T
   9   -424.7455538 -0.690439E-04  0.708E-03    0.01       1.0  T
  10   -424.7455313  0.225282E-04  0.882E-03    0.01       1.0  T
  11   -424.7455525 -0.211930E-04  0.681E-03    0.01       1.0  T
  12   -424.7455650 -0.124943E-04  0.362E-03    0.01       1.9  T
  13   -424.7455683 -0.327259E-05  0.193E-03    0.01       3.5  T
  14   -424.7455712 -0.294582E-05  0.102E-03    0.01       6.6  T
  15   -424.7455716 -0.361319E-06  0.531E-04    0.01      12.6  T
  16   -424.7455717 -0.125012E-06  0.249E-04    0.01      27.0  T
     SCC iter.                  ...        0 min,  2.410 sec
     gradient                   ...        0 min,  0.210 sec
 * total energy  :  -419.3540393 Eh     change       -0.3560917E-03 Eh
   gradient norm :     0.0058751 Eh/α   predicted    -0.3074289E-03 ( -13.67%)
   displ. norm   :     0.5611300 α      lambda       -0.3796393E-03
   maximum displ.:     0.1946504 α      in ANC's #5, #1, #12, ...

........................................................................
.............................. CYCLE   15 ..............................
........................................................................

 iter      E             dE          RMSdq      gap      omega  full diag
   1   -424.7428184 -0.424743E+03  0.539E-02    0.02       0.0  T
   2   -424.6836807  0.591377E-01  0.243E-01    0.07       1.0  T
   3   -424.7256433 -0.419626E-01  0.134E-01    0.06       1.0  T
   4   -424.7345366 -0.889331E-02  0.111E-01    0.01       1.0  T
   5   -424.7224282  0.121083E-01  0.161E-01    0.04       1.0  T
   6   -424.7411947 -0.187665E-01  0.527E-02    0.02       1.0  T
   7   -424.7430336 -0.183891E-02  0.166E-02    0.01       1.0  T
   8   -424.7430058  0.278313E-04  0.134E-02    0.01       1.0  T
   9   -424.7431018 -0.960103E-04  0.963E-03    0.01       1.0  T
  10   -424.7431201 -0.183187E-04  0.688E-03    0.01       1.0  T
  11   -424.7431303 -0.102202E-04  0.521E-03    0.01       1.3  T
  12   -424.7431291  0.124908E-05  0.427E-03    0.01       1.6  T
  13   -424.7431370 -0.793479E-05  0.275E-03    0.01       2.4  T
  14   -424.7431398 -0.273932E-05  0.119E-03    0.01       5.7  T
  15   -424.7431409 -0.116646E-05  0.423E-04    0.01      15.9  T
  16   -424.7431410 -0.544934E-07  0.206E-04    0.01      32.6  T
  17   -424.7431410 -0.117682E-07  0.135E-04    0.01      49.7  T
     SCC iter.                  ...        0 min,  2.550 sec
     gradient                   ...        0 min,  0.216 sec
 * total energy  :  -419.3543254 Eh     change       -0.2861281E-03 Eh
   gradient norm :     0.0066146 Eh/α   predicted    -0.2495890E-03 ( -12.77%)
   displ. norm   :     0.5147951 α      lambda       -0.3571281E-03
   maximum displ.:     0.1855780 α      in ANC's #5, #1, #4, ...

........................................................................
.............................. CYCLE   16 ..............................
........................................................................

 iter      E             dE          RMSdq      gap      omega  full diag
   1   -424.7454625 -0.424745E+03  0.496E-02    0.02       0.0  T
   2   -424.6760314  0.694311E-01  0.256E-01    0.08       1.0  T
   3   -424.7354581 -0.594267E-01  0.104E-01    0.05       1.0  T
   4   -424.7376337 -0.217553E-02  0.112E-01    0.01       1.0  T
   5   -424.7336858  0.394783E-02  0.127E-01    0.03       1.0  T
   6   -424.7443814 -0.106956E-01  0.457E-02    0.02       1.0  T
   7   -424.7455690 -0.118763E-02  0.184E-02    0.02       1.0  T
   8   -424.7456263 -0.572552E-04  0.133E-02    0.01       1.0  T
   9   -424.7457154 -0.891285E-04  0.698E-03    0.01       1.0  T
  10   -424.7457372 -0.218203E-04  0.453E-03    0.01       1.5  T
  11   -424.7457371  0.113109E-06  0.447E-03    0.01       1.5  T
  12   -424.7457325  0.464239E-05  0.403E-03    0.01       1.7  T
  13   -424.7457418 -0.937365E-05  0.244E-03    0.01       2.7  T
  14   -424.7457437 -0.190188E-05  0.994E-04    0.01       6.8  T
  15   -424.7457445 -0.710469E-06  0.398E-04    0.01      16.9  T
  16   -424.7457445 -0.696006E-07  0.201E-04    0.01      33.5  T
     SCC iter.                  ...        0 min,  2.405 sec
     gradient                   ...        0 min,  0.210 sec
 * total energy  :  -419.3545985 Eh     change       -0.2731024E-03 Eh
   gradient norm :     0.0067534 Eh/α   predicted    -0.2258871E-03 ( -17.29%)
   displ. norm   :     0.5094095 α      lambda       -0.3572706E-03
   maximum displ.:     0.1955955 α      in ANC's #5, #1, #4, ...

........................................................................
.............................. CYCLE   17 ..............................
........................................................................

 iter      E             dE          RMSdq      gap      omega  full diag
   1   -424.7455642 -0.424746E+03  0.474E-02    0.02       0.0  T
   2   -424.6225618  0.123002E+00  0.333E-01    0.08       1.0  T
   3   -424.7408663 -0.118305E+00  0.754E-02    0.03       1.0  T
   4   -424.7382958  0.257046E-02  0.113E-01    0.01       1.0  T
   5   -424.7419640 -0.366815E-02  0.807E-02    0.02       1.0  T
   6   -424.7432636 -0.129959E-02  0.646E-02    0.02       1.0  T
   7   -424.7458507 -0.258713E-02  0.169E-02    0.02       1.0  T
   8   -424.7459977 -0.146938E-03  0.101E-02    0.01       1.0  T
   9   -424.7460328 -0.351024E-04  0.416E-03    0.01       1.6  T
  10   -424.7460338 -0.104568E-05  0.343E-03    0.01       2.0  T
  11   -424.7460301  0.372483E-05  0.365E-03    0.01       1.8  T
  12   -424.7460184  0.116535E-04  0.537E-03    0.01       1.2  T
  13   -424.7460321 -0.136852E-04  0.241E-03    0.01       2.8  T
  14   -424.7460367 -0.462530E-05  0.791E-04    0.01       8.5  T
  15   -424.7460371 -0.414229E-06  0.247E-04    0.01      27.2  T
  16   -424.7460371  0.931982E-08  0.227E-04    0.01      29.6  T
     SCC iter.                  ...        0 min,  2.396 sec
     gradient                   ...        0 min,  0.210 sec
 * total energy  :  -419.3548821 Eh     change       -0.2835915E-03 Eh
   gradient norm :     0.0070664 Eh/α   predicted    -0.2249942E-03 ( -20.66%)
   displ. norm   :     0.5119890 α      lambda       -0.4041060E-03
   maximum displ.:     0.1970161 α      in ANC's #5, #1, #4, ...

........................................................................
.............................. CYCLE   18 ..............................
........................................................................

 iter      E             dE          RMSdq      gap      omega  full diag
   1   -424.7510672 -0.424751E+03  0.503E-02    0.02       0.0  T
   2   -424.6326149  0.118452E+00  0.328E-01    0.07       1.0  T
   3   -424.7390860 -0.106471E+00  0.112E-01    0.05       1.0  T
   4   -424.7489184 -0.983235E-02  0.749E-02    0.02       1.0  T
   5   -424.7488665  0.518867E-04  0.762E-02    0.02       1.0  T
   6   -424.7496976 -0.831082E-03  0.554E-02    0.02       1.0  T
   7   -424.7507272 -0.102959E-02  0.358E-02    0.02       1.0  T
   8   -424.7514330 -0.705798E-03  0.158E-02    0.02       1.0  T
   9   -424.7514912 -0.581922E-04  0.125E-02    0.02       1.0  T
  10   -424.7515462 -0.550240E-04  0.645E-03    0.02       1.0  T
  11   -424.7515538 -0.761195E-05  0.462E-03    0.02       1.5  T
  12   -424.7515467  0.711296E-05  0.463E-03    0.02       1.4  T
  13   -424.7515588 -0.121409E-04  0.194E-03    0.02       3.5  T
  14   -424.7515615 -0.272004E-05  0.510E-04    0.02      13.2  T
  15   -424.7515616 -0.608366E-07  0.288E-04    0.02      23.3  T
  16   -424.7515616 -0.127232E-07  0.203E-04    0.02      33.1  T
     SCC iter.                  ...        0 min,  2.540 sec
     gradient                   ...        0 min,  0.210 sec
 * total energy  :  -419.3551376 Eh     change       -0.2555168E-03 Eh
   gradient norm :     0.0101940 Eh/α   predicted    -0.2550180E-03 (  -0.20%)
   displ. norm   :     0.5103212 α      lambda       -0.3764161E-03
   maximum displ.:     0.2045709 α      in ANC's #5, #1, #4, ...

........................................................................
.............................. CYCLE   19 ..............................
........................................................................

 iter      E             dE          RMSdq      gap      omega  full diag
   1   -424.7480325 -0.424748E+03  0.501E-02    0.03       0.0  T
   2   -424.5872035  0.160829E+00  0.384E-01    0.07       1.0  T
   3   -424.7412358 -0.154032E+00  0.911E-02    0.04       1.0  T
   4   -424.7463885 -0.515267E-02  0.698E-02    0.01       1.0  T
   5   -424.7464710 -0.824834E-04  0.689E-02    0.02       1.0  T
   6   -424.7480354 -0.156442E-02  0.383E-02    0.02       1.0  T
   7   -424.7482186 -0.183191E-03  0.306E-02    0.02       1.0  T
   8   -424.7485061 -0.287501E-03  0.222E-02    0.02       1.0  T
   9   -424.7487440 -0.237926E-03  0.129E-02    0.02       1.0  T
  10   -424.7488159 -0.718504E-04  0.521E-03    0.02       1.3  T
  11   -424.7488212 -0.531425E-05  0.349E-03    0.02       1.9  T
  12   -424.7488146  0.653211E-05  0.407E-03    0.02       1.6  T
  13   -424.7488219 -0.722964E-05  0.207E-03    0.02       3.2  T
  14   -424.7488258 -0.390988E-05  0.478E-04    0.02      14.1  T
  15   -424.7488258 -0.703922E-07  0.253E-04    0.02      26.5  T
  16   -424.7488259 -0.114497E-07  0.167E-04    0.02      40.2  T
     SCC iter.                  ...        0 min,  2.447 sec
     gradient                   ...        0 min,  0.218 sec
 * total energy  :  -419.3553780 Eh     change       -0.2403976E-03 Eh
   gradient norm :     0.0095279 Eh/α   predicted    -0.2372358E-03 (  -1.32%)
   displ. norm   :     0.4283904 α      lambda       -0.2721116E-03
   maximum displ.:     0.1756527 α      in ANC's #5, #1, #4, ...

........................................................................
.............................. CYCLE   20 ..............................
........................................................................

 iter      E             dE          RMSdq      gap      omega  full diag
   1   -424.7460029 -0.424746E+03  0.341E-02    0.02       0.0  T
   2   -424.6843956  0.616074E-01  0.237E-01    0.06       1.0  T
   3   -424.7420550 -0.576594E-01  0.653E-02    0.04       1.0  T
   4   -424.7443572 -0.230222E-02  0.601E-02    0.02       1.0  T
   5   -424.7449488 -0.591592E-03  0.512E-02    0.02       1.0  T
   6   -424.7459941 -0.104535E-02  0.222E-02    0.02       1.0  T
   7   -424.7461407 -0.146625E-03  0.120E-02    0.02       1.0  T
   8   -424.7461718 -0.310604E-04  0.851E-03    0.02       1.0  T
   9   -424.7461291  0.427434E-04  0.108E-02    0.02       1.0  T
  10   -424.7462054 -0.763552E-04  0.311E-03    0.02       2.2  T
  11   -424.7462081 -0.271525E-05  0.194E-03    0.02       3.5  T
  12   -424.7462075  0.663466E-06  0.193E-03    0.02       3.5  T
  13   -424.7462090 -0.151289E-05  0.855E-04    0.02       7.8  T
  14   -424.7462096 -0.612629E-06  0.189E-04    0.02      35.4  T
  15   -424.7462096 -0.469771E-08  0.142E-04    0.02      47.3  T
     SCC iter.                  ...        0 min,  2.451 sec
     gradient                   ...        0 min,  0.209 sec
 * total energy  :  -419.3555906 Eh     change       -0.2126274E-03 Eh
   gradient norm :     0.0073805 Eh/α   predicted    -0.1610252E-03 ( -24.27%)
   displ. norm   :     0.5132520 α      lambda       -0.4343061E-03
   maximum displ.:     0.1966644 α      in ANC's #5, #1, #4, ...
 * RMSD in coord.:     0.5901961 α      energy gain  -0.3758178E-01 Eh

generating ANC from model Hessian ...
Using Lindh-Hessian (1995)
 Shifting diagonal of input Hessian by    1.0010432070637976E-002
 Lowest  eigenvalues of input Hessian
    0.010000    0.010008    0.000000    0.000000    0.000000    0.000000
    0.000000    0.000000    0.010031    0.010085    0.010093    0.010097
    0.010162    0.010204    0.010209    0.010244    0.010310    0.010354
 Highest eigenvalues
    2.404323    2.406641    2.408724    2.408814    2.409027    2.410925


........................................................................
.............................. CYCLE   21 ..............................
........................................................................

 iter      E             dE          RMSdq      gap      omega  full diag
   1   -424.7483127 -0.424748E+03  0.453E-02    0.03       0.0  T
   2   -424.6683878  0.799248E-01  0.273E-01    0.06       1.0  T
   3   -424.7402243 -0.718365E-01  0.926E-02    0.05       1.0  T
   4   -424.7441649 -0.394062E-02  0.839E-02    0.01       1.0  T
   5   -424.7392359  0.492896E-02  0.118E-01    0.02       1.0  T
   6   -424.7474480 -0.821203E-02  0.455E-02    0.02       1.0  T
   7   -424.7484305 -0.982496E-03  0.205E-02    0.02       1.0  T
   8   -424.7484982 -0.677660E-04  0.157E-02    0.02       1.0  T
   9   -424.7485539 -0.556593E-04  0.120E-02    0.02       1.0  T
  10   -424.7486131 -0.592359E-04  0.397E-03    0.02       1.7  T
  11   -424.7486177 -0.453071E-05  0.216E-03    0.02       3.1  T
  12   -424.7486148  0.284319E-05  0.274E-03    0.02       2.5  T
  13   -424.7486185 -0.372472E-05  0.131E-03    0.02       5.1  T
  14   -424.7486192 -0.670811E-06  0.538E-04    0.02      12.5  T
  15   -424.7486194 -0.161994E-06  0.198E-04    0.02      34.0  T
     SCC iter.                  ...        0 min,  2.287 sec
     gradient                   ...        0 min,  0.210 sec
 * total energy  :  -419.3558731 Eh     change       -0.2824456E-03 Eh
   gradient norm :     0.0076550 Eh/α   predicted     0.0000000E+00 (-100.00%)
   displ. norm   :     0.0719107 α      lambda       -0.1095171E-03
   maximum displ.:     0.0311527 α      in ANC's #12, #2, #7, ...

........................................................................
.............................. CYCLE   22 ..............................
........................................................................

 iter      E             dE          RMSdq      gap      omega  full diag
   1   -424.7495430 -0.424750E+03  0.993E-03    0.02       0.0  T
   2   -424.7481855  0.135752E-02  0.364E-02    0.03       1.0  T
   3   -424.7487128 -0.527322E-03  0.279E-02    0.01       1.0  T
   4   -424.7492989 -0.586076E-03  0.206E-02    0.02       1.0  T
   5   -424.7494796 -0.180739E-03  0.111E-02    0.02       1.0  T
   6   -424.7494348  0.448357E-04  0.130E-02    0.02       1.0  T
   7   -424.7495238 -0.890370E-04  0.671E-03    0.02       1.0  T
   8   -424.7495441 -0.202364E-04  0.344E-03    0.02       2.0  T
   9   -424.7495467 -0.268630E-05  0.262E-03    0.02       2.6  T
  10   -424.7495499 -0.312872E-05  0.930E-04    0.02       7.2  T
  11   -424.7495502 -0.290779E-06  0.511E-04    0.02      13.1  T
  12   -424.7495503 -0.996701E-07  0.330E-04    0.02      20.3  T
     SCC iter.                  ...        0 min,  1.930 sec
     gradient                   ...        0 min,  0.220 sec
 * total energy  :  -419.3559793 Eh     change       -0.1062800E-03 Eh
   gradient norm :     0.0034503 Eh/α   predicted    -0.6954207E-04 ( -34.57%)
   displ. norm   :     0.1770754 α      lambda       -0.1762779E-03
   maximum displ.:     0.0810240 α      in ANC's #12, #2, #7, ...

........................................................................
.............................. CYCLE   23 ..............................
........................................................................

 iter      E             dE          RMSdq      gap      omega  full diag
   1   -424.7504975 -0.424750E+03  0.188E-02    0.02       0.0  T
   2   -424.7491854  0.131208E-02  0.399E-02    0.03       1.0  T
   3   -424.7437575  0.542790E-02  0.783E-02    0.01       1.0  T
   4   -424.7486667 -0.490913E-02  0.480E-02    0.03       1.0  T
   5   -424.7499608 -0.129411E-02  0.299E-02    0.02       1.0  T
   6   -424.7500759 -0.115064E-03  0.253E-02    0.02       1.0  T
   7   -424.7504207 -0.344794E-03  0.129E-02    0.02       1.0  T
   8   -424.7504973 -0.766438E-04  0.572E-03    0.02       1.2  T
   9   -424.7505054 -0.807023E-05  0.407E-03    0.02       1.6  T
  10   -424.7505120 -0.668134E-05  0.188E-03    0.02       3.6  T
  11   -424.7505129 -0.890741E-06  0.116E-03    0.02       5.8  T
  12   -424.7505135 -0.533887E-06  0.690E-04    0.02       9.7  T
  13   -424.7505136 -0.118636E-06  0.326E-04    0.02      20.6  T
     SCC iter.                  ...        0 min,  1.826 sec
     gradient                   ...        0 min,  0.210 sec
 * total energy  :  -419.3560998 Eh     change       -0.1204788E-03 Eh
   gradient norm :     0.0040895 Eh/α   predicted    -0.9090413E-04 ( -24.55%)
   displ. norm   :     0.1972959 α      lambda       -0.1162081E-03
   maximum displ.:     0.0934846 α      in ANC's #12, #2, #7, ...

........................................................................
.............................. CYCLE   24 ..............................
........................................................................

 iter      E             dE          RMSdq      gap      omega  full diag
   1   -424.7505268 -0.424751E+03  0.183E-02    0.02       0.0  T
   2   -424.7502944  0.232351E-03  0.237E-02    0.02       1.0  T
   3   -424.7487008  0.159360E-02  0.486E-02    0.01       1.0  T
   4   -424.7412838  0.741700E-02  0.924E-02    0.05       1.0  T
   5   -424.7484685 -0.718466E-02  0.508E-02    0.01       1.0  T
   6   -424.7502402 -0.177172E-02  0.200E-02    0.02       1.0  T
   7   -424.7504832 -0.242964E-03  0.104E-02    0.02       1.0  T
   8   -424.7505293 -0.461613E-04  0.393E-03    0.02       1.7  T
   9   -424.7505318 -0.244141E-05  0.298E-03    0.02       2.3  T
  10   -424.7505345 -0.274460E-05  0.173E-03    0.02       3.9  T
  11   -424.7505361 -0.159337E-05  0.779E-04    0.02       8.6  T
  12   -424.7505363 -0.168867E-06  0.548E-04    0.02      12.3  T
  13   -424.7505364 -0.646813E-07  0.300E-04    0.02      22.4  T
     SCC iter.                  ...        0 min,  1.932 sec
     gradient                   ...        0 min,  0.209 sec
 * total energy  :  -419.3561945 Eh     change       -0.9467608E-04 Eh
   gradient norm :     0.0055508 Eh/α   predicted    -0.6036691E-04 ( -36.24%)
   displ. norm   :     0.3349901 α      lambda       -0.1834054E-03
   maximum displ.:     0.1579773 α      in ANC's #12, #2, #7, ...

........................................................................
.............................. CYCLE   25 ..............................
........................................................................

 iter      E             dE          RMSdq      gap      omega  full diag
   1   -424.7499107 -0.424750E+03  0.284E-02    0.02       0.0  T
   2   -424.7471898  0.272094E-02  0.556E-02    0.01       1.0  T
   3   -424.7381652  0.902457E-02  0.105E-01    0.05       1.0  T
   4   -424.7443418 -0.617659E-02  0.876E-02    0.01       1.0  T
   5   -424.7458682 -0.152646E-02  0.730E-02    0.03       1.0  T
   6   -424.7495563 -0.368806E-02  0.243E-02    0.02       1.0  T
   7   -424.7497615 -0.205182E-03  0.178E-02    0.02       1.0  T
   8   -424.7499264 -0.164890E-03  0.425E-03    0.02       1.6  T
   9   -424.7499295 -0.315223E-05  0.353E-03    0.02       1.9  T
  10   -424.7499335 -0.395757E-05  0.240E-03    0.02       2.8  T
  11   -424.7499350 -0.152990E-05  0.156E-03    0.02       4.3  T
  12   -424.7499353 -0.279777E-06  0.135E-03    0.02       5.0  T
  13   -424.7499355 -0.252810E-06  0.928E-04    0.02       7.2  T
  14   -424.7499360 -0.479850E-06  0.455E-04    0.02      14.8  T
     SCC iter.                  ...        0 min,  2.485 sec
     gradient                   ...        0 min,  0.214 sec
 * total energy  :  -419.3563459 Eh     change       -0.1514182E-03 Eh
   gradient norm :     0.0057683 Eh/α   predicted    -0.1019942E-03 ( -32.64%)
   displ. norm   :     0.4498292 α      lambda       -0.2271004E-03
   maximum displ.:     0.2133229 α      in ANC's #12, #2, #7, ...

........................................................................
.............................. CYCLE   26 ..............................
........................................................................

 iter      E             dE          RMSdq      gap      omega  full diag
   1   -424.7488849 -0.424749E+03  0.352E-02    0.02       0.0  T
   2   -424.7335269  0.153580E-01  0.120E-01    0.02       1.0  T
   3   -424.7438849 -0.103579E-01  0.716E-02    0.04       1.0  T
   4   -424.7434706  0.414299E-03  0.976E-02    0.01       1.0  T
   5   -424.7434915 -0.209167E-04  0.864E-02    0.03       1.0  T
   6   -424.7486555 -0.516402E-02  0.224E-02    0.02       1.0  T
   7   -424.7487480 -0.925101E-04  0.189E-02    0.02       1.0  T
   8   -424.7489312 -0.183149E-03  0.522E-03    0.02       1.3  T
   9   -424.7489438 -0.126758E-04  0.314E-03    0.02       2.1  T
  10   -424.7489448 -0.974823E-06  0.276E-03    0.02       2.4  T
  11   -424.7489455 -0.697782E-06  0.232E-03    0.02       2.9  T
  12   -424.7489463 -0.798775E-06  0.178E-03    0.02       3.8  T
  13   -424.7489474 -0.111132E-05  0.101E-03    0.02       6.6  T
  14   -424.7489478 -0.408545E-06  0.521E-04    0.02      12.9  T
  15   -424.7489481 -0.253192E-06  0.131E-04    0.02      51.1  T
     SCC iter.                  ...        0 min,  2.321 sec
     gradient                   ...        0 min,  0.213 sec
 * total energy  :  -419.3565324 Eh     change       -0.1864739E-03 Eh
   gradient norm :     0.0053129 Eh/α   predicted    -0.1365291E-03 ( -26.78%)
   displ. norm   :     0.5009276 α      lambda       -0.2346641E-03
   maximum displ.:     0.2374814 α      in ANC's #12, #2, #7, ...

........................................................................
.............................. CYCLE   27 ..............................
........................................................................

 iter      E             dE          RMSdq      gap      omega  full diag
   1   -424.7484269 -0.424748E+03  0.357E-02    0.02       0.0  T
   2   -424.7128979  0.355290E-01  0.180E-01    0.04       1.0  T
   3   -424.7474031 -0.345053E-01  0.399E-02    0.03       1.0  T
   4   -424.7439200  0.348314E-02  0.936E-02    0.02       1.0  T
   5   -424.7446502 -0.730162E-03  0.735E-02    0.02       1.0  T
   6   -424.7483235 -0.367333E-02  0.193E-02    0.02       1.0  T
   7   -424.7484194 -0.958967E-04  0.151E-02    0.02       1.0  T
   8   -424.7485250 -0.105614E-03  0.593E-03    0.02       1.1  T
   9   -424.7485335 -0.852480E-05  0.402E-03    0.02       1.7  T
  10   -424.7485388 -0.529054E-05  0.215E-03    0.02       3.1  T
  11   -424.7485391 -0.274727E-06  0.187E-03    0.02       3.6  T
  12   -424.7485398 -0.698409E-06  0.144E-03    0.02       4.7  T
  13   -424.7485405 -0.740553E-06  0.693E-04    0.02       9.7  T
  14   -424.7485407 -0.196701E-06  0.340E-04    0.02      19.7  T
     SCC iter.                  ...        0 min,  2.218 sec
     gradient                   ...        0 min,  0.220 sec
 * total energy  :  -419.3567293 Eh     change       -0.1969466E-03 Eh
   gradient norm :     0.0052336 Eh/α   predicted    -0.1467831E-03 ( -25.47%)
   displ. norm   :     0.5478574 α      lambda       -0.2587746E-03
   maximum displ.:     0.2568304 α      in ANC's #12, #2, #7, ...

........................................................................
.............................. CYCLE   28 ..............................
........................................................................

 iter      E             dE          RMSdq      gap      omega  full diag
   1   -424.7488535 -0.424749E+03  0.364E-02    0.02       0.0  T
   2   -424.6945874  0.542661E-01  0.222E-01    0.06       1.0  T
   3   -424.7484765 -0.538891E-01  0.311E-02    0.03       1.0  T
   4   -424.7462033  0.227322E-02  0.758E-02    0.02       1.0  T
   5   -424.7486938 -0.249056E-02  0.251E-02    0.02       1.0  T
   6   -424.7487987 -0.104838E-03  0.200E-02    0.02       1.0  T
   7   -424.7488869 -0.882629E-04  0.140E-02    0.02       1.0  T
   8   -424.7489918 -0.104889E-03  0.662E-03    0.02       1.0  T
   9   -424.7490084 -0.166299E-04  0.473E-03    0.02       1.4  T
  10   -424.7490178 -0.933421E-05  0.163E-03    0.02       4.1  T
  11   -424.7490176  0.145118E-06  0.197E-03    0.02       3.4  T
  12   -424.7490186 -0.943327E-06  0.106E-03    0.02       6.3  T
  13   -424.7490191 -0.505285E-06  0.623E-04    0.02      10.8  T
  14   -424.7490193 -0.186345E-06  0.214E-04    0.02      31.3  T
     SCC iter.                  ...        0 min,  2.198 sec
     gradient                   ...        0 min,  0.216 sec
 * total energy  :  -419.3569507 Eh     change       -0.2213436E-03 Eh
   gradient norm :     0.0056017 Eh/α   predicted    -0.1682932E-03 ( -23.97%)
   displ. norm   :     0.5938760 α      lambda       -0.2889074E-03
   maximum displ.:     0.2711973 α      in ANC's #12, #2, #7, ...

........................................................................
.............................. CYCLE   29 ..............................
........................................................................

 iter      E             dE          RMSdq      gap      omega  full diag
   1   -424.7498280 -0.424750E+03  0.387E-02    0.02       0.0  T
   2   -424.6705530  0.792750E-01  0.270E-01    0.07       1.0  T
   3   -424.7492216 -0.786686E-01  0.351E-02    0.03       1.0  T
   4   -424.7408304  0.839121E-02  0.116E-01    0.01       1.0  T
   5   -424.7483992 -0.756882E-02  0.519E-02    0.02       1.0  T
   6   -424.7498308 -0.143165E-02  0.217E-02    0.02       1.0  T
   7   -424.7499481 -0.117234E-03  0.164E-02    0.02       1.0  T
   8   -424.7500668 -0.118690E-03  0.555E-03    0.02       1.2  T
   9   -424.7500616  0.511771E-05  0.621E-03    0.02       1.1  T
  10   -424.7500792 -0.175482E-04  0.209E-03    0.02       3.2  T
  11   -424.7500790  0.145599E-06  0.216E-03    0.02       3.1  T
  12   -424.7500771  0.198771E-05  0.215E-03    0.02       3.1  T
  13   -424.7500809 -0.379862E-05  0.715E-04    0.02       9.4  T
  14   -424.7500811 -0.275604E-06  0.307E-04    0.02      21.9  T
  15   -424.7500812 -0.450048E-07  0.146E-04    0.02      46.0  T
     SCC iter.                  ...        0 min,  2.602 sec
     gradient                   ...        0 min,  0.216 sec
 * total energy  :  -419.3571958 Eh     change       -0.2451493E-03 Eh
   gradient norm :     0.0059918 Eh/α   predicted    -0.1954016E-03 ( -20.29%)
   displ. norm   :     0.6077038 α      lambda       -0.2873725E-03
   maximum displ.:     0.2665523 α      in ANC's #12, #2, #7, ...

........................................................................
.............................. CYCLE   30 ..............................
........................................................................

 iter      E             dE          RMSdq      gap      omega  full diag
   1   -424.7505041 -0.424751E+03  0.405E-02    0.02       0.0  T
   2   -424.6544572  0.960470E-01  0.299E-01    0.07       1.0  T
   3   -424.7487808 -0.943236E-01  0.484E-02    0.03       1.0  T
   4   -424.7392456  0.953523E-02  0.128E-01    0.01       1.0  T
   5   -424.7471119 -0.786637E-02  0.748E-02    0.02       1.0  T
   6   -424.7504944 -0.338248E-02  0.260E-02    0.02       1.0  T
   7   -424.7507154 -0.220966E-03  0.140E-02    0.02       1.0  T
   8   -424.7508044 -0.889589E-04  0.749E-03    0.02       1.0  T
   9   -424.7507923  0.120871E-04  0.843E-03    0.02       1.0  T
  10   -424.7508252 -0.328990E-04  0.309E-03    0.02       2.2  T
  11   -424.7508273 -0.216010E-05  0.229E-03    0.02       2.9  T
  12   -424.7508253  0.202847E-05  0.286E-03    0.02       2.3  T
  13   -424.7508287 -0.338507E-05  0.135E-03    0.02       5.0  T
  14   -424.7508300 -0.129811E-05  0.533E-04    0.02      12.6  T
  15   -424.7508301 -0.153201E-06  0.197E-04    0.02      34.0  T
  16   -424.7508301  0.902935E-08  0.172E-04    0.02      39.0  T
     SCC iter.                  ...        0 min,  2.345 sec
     gradient                   ...        0 min,  0.211 sec
 * total energy  :  -419.3574335 Eh     change       -0.2377002E-03 Eh
   gradient norm :     0.0058891 Eh/α   predicted    -0.1967534E-03 ( -17.23%)
   displ. norm   :     0.5596329 α      lambda       -0.2452463E-03
   maximum displ.:     0.2541569 α      in ANC's #2, #12, #7, ...

........................................................................
.............................. CYCLE   31 ..............................
........................................................................

 iter      E             dE          RMSdq      gap      omega  full diag
   1   -424.7511724 -0.424751E+03  0.381E-02    0.03       0.0  T
   2   -424.6552625  0.959099E-01  0.300E-01    0.07       1.0  T
   3   -424.7485926 -0.933302E-01  0.556E-02    0.04       1.0  T
   4   -424.7452047  0.338798E-02  0.963E-02    0.01       1.0  T
   5   -424.7464506 -0.124591E-02  0.861E-02    0.02       1.0  T
   6   -424.7510751 -0.462448E-02  0.299E-02    0.02       1.0  T
   7   -424.7513946 -0.319543E-03  0.134E-02    0.02       1.0  T
   8   -424.7514804 -0.857872E-04  0.743E-03    0.02       1.0  T
   9   -424.7514624  0.180016E-04  0.896E-03    0.02       1.0  T
  10   -424.7514992 -0.367994E-04  0.328E-03    0.02       2.0  T
  11   -424.7515005 -0.131542E-05  0.259E-03    0.02       2.6  T
  12   -424.7514966  0.388617E-05  0.314E-03    0.02       2.1  T
  13   -424.7515021 -0.542553E-05  0.130E-03    0.02       5.2  T
  14   -424.7515035 -0.139804E-05  0.348E-04    0.02      19.3  T
  15   -424.7515035 -0.270210E-07  0.214E-04    0.02      31.4  T
  16   -424.7515035  0.326474E-08  0.170E-04    0.02      39.6  T
     SCC iter.                  ...        0 min,  2.307 sec
     gradient                   ...        0 min,  0.208 sec
 * total energy  :  -419.3576299 Eh     change       -0.1963381E-03 Eh
   gradient norm :     0.0050832 Eh/α   predicted    -0.1610390E-03 ( -17.98%)
   displ. norm   :     0.4797178 α      lambda       -0.1880845E-03
   maximum displ.:     0.2300869 α      in ANC's #2, #12, #7, ...

........................................................................
.............................. CYCLE   32 ..............................
........................................................................

 iter      E             dE          RMSdq      gap      omega  full diag
   1   -424.7515354 -0.424752E+03  0.332E-02    0.03       0.0  T
   2   -424.6644604  0.870751E-01  0.285E-01    0.07       1.0  T
   3   -424.7495899 -0.851295E-01  0.488E-02    0.03       1.0  T
   4   -424.7487087  0.881251E-03  0.702E-02    0.02       1.0  T
   5   -424.7484297  0.278942E-03  0.704E-02    0.02       1.0  T
   6   -424.7513194 -0.288965E-02  0.310E-02    0.02       1.0  T
   7   -424.7517180 -0.398632E-03  0.131E-02    0.02       1.0  T
   8   -424.7518015 -0.835242E-04  0.810E-03    0.02       1.0  T
   9   -424.7517982  0.333911E-05  0.820E-03    0.02       1.0  T
  10   -424.7518282 -0.300424E-04  0.276E-03    0.02       2.4  T
  11   -424.7518290 -0.740224E-06  0.219E-03    0.02       3.1  T
  12   -424.7518282  0.781094E-06  0.211E-03    0.02       3.2  T
  13   -424.7518297 -0.156252E-05  0.113E-03    0.02       5.9  T
  14   -424.7518308 -0.105057E-05  0.280E-04    0.02      24.0  T
  15   -424.7518308 -0.189885E-07  0.166E-04    0.02      40.3  T
  16   -424.7518308 -0.750879E-08  0.107E-04    0.02      62.5  T
     SCC iter.                  ...        0 min,  2.309 sec
     gradient                   ...        0 min,  0.216 sec
 * total energy  :  -419.3577784 Eh     change       -0.1485576E-03 Eh
   gradient norm :     0.0036647 Eh/α   predicted    -0.1156845E-03 ( -22.13%)
   displ. norm   :     0.3909677 α      lambda       -0.1474521E-03
   maximum displ.:     0.2006621 α      in ANC's #2, #7, #4, ...

........................................................................
.............................. CYCLE   33 ..............................
........................................................................

 iter      E             dE          RMSdq      gap      omega  full diag
   1   -424.7527287 -0.424753E+03  0.278E-02    0.03       0.0  T
   2   -424.6808801  0.718486E-01  0.258E-01    0.07       1.0  T
   3   -424.7514997 -0.706196E-01  0.395E-02    0.03       1.0  T
   4   -424.7516855 -0.185790E-03  0.479E-02    0.02       1.0  T
   5   -424.7519207 -0.235175E-03  0.415E-02    0.02       1.0  T
   6   -424.7522032 -0.282535E-03  0.333E-02    0.03       1.0  T
   7   -424.7528457 -0.642538E-03  0.132E-02    0.02       1.0  T
   8   -424.7529371 -0.913432E-04  0.786E-03    0.02       1.0  T
   9   -424.7529449 -0.785364E-05  0.658E-03    0.02       1.0  T
  10   -424.7529638 -0.188300E-04  0.231E-03    0.02       2.9  T
  11   -424.7529646 -0.863914E-06  0.163E-03    0.02       4.1  T
  12   -424.7529649 -0.247877E-06  0.133E-03    0.02       5.0  T
  13   -424.7529651 -0.203427E-06  0.863E-04    0.02       7.8  T
  14   -424.7529656 -0.534009E-06  0.306E-04    0.02      21.9  T
     SCC iter.                  ...        0 min,  2.030 sec
     gradient                   ...        0 min,  0.211 sec
 * total energy  :  -419.3578947 Eh     change       -0.1163085E-03 Eh
   gradient norm :     0.0032262 Eh/α   predicted    -0.8500445E-04 ( -26.91%)
   displ. norm   :     0.3600275 α      lambda       -0.1302039E-03
   maximum displ.:     0.1926282 α      in ANC's #2, #7, #4, ...

........................................................................
.............................. CYCLE   34 ..............................
........................................................................

 iter      E             dE          RMSdq      gap      omega  full diag
   1   -424.7526021 -0.424753E+03  0.258E-02    0.03       0.0  T
   2   -424.6889713  0.636308E-01  0.242E-01    0.06       1.0  T
   3   -424.7520769 -0.631057E-01  0.292E-02    0.03       1.0  T
   4   -424.7510703  0.100663E-02  0.537E-02    0.02       1.0  T
   5   -424.7517352 -0.664844E-03  0.415E-02    0.03       1.0  T
   6   -424.7523056 -0.570425E-03  0.272E-02    0.03       1.0  T
   7   -424.7527187 -0.413083E-03  0.110E-02    0.03       1.0  T
   8   -424.7527771 -0.584749E-04  0.811E-03    0.02       1.0  T
   9   -424.7527997 -0.225501E-04  0.428E-03    0.02       1.6  T
  10   -424.7528073 -0.757124E-05  0.217E-03    0.02       3.1  T
  11   -424.7528088 -0.149107E-05  0.113E-03    0.02       5.9  T
  12   -424.7528088 -0.422627E-07  0.102E-03    0.02       6.6  T
  13   -424.7528089 -0.988649E-07  0.675E-04    0.02       9.9  T
  14   -424.7528091 -0.254500E-06  0.298E-04    0.02      22.5  T
     SCC iter.                  ...        0 min,  2.202 sec
     gradient                   ...        0 min,  0.213 sec
 * total energy  :  -419.3579988 Eh     change       -0.1040170E-03 Eh
   gradient norm :     0.0038155 Eh/α   predicted    -0.7354548E-04 ( -29.29%)
   displ. norm   :     0.3428749 α      lambda       -0.1341234E-03
   maximum displ.:     0.1928292 α      in ANC's #2, #7, #4, ...

........................................................................
.............................. CYCLE   35 ..............................
........................................................................

 iter      E             dE          RMSdq      gap      omega  full diag
   1   -424.7544064 -0.424754E+03  0.262E-02    0.03       0.0  T
   2   -424.7047789  0.496275E-01  0.213E-01    0.05       1.0  T
   3   -424.7536361 -0.488572E-01  0.324E-02    0.03       1.0  T
   4   -424.7508418  0.279439E-02  0.736E-02    0.02       1.0  T
   5   -424.7537273 -0.288556E-02  0.379E-02    0.03       1.0  T
   6   -424.7542232 -0.495913E-03  0.229E-02    0.03       1.0  T
   7   -424.7544960 -0.272780E-03  0.999E-03    0.03       1.0  T
   8   -424.7545448 -0.487937E-04  0.696E-03    0.02       1.0  T
   9   -424.7545607 -0.159121E-04  0.361E-03    0.02       1.9  T
  10   -424.7545649 -0.418639E-05  0.232E-03    0.02       2.9  T
  11   -424.7545669 -0.199711E-05  0.952E-04    0.02       7.0  T
  12   -424.7545668  0.134364E-06  0.998E-04    0.02       6.7  T
  13   -424.7545670 -0.189072E-06  0.621E-04    0.02      10.8  T
     SCC iter.                  ...        0 min,  1.888 sec
     gradient                   ...        0 min,  0.211 sec
 * total energy  :  -419.3581026 Eh     change       -0.1038896E-03 Eh
   gradient norm :     0.0051491 Eh/α   predicted    -0.7494976E-04 ( -27.86%)
   displ. norm   :     0.3551739 α      lambda       -0.1345293E-03
   maximum displ.:     0.2043589 α      in ANC's #2, #7, #4, ...

........................................................................
.............................. CYCLE   36 ..............................
........................................................................

 iter      E             dE          RMSdq      gap      omega  full diag
   1   -424.7533107 -0.424753E+03  0.257E-02    0.03       0.0  T
   2   -424.7182992  0.350115E-01  0.180E-01    0.04       1.0  T
   3   -424.7526411 -0.343419E-01  0.312E-02    0.03       1.0  T
   4   -424.7469659  0.567518E-02  0.961E-02    0.02       1.0  T
   5   -424.7528761 -0.591018E-02  0.276E-02    0.03       1.0  T
   6   -424.7532640 -0.387889E-03  0.166E-02    0.03       1.0  T
   7   -424.7533841 -0.120043E-03  0.884E-03    0.03       1.0  T
   8   -424.7534135 -0.294827E-04  0.486E-03    0.02       1.4  T
   9   -424.7534224 -0.885282E-05  0.325E-03    0.02       2.1  T
  10   -424.7534264 -0.402261E-05  0.142E-03    0.02       4.7  T
  11   -424.7534269 -0.520182E-06  0.866E-04    0.02       7.7  T
  12   -424.7534266  0.363395E-06  0.111E-03    0.02       6.0  T
  13   -424.7534271 -0.541736E-06  0.561E-04    0.02      12.0  T
     SCC iter.                  ...        0 min,  1.868 sec
     gradient                   ...        0 min,  0.210 sec
 * total energy  :  -419.3582080 Eh     change       -0.1053501E-03 Eh
   gradient norm :     0.0046416 Eh/α   predicted    -0.7575016E-04 ( -28.10%)
   displ. norm   :     0.3267269 α      lambda       -0.1212068E-03
   maximum displ.:     0.1969634 α      in ANC's #2, #7, #4, ...

........................................................................
.............................. CYCLE   37 ..............................
........................................................................

 iter      E             dE          RMSdq      gap      omega  full diag
   1   -424.7540433 -0.424754E+03  0.221E-02    0.03       0.0  T
   2   -424.7462371  0.780618E-02  0.863E-02    0.01       1.0  T
   3   -424.7522563 -0.601916E-02  0.430E-02    0.04       1.0  T
   4   -424.7480581  0.419815E-02  0.910E-02    0.02       1.0  T
   5   -424.7534156 -0.535745E-02  0.291E-02    0.03       1.0  T
   6   -424.7540058 -0.590174E-03  0.955E-03    0.03       1.0  T
   7   -424.7540551 -0.492897E-04  0.637E-03    0.02       1.1  T
   8   -424.7540716 -0.165298E-04  0.233E-03    0.02       2.9  T
   9   -424.7540728 -0.123861E-05  0.168E-03    0.02       4.0  T
  10   -424.7540737 -0.833281E-06  0.948E-04    0.03       7.1  T
  11   -424.7540737 -0.927050E-07  0.804E-04    0.02       8.4  T
     SCC iter.                  ...        0 min,  1.739 sec
     gradient                   ...        0 min,  0.215 sec
 * total energy  :  -419.3583056 Eh     change       -0.9761517E-04 Eh
   gradient norm :     0.0034748 Eh/α   predicted    -0.6707319E-04 ( -31.29%)
   displ. norm   :     0.3046188 α      lambda       -0.1094207E-03
   maximum displ.:     0.1911276 α      in ANC's #2, #7, #4, ...

........................................................................
.............................. CYCLE   38 ..............................
........................................................................

 iter      E             dE          RMSdq      gap      omega  full diag
   1   -424.7540685 -0.424754E+03  0.190E-02    0.02       0.0  T
   2   -424.7533996  0.668894E-03  0.336E-02    0.02       1.0  T
   3   -424.7527974  0.602152E-03  0.428E-02    0.03       1.0  T
   4   -424.7497980  0.299943E-02  0.686E-02    0.01       1.0  T
   5   -424.7479858  0.181221E-02  0.755E-02    0.05       1.0  T
   6   -424.7539807 -0.599494E-02  0.143E-02    0.02       1.0  T
   7   -424.7540363 -0.555321E-04  0.920E-03    0.03       1.0  T
   8   -424.7540691 -0.327943E-04  0.524E-03    0.02       1.3  T
   9   -424.7540770 -0.796719E-05  0.277E-03    0.02       2.4  T
  10   -424.7540795 -0.247537E-05  0.138E-03    0.02       4.9  T
  11   -424.7540806 -0.110518E-05  0.905E-04    0.02       7.4  T
  12   -424.7540810 -0.356585E-06  0.403E-04    0.02      16.7  T
  13   -424.7540809  0.444573E-07  0.340E-04    0.02      19.8  T
     SCC iter.                  ...        0 min,  1.901 sec
     gradient                   ...        0 min,  0.210 sec
 * total energy  :  -419.3583946 Eh     change       -0.8902420E-04 Eh
   gradient norm :     0.0026739 Eh/α   predicted    -0.5978785E-04 ( -32.84%)
   displ. norm   :     0.2849710 α      lambda       -0.9725551E-04
   maximum displ.:     0.1834563 α      in ANC's #2, #7, #4, ...

........................................................................
.............................. CYCLE   39 ..............................
........................................................................

 iter      E             dE          RMSdq      gap      omega  full diag
   1   -424.7543570 -0.424754E+03  0.175E-02    0.02       0.0  T
   2   -424.7491749  0.518214E-02  0.715E-02    0.05       1.0  T
   3   -424.7524900 -0.331515E-02  0.424E-02    0.01       1.0  T
   4   -424.7524500  0.399887E-04  0.516E-02    0.03       1.0  T
   5   -424.7534809 -0.103088E-02  0.364E-02    0.03       1.0  T
   6   -424.7542664 -0.785498E-03  0.153E-02    0.03       1.0  T
   7   -424.7543523 -0.859119E-04  0.818E-03    0.02       1.0  T
   8   -424.7543723 -0.200153E-04  0.476E-03    0.02       1.4  T
   9   -424.7543797 -0.732862E-05  0.285E-03    0.02       2.4  T
  10   -424.7543829 -0.324186E-05  0.106E-03    0.02       6.3  T
  11   -424.7543832 -0.311513E-06  0.101E-03    0.02       6.6  T
  12   -424.7543836 -0.368728E-06  0.462E-04    0.02      14.5  T
  13   -424.7543837 -0.776309E-07  0.209E-04    0.02      32.1  T
[...]
   222   1 H    0.986 --   116 C    0.956
 ---------------------------------------------------------------------------

Topologies differ in total number of bonds
Writing corrected topology to xtbtopo.mol

molecular dipole:
                 x           y           z       tot (Debye)
 q only:        1.204      -2.199       6.246
   full:        1.426      -2.705       6.473      18.196
molecular quadrupole (traceless):
                xx          xy          yy          xz          yz          zz
 q only:       30.666     -17.616     -88.501     110.569     -12.693      57.835
  q+dip:       13.896     -25.660     -91.137     106.780     -26.837      77.241
   full:        3.649     -24.050    -103.133      99.458     -32.951      99.484

           -------------------------------------------------
          |                Geometry Summary                 |
           -------------------------------------------------

      molecular mass/u    :     2007.4170436
   center of mass at/Å    :       -0.8839013       0.4291482       4.1442735
  moments of inertia/u·Å² :        0.4522418E+05   0.6233714E+05   0.7162672E+05
rotational constants/cm⁻¹ :        0.3727571E-03   0.2704268E-03   0.2353540E-03

 * 221 selected distances

     #   Z          #   Z                                           value/Å
     1   6 C        2   6 C                                       1.4101132
     2   6 C        3   6 C                                       1.3926879
     3   6 C        4   6 C                                       1.4298018
     4   6 C        5   6 C                                       1.4267245
     1   6 C        6   6 C                                       1.4215332
     5   6 C        6   6 C                                       1.3779882
     7   6 C        8   6 C                                       1.4074088
     8   6 C        9   6 C                                       1.4382340
     4   6 C       10   7 N                                       1.3227908
     9   6 C       10   7 N                                       1.3383683
    11   6 C       12   6 C                                       1.4365148
    12   6 C       13   7 N                                       1.3240024
     8   6 C       14   6 C                                       1.4320412
    13   7 N       14   6 C                                       1.3369602
    14   6 C       15   6 C                                       1.4068167
    15   6 C       16   6 C                                       1.3871351
     9   6 C       17   6 C                                       1.4043378
    16   6 C       17   6 C                                       1.3901000
    11   6 C       18   6 C                                       1.4151711
    18   6 C       19   6 C                                       1.4263242
    19   6 C       20   6 C                                       1.4161965
    12   6 C       21   6 C                                       1.4273130
    20   6 C       21   6 C                                       1.3754986
     2   6 C       22   8 O                                       1.3283759
    26   6 C       27   6 C                                       1.4147631
    27   6 C       28   6 C                                       1.3917327
    28   6 C       29   6 C                                       1.4295404
    29   6 C       30   6 C                                       1.4273888
    26   6 C       31   6 C                                       1.4226841
    30   6 C       31   6 C                                       1.3780613
    32   6 C       33   6 C                                       1.4062606
    33   6 C       34   6 C                                       1.4375010
    29   6 C       35   7 N                                       1.3228614
    34   6 C       35   7 N                                       1.3386547
    36   6 C       37   6 C                                       1.4351772
    37   6 C       38   7 N                                       1.3226821
    33   6 C       39   6 C                                       1.4320748
    38   7 N       39   6 C                                       1.3334993
    39   6 C       40   6 C                                       1.4056967
    40   6 C       41   6 C                                       1.3870297
    34   6 C       42   6 C                                       1.4060787
    41   6 C       42   6 C                                       1.3897642
    36   6 C       43   6 C                                       1.4158615
    43   6 C       44   6 C                                       1.4260128
    44   6 C       45   6 C                                       1.4188809
    37   6 C       46   6 C                                       1.4218464
    45   6 C       46   6 C                                       1.3821192
    27   6 C       47   8 O                                       1.3245792
    22   8 O       51   5 B                                       1.4222232
    47   8 O       51   5 B                                       1.4220661
    25   6 C       52   8 O                                       1.2031444
    25   6 C       53   8 O                                       1.3338344
    53   8 O       54   6 C                                       1.4233218
    24   6 C       55   8 O                                       1.3244710
    55   8 O       56   6 C                                       1.4261938
    24   6 C       57   8 O                                       1.2062821
    48   6 C       58   8 O                                       1.1985843
    48   6 C       59   8 O                                       1.3439630
    59   8 O       60   6 C                                       1.4254195
    50   6 C       61   8 O                                       1.2009368
    50   6 C       62   8 O                                       1.3336981
    62   8 O       63   6 C                                       1.4248352
    49   6 C       64   8 O                                       1.2072289
    49   6 C       65   8 O                                       1.3310604
    65   8 O       66   6 C                                       1.4260565
    23   6 C       67   8 O                                       1.2022376
    23   6 C       68   8 O                                       1.3385020
    68   8 O       69   6 C                                       1.4237382
    18   6 C       70   7 N                                       1.3733472
    51   5 B       70   7 N                                       1.5622709
    70   7 N       72   6 C                                       1.4557749
    71   6 C       72   6 C                                       1.5310406
    43   6 C       73   7 N                                       1.3740499
    51   5 B       73   7 N                                       1.5653083
    73   7 N       75   6 C                                       1.4543003
    74   6 C       75   6 C                                       1.5315404
    60   6 C       76   1 H                                       1.0898241
    60   6 C       77   1 H                                       1.0912308
    60   6 C       78   1 H                                       1.0899784
    56   6 C       79   1 H                                       1.0915919
    56   6 C       80   1 H                                       1.0908682
    56   6 C       81   1 H                                       1.0865943
    54   6 C       82   1 H                                       1.0865642
    54   6 C       83   1 H                                       1.0914883
    54   6 C       84   1 H                                       1.0914218
    71   6 C       85   1 H                                       1.0864983
    71   6 C       86   1 H                                       1.0877790
    71   6 C       87   1 H                                       1.0867577
    72   6 C       88   1 H                                       1.0933979
    72   6 C       89   1 H                                       1.0867457
    74   6 C       90   1 H                                       1.0864935
    74   6 C       91   1 H                                       1.0878192
    74   6 C       92   1 H                                       1.0867910
    75   6 C       93   1 H                                       1.0932134
    75   6 C       94   1 H                                       1.0869644
    66   6 C       95   1 H                                       1.0911003
    66   6 C       96   1 H                                       1.0911634
    66   6 C       97   1 H                                       1.0884280
    63   6 C       98   1 H                                       1.0869072
    63   6 C       99   1 H                                       1.0911047
    63   6 C      100   1 H                                       1.0913167
    69   6 C      101   1 H                                       1.0918573
    69   6 C      102   1 H                                       1.0874202
    69   6 C      103   1 H                                       1.0912014
    40   6 C      104   1 H                                       1.0788036
    42   6 C      105   1 H                                       1.0780333
    46   6 C      106   1 H                                       1.0806088
    30   6 C      107   1 H                                       1.0799950
    21   6 C      108   1 H                                       1.0785785
    15   6 C      109   1 H                                       1.0776000 (min)
    17   6 C      110   1 H                                       1.0789578
     5   6 C      111   1 H                                       1.0797994
   112   6 C      113   6 C                                       1.4124538
   113   6 C      114   6 C                                       1.3874358
   114   6 C      115   6 C                                       1.4301542
   115   6 C      116   6 C                                       1.4318463
   112   6 C      117   6 C                                       1.4240211
   116   6 C      117   6 C                                       1.3766021
   118   6 C      119   6 C                                       1.4086274
   119   6 C      120   6 C                                       1.4388737
   115   6 C      121   7 N                                       1.3197687
   120   6 C      121   7 N                                       1.3407111
   123   6 C      124   7 N                                       1.3200158
   119   6 C      125   6 C                                       1.4305909
   124   7 N      125   6 C                                       1.3348266
   125   6 C      126   6 C                                       1.4075227
   126   6 C      127   6 C                                       1.3861794
   120   6 C      128   6 C                                       1.4034116
   127   6 C      128   6 C                                       1.3910627
   122   6 C      129   6 C                                       1.4224018
   129   6 C      130   6 C                                       1.4306033
   130   6 C      131   6 C                                       1.4153102
   123   6 C      132   6 C                                       1.4293915
   131   6 C      132   6 C                                       1.3741339
   113   6 C      133   8 O                                       1.3199345
   137   6 C      138   6 C                                       1.4148082
   138   6 C      139   6 C                                       1.3882544
   139   6 C      140   6 C                                       1.4287443
   140   6 C      141   6 C                                       1.4290645
   137   6 C      142   6 C                                       1.4254859
   141   6 C      142   6 C                                       1.3773790
   143   6 C      144   6 C                                       1.4114814
   144   6 C      145   6 C                                       1.4368949
   140   6 C      146   7 N                                       1.3185749
   145   6 C      146   7 N                                       1.3419882
   148   6 C      149   7 N                                       1.3187358
   144   6 C      150   6 C                                       1.4310675
   149   7 N      150   6 C                                       1.3317957
   150   6 C      151   6 C                                       1.4082153
   151   6 C      152   6 C                                       1.3859756
   145   6 C      153   6 C                                       1.4028446
   152   6 C      153   6 C                                       1.3907647
   147   6 C      154   6 C                                       1.4244032
   154   6 C      155   6 C                                       1.4320649
   155   6 C      156   6 C                                       1.4128500
   148   6 C      157   6 C                                       1.4282556
   156   6 C      157   6 C                                       1.3739481
   138   6 C      158   8 O                                       1.3192678
   133   8 O      162   5 B                                       1.4031463
   158   8 O      162   5 B                                       1.3992402
   136   6 C      163   8 O                                       1.2030871
   136   6 C      164   8 O                                       1.3323046
   164   8 O      165   6 C                                       1.4234413
   135   6 C      166   8 O                                       1.3315013
   166   8 O      167   6 C                                       1.4256905
   135   6 C      168   8 O                                       1.2038829
   159   6 C      169   8 O                                       1.2023210
   159   6 C      170   8 O                                       1.3412437
   170   8 O      171   6 C                                       1.4253648
   161   6 C      172   8 O                                       1.2052962
   161   6 C      173   8 O                                       1.3288626
   173   8 O      174   6 C                                       1.4245476
   160   6 C      175   8 O                                       1.2023067
   160   6 C      176   8 O                                       1.3301963
   176   8 O      177   6 C                                       1.4275076
   134   6 C      178   8 O                                       1.2013834
   134   6 C      179   8 O                                       1.3347505
   179   8 O      180   6 C                                       1.4297995
   129   6 C      181   7 N                                       1.3705933
   181   7 N      183   6 C                                       1.4588383
   182   6 C      183   6 C                                       1.5310689
   154   6 C      184   7 N                                       1.3698606
   162   5 B      184   7 N                                       1.5766893 (max)
   184   7 N      186   6 C                                       1.4552227
   185   6 C      186   6 C                                       1.5244193
   171   6 C      187   1 H                                       1.0913466
   171   6 C      188   1 H                                       1.0900454
   171   6 C      189   1 H                                       1.0905177
   167   6 C      190   1 H                                       1.0917833
   167   6 C      191   1 H                                       1.0910906
   167   6 C      192   1 H                                       1.0865868
   165   6 C      193   1 H                                       1.0865207
   165   6 C      194   1 H                                       1.0914282
   165   6 C      195   1 H                                       1.0914659
   182   6 C      196   1 H                                       1.0875272
   182   6 C      197   1 H                                       1.0878546
   182   6 C      198   1 H                                       1.0860342
   183   6 C      199   1 H                                       1.0937379
   183   6 C      200   1 H                                       1.0879099
   185   6 C      201   1 H                                       1.0868194
   185   6 C      202   1 H                                       1.0869074
   185   6 C      203   1 H                                       1.0849652
   186   6 C      204   1 H                                       1.0927715
   186   6 C      205   1 H                                       1.0873047
   177   6 C      206   1 H                                       1.0865219
   177   6 C      207   1 H                                       1.0909537
   177   6 C      208   1 H                                       1.0919738
   174   6 C      209   1 H                                       1.0906679
   174   6 C      210   1 H                                       1.0915705
   174   6 C      211   1 H                                       1.0865952
   180   6 C      212   1 H                                       1.0913570
   180   6 C      213   1 H                                       1.0876602
   180   6 C      214   1 H                                       1.0908644
   151   6 C      215   1 H                                       1.0787810
   153   6 C      216   1 H                                       1.0780276
Note: The following floating-point exceptions are signalling: IEEE_UNDERFLOW_FLAG
normal termination of xtb
   157   6 C      217   1 H                                       1.0796946
   141   6 C      218   1 H                                       1.0800009
   132   6 C      219   1 H                                       1.0790286
   126   6 C      220   1 H                                       1.0776635
   128   6 C      221   1 H                                       1.0792112
   116   6 C      222   1 H                                       1.0799413

 * 6 distinct bonds (by element types)

   Z      Z             #   av. dist./Å        max./Å        min./Å
   1 H    6 C          72     1.0870559     1.0937379     1.0776000
   6 C    6 C          78     1.4175847     1.5315404     1.3739481
   5 B    7 N           3     1.5680895     1.5766893     1.5622709
   6 C    7 N          24     1.3574260     1.4588383     1.3185749
   5 B    8 O           4     1.4116690     1.4222232     1.3992402
   6 C    8 O          40     1.3209788     1.4297995     1.1985843


optimized geometry written to: xtbopt.mol


           -------------------------------------------------
          | TOTAL ENERGY             -419.382348977994 Eh   |
          | GRADIENT NORM               0.000193106972 Eh/α |
          | HOMO-LUMO GAP               0.027861272266 eV   |
           -------------------------------------------------
########################################################################
[WARNING] Runtime exception occurred
-1- restart_readRestart: Number of electron missmatch in restart file.
########################################################################

------------------------------------------------------------------------
 * finished run on 2024/10/31 at 17:10:41.801     
------------------------------------------------------------------------
 total:
 * wall-time:     0 d,  0 h,  9 min, 22.948 sec
 *  cpu-time:     0 d,  0 h, 30 min, 50.951 sec
 * ratio c/w:     3.288 speedup
 SCF:
 * wall-time:     0 d,  0 h,  0 min,  7.455 sec
 *  cpu-time:     0 d,  0 h,  0 min, 28.961 sec
 * ratio c/w:     3.885 speedup
 ANC optimizer:
 * wall-time:     0 d,  0 h,  9 min, 15.429 sec
 *  cpu-time:     0 d,  0 h, 30 min, 21.878 sec
 * ratio c/w:     3.280 speedup

