      -----------------------------------------------------------      
     |                   =====================                   |     
     |                           x T B                           |     
     |                   =====================                   |     
     |                         S. Grimme                         |     
     |          Mulliken Center for Theoretical Chemistry        |     
     |                    University of Bonn                     |     
      -----------------------------------------------------------      

   * xtb version 6.6.1 (8d0f1dd) compiled by 'runner@Mac-1690902418499.local' on 2023-08-01

   xtb is free software: you can redistribute it and/or modify it under
   the terms of the GNU Lesser General Public License as published by
   the Free Software Foundation, either version 3 of the License, or
   (at your option) any later version.
   
   xtb is distributed in the hope that it will be useful,
   but WITHOUT ANY WARRANTY; without even the implied warranty of
   MERCHANTABILITY or FITNESS FOR A PARTICULAR PURPOSE.  See the
   GNU Lesser General Public License for more details.
   
   Cite this work as:
   * C. Bannwarth, E. Caldeweyher, S. Ehlert, A. Hansen, P. Pracht,
     J. Seibert, S. Spicher, S. Grimme, WIREs Comput. Mol. Sci., 2020, 11,
     e01493. DOI: 10.1002/wcms.1493
   
   for GFN2-xTB:
   * C. Bannwarth, S. Ehlert and S. Grimme., J. Chem. Theory Comput., 2019,
     15, 1652-1671. DOI: 10.1021/acs.jctc.8b01176
   for GFN1-xTB:
   * S. Grimme, C. Bannwarth, P. Shushkov, J. Chem. Theory Comput., 2017,
     13, 1989-2009. DOI: 10.1021/acs.jctc.7b00118
   for GFN0-xTB:
   * P. Pracht, E. Caldeweyher, S. Ehlert, S. Grimme, ChemRxiv, 2019, preprint.
     DOI: 10.26434/chemrxiv.8326202.v1
   for GFN-FF:
   * S. Spicher and S. Grimme, Angew. Chem. Int. Ed., 2020, 59, 15665-15673.
     DOI: 10.1002/anie.202004239
   
   for ALPB and GBSA implicit solvation:
   * S. Ehlert, M. Stahn, S. Spicher, S. Grimme, J. Chem. Theory Comput.,
     2021, 17, 4250-4261. DOI: 10.1021/acs.jctc.1c00471
   
   for DFT-D4:
   * E. Caldeweyher, C. Bannwarth and S. Grimme, J. Chem. Phys., 2017,
     147, 034112. DOI: 10.1063/1.4993215
   * E. Caldeweyher, S. Ehlert, A. Hansen, H. Neugebauer, S. Spicher,
     C. Bannwarth and S. Grimme, J. Chem. Phys., 2019, 150, 154122.
     DOI: 10.1063/1.5090222
   * E. Caldeweyher, J.-M. Mewes, S. Ehlert and S. Grimme, Phys. Chem. Chem. Phys.
     2020, 22, 8499-8512. DOI: 10.1039/D0CP00502A
   
   for sTDA-xTB:
   * S. Grimme and C. Bannwarth, J. Chem. Phys., 2016, 145, 054103.
     DOI: 10.1063/1.4959605
   
   in the mass-spec context:
   * V. Asgeirsson, C. Bauer and S. Grimme, Chem. Sci., 2017, 8, 4879.
     DOI: 10.1039/c7sc00601b
   * J. Koopman and S. Grimme, ACS Omega 2019, 4, 12, 15120-15133.
     DOI: 10.1021/acsomega.9b02011
   
   for metadynamics refer to:
   * S. Grimme, J. Chem. Theory Comput., 2019, 155, 2847-2862
     DOI: 10.1021/acs.jctc.9b00143
   
   for SPH calculations refer to:
   * S. Spicher and S. Grimme, J. Chem. Theory Comput., 2021, 17, 1701-1714
     DOI: 10.1021/acs.jctc.0c01306
   
   with help from (in alphabetical order)
   P. Atkinson, C. Bannwarth, F. Bohle, G. Brandenburg, E. Caldeweyher
   M. Checinski, S. Dohm, S. Ehlert, S. Ehrlich, I. Gerasimov, C. Hölzer
   A. Katbashev, J. Koopman, C. Lavigne, S. Lehtola, F. März, M. Müller,
   F. Musil, H. Neugebauer, J. Pisarek, C. Plett, P. Pracht, F. Pultar,
   J. Seibert, P. Shushkov, S. Spicher, M. Stahn, M. Steiner, T. Strunk,
   J. Stückrath, T. Rose, and J. Unsleber
   
 * started run on 2024/11/07 at 16:15:53.221     

           -------------------------------------------------
          |                Calculation Setup                |
           -------------------------------------------------

          program call               : xtb opt_cation_Base2CO2Me.mol --gfn2 --sp --chrg 0 --uhf 1
          coordinate file            : opt_cation_Base2CO2Me.mol
          omp threads                :                     8

   ID    Z sym.   atoms
    1    6 C      1-9, 11, 12, 14-21, 23-34, 36, 37, 39-46, 48-50, 54, 56,
                  60, 63, 66, 69, 71, 72, 74, 75
    2    7 N      10, 13, 35, 38, 70, 73
    3    8 O      22, 47, 52, 53, 55, 57-59, 61, 62, 64, 65, 67, 68
    4    5 B      51
    5    1 H      76-111
########################################################################
[WARNING] Please study the warnings concerning your input carefully
-1- prog_main: Charge in sdf/mol input was overwritten
########################################################################

           -------------------------------------------------
          |                 G F N 2 - x T B                 |
           -------------------------------------------------

        Reference                      10.1021/acs.jctc.8b01176
      * Hamiltonian:
        H0-scaling (s, p, d)           1.850000    2.230000    2.230000
        zeta-weighting                 0.500000
      * Dispersion:
        s8                             2.700000
        a1                             0.520000
        a2                             5.000000
        s9                             5.000000
      * Repulsion:
        kExp                           1.500000    1.000000
        rExp                           1.000000
      * Coulomb:
        alpha                          2.000000
        third order                    shell-resolved
        anisotropic                    true
        a3                             3.000000
        a5                             4.000000
        cn-shift                       1.200000
        cn-exp                         4.000000
        max-rad                        5.000000

q/qsh data taken from xtbrestart
CAMM data taken from xtbrestart

          ...................................................
          :                      SETUP                      :
          :.................................................:
          :  # basis functions                 336          :
          :  # atomic orbitals                 336          :
          :  # shells                          186          :
          :  # electrons                       369          :
          :  max. iterations                   250          :
          :  Hamiltonian                  GFN2-xTB          :
          :  restarted?                       true          :
          :  GBSA solvation                  false          :
          :  PC potential                    false          :
          :  electronic temp.          300.0000000     K    :
          :  accuracy                    1.0000000          :
          :  -> integral cutoff          0.2500000E+02      :
          :  -> integral neglect         0.1000000E-07      :
          :  -> SCF convergence          0.1000000E-05 Eh   :
          :  -> wf. convergence          0.1000000E-03 e    :
          :  Broyden damping             0.4000000          :
          ...................................................

 iter      E             dE          RMSdq      gap      omega  full diag
   1   -212.6150564 -0.212615E+03  0.267E-01    0.13       0.0  T
   2   -212.4594133  0.155643E+00  0.905E-01    0.02       1.0  T
   3   -212.6182184 -0.158805E+00  0.251E-01    0.10       1.0  T
   4   -212.4186946  0.199524E+00  0.102E+00    0.08       1.0  T
   5   -212.5869993 -0.168305E+00  0.421E-01    0.13       1.0  T
   6   -212.6002320 -0.132327E-01  0.351E-01    0.09       1.0  T
   7   -212.6243200 -0.240880E-01  0.137E-01    0.11       1.0  T
   8   -212.6153805  0.893947E-02  0.228E-01    0.11       1.0  T
   9   -212.6262197 -0.108392E-01  0.511E-02    0.12       1.0  T
  10   -212.6264416 -0.221946E-03  0.425E-02    0.12       1.0  T
  11   -212.6265546 -0.112987E-03  0.304E-02    0.12       1.0  T
  12   -212.6267490 -0.194391E-03  0.773E-03    0.12       1.2  T
  13   -212.6267474  0.157260E-05  0.629E-03    0.12       1.5  T
  14   -212.6267532 -0.570658E-05  0.295E-03    0.12       3.2  T
  15   -212.6267545 -0.137582E-05  0.121E-03    0.12       7.9  T
  16   -212.6267548 -0.270937E-06  0.422E-04    0.12      22.5  T
  17   -212.6267548 -0.295554E-07  0.155E-04    0.12      61.4  T

   *** convergence criteria satisfied after 17 iterations ***

         #    Occupation            Energy/Eh            Energy/eV
      -------------------------------------------------------------
         1        2.0000           -0.7611310             -20.7114
       ...           ...                  ...                  ...
       179        2.0000           -0.3937237             -10.7138
       180        2.0000           -0.3907396             -10.6326
       181        2.0000           -0.3788435             -10.3089
       182        2.0000           -0.3771941             -10.2640
       183        1.9692           -0.3703984             -10.0791
       184        1.8783           -0.3690041             -10.0411
       185        1.0625           -0.3654452              -9.9443 (HOMO)
       186        0.0901           -0.3609814              -9.8228 (LUMO)
       187                         -0.3099544              -8.4343
       188                         -0.3069689              -8.3530
       189                         -0.2851326              -7.7589
       190                         -0.2835312              -7.7153
       ...                                ...                  ...
       336                          0.7079307              19.2638
      -------------------------------------------------------------
                  HL-Gap            0.0044638 Eh            0.1215 eV
             Fermi-level           -0.3651517 Eh           -9.9363 eV

 SCC (total)                   0 d,  0 h,  0 min,  1.083 sec
 SCC setup                      ...        0 min,  0.000 sec (  0.031%)
 Dispersion                     ...        0 min,  0.001 sec (  0.121%)
 classical contributions        ...        0 min,  0.000 sec (  0.025%)
 integral evaluation            ...        0 min,  0.007 sec (  0.632%)
 iterations                     ...        0 min,  1.035 sec ( 95.488%)
 molecular gradient             ...        0 min,  0.036 sec (  3.318%)
 printout                       ...        0 min,  0.004 sec (  0.385%)

         :::::::::::::::::::::::::::::::::::::::::::::::::::::
         ::                     SUMMARY                     ::
         :::::::::::::::::::::::::::::::::::::::::::::::::::::
         :: total energy            -209.913978776583 Eh    ::
         :: gradient norm              0.035227713960 Eh/a0 ::
         :: HOMO-LUMO gap              0.121466103624 eV    ::
         ::.................................................::
         :: SCC energy              -212.626754832475 Eh    ::
         :: -> isotropic ES            0.380582069951 Eh    ::
         :: -> anisotropic ES         -0.006488590766 Eh    ::
         :: -> anisotropic XC          0.060574858893 Eh    ::
         :: -> dispersion             -0.182830798429 Eh    ::
         :: repulsion energy           2.709591158417 Eh    ::
         :: add. restraining           0.000000000000 Eh    ::
         :: total charge              -0.000021260575 e     ::
         :::::::::::::::::::::::::::::::::::::::::::::::::::::

           -------------------------------------------------
          |                Property Printout                |
           -------------------------------------------------

    * Orbital Energies and Occupations

         #    Occupation            Energy/Eh            Energy/eV
      -------------------------------------------------------------
         1        2.0000           -0.7611310             -20.7114
       ...           ...                  ...                  ...
       173        2.0000           -0.4219045             -11.4806
       174        2.0000           -0.4163427             -11.3293
       175        2.0000           -0.4133428             -11.2476
       176        2.0000           -0.4107307             -11.1766
       177        2.0000           -0.4011627             -10.9162
       178        2.0000           -0.3979242             -10.8281
       179        2.0000           -0.3937237             -10.7138
       180        2.0000           -0.3907396             -10.6326
       181        2.0000           -0.3788435             -10.3089
       182        2.0000           -0.3771941             -10.2640
       183        1.9692           -0.3703984             -10.0791
       184        1.8783           -0.3690041             -10.0411
       185        1.0625           -0.3654452              -9.9443 (HOMO)
       186        0.0901           -0.3609814              -9.8228 (LUMO)
       187                         -0.3099544              -8.4343
       188                         -0.3069689              -8.3530
       189                         -0.2851326              -7.7589
       190                         -0.2835312              -7.7153
       191                         -0.2811938              -7.6517
       192                         -0.2781669              -7.5693
       193                         -0.2620320              -7.1303
       194                         -0.2550050              -6.9390
       195                         -0.2500892              -6.8053
       196                         -0.2472117              -6.7270
       ...                                ...                  ...
       336                          0.7079307              19.2638
      -------------------------------------------------------------
                  HL-Gap            0.0044638 Eh            0.1215 eV
             Fermi-level           -0.3651517 Eh           -9.9363 eV

     #   Z          covCN         q      C6AA      α(0)
     1   6 C        2.966    -0.028    28.695     8.787
     2   6 C        2.979     0.166    24.410     8.104
     3   6 C        2.991    -0.016    28.392     8.741
     4   6 C        2.960     0.096    25.872     8.343
     5   6 C        2.924    -0.049    29.207     8.863
     6   6 C        2.968    -0.025    28.614     8.774
     7   6 C        2.980     0.041    27.079     8.536
     8   6 C        3.000    -0.019    28.474     8.753
     9   6 C        2.954     0.095    25.885     8.345
    10   7 N        1.849    -0.223    26.723     7.662
    11   6 C        2.973    -0.008    28.216     8.713
    12   6 C        2.956     0.100    25.780     8.328
    13   7 N        1.855    -0.223    26.724     7.662
    14   6 C        2.951     0.096    25.875     8.343
    15   6 C        2.920    -0.028    28.702     8.785
    16   6 C        2.962    -0.016    28.397     8.741
    17   6 C        2.924    -0.022    28.564     8.765
    18   6 C        2.946     0.093    25.936     8.353
    19   6 C        2.984     0.025    27.443     8.593
    20   6 C        2.963    -0.014    28.364     8.736
    21   6 C        2.926    -0.032    28.799     8.801
    22   8 O        1.637    -0.376    20.398     6.096
    23   6 C        2.730     0.360    20.889     7.482
    24   6 C        2.730     0.360    20.884     7.482
    25   6 C        2.732     0.354    20.994     7.501
    26   6 C        2.977     0.003    27.944     8.671
    27   6 C        2.908     0.168    24.384     8.097
    28   6 C        2.974    -0.024    28.602     8.772
    29   6 C        2.964     0.100    25.783     8.329
    30   6 C        2.931    -0.034    28.843     8.808
    31   6 C        2.964    -0.013    28.327     8.730
    32   6 C        2.970     0.041    27.076     8.535
    33   6 C        2.995    -0.018    28.442     8.748
    34   6 C        2.961     0.097    25.848     8.339
    35   7 N        1.859    -0.223    26.716     7.661
    36   6 C        2.969    -0.008    28.206     8.712
    37   6 C        2.965     0.099    25.809     8.333
    38   7 N        1.866    -0.214    26.507     7.631
    39   6 C        2.956     0.096    25.858     8.341
    40   6 C        2.926    -0.021    28.532     8.760
    41   6 C        2.961    -0.014    28.354     8.734
    42   6 C        2.925    -0.025    28.616     8.773
    43   6 C        2.917     0.100    25.795     8.329
    44   6 C        2.930    -0.029    28.728     8.790
    45   6 C        2.961    -0.015    28.396     8.740
    46   6 C        2.941    -0.027    28.666     8.781
    47   8 O        1.639    -0.385    20.561     6.121
    48   6 C        2.727     0.361    20.868     7.479
    49   6 C        2.731     0.355    20.972     7.498
    50   6 C        2.731     0.354    20.986     7.500
    51   5 B        3.485     0.507    14.514     6.334
    52   8 O        0.856    -0.403    21.741     6.251
    53   8 O        1.704    -0.253    18.184     5.757
    54   6 C        3.658     0.030    20.351     6.474
    55   8 O        1.704    -0.255    18.225     5.764
    56   6 C        3.657     0.027    20.411     6.484
    57   8 O        0.856    -0.405    21.779     6.257
    58   8 O        0.856    -0.401    21.692     6.244
    59   8 O        1.704    -0.270    18.478     5.804
    60   6 C        3.653     0.030    20.368     6.481
    61   8 O        0.856    -0.401    21.703     6.246
    62   8 O        1.704    -0.251    18.159     5.753
    63   6 C        3.659     0.029    20.359     6.475
    64   8 O        0.857    -0.399    21.668     6.241
    65   8 O        1.704    -0.257    18.266     5.770
    66   6 C        3.659     0.031    20.326     6.470
    67   8 O        0.856    -0.420    22.091     6.302
    68   8 O        1.705    -0.244    18.050     5.736
    69   6 C        3.655     0.027    20.421     6.488
    70   7 N        2.661    -0.259    26.730     7.679
    71   6 C        3.752    -0.108    22.617     6.782
    72   6 C        3.741     0.022    20.279     6.425
    73   7 N        2.660    -0.234    26.136     7.593
    74   6 C        3.751    -0.110    22.666     6.789
    75   6 C        3.792     0.054    19.676     6.317
    76   1 H        0.925     0.070     2.088     2.260
    77   1 H        0.924     0.073     2.048     2.238
    78   1 H        0.924     0.068     2.106     2.270
    79   1 H        0.924     0.084     1.939     2.178
    80   1 H        0.924     0.070     2.084     2.258
    81   1 H        0.925     0.072     2.067     2.248
    82   1 H        0.925     0.073     2.058     2.243
    83   1 H        0.924     0.067     2.114     2.274
    84   1 H        0.924     0.067     2.124     2.279
    85   1 H        0.925     0.050     2.315     2.380
    86   1 H        0.925     0.039     2.456     2.451
    87   1 H        0.925     0.047     2.359     2.402
    88   1 H        0.924     0.031     2.573     2.508
    89   1 H        0.924     0.036     2.508     2.477
    90   1 H        0.925     0.059     2.212     2.326
    91   1 H        0.925     0.047     2.361     2.403
    92   1 H        0.925     0.048     2.344     2.394
    93   1 H        0.926     0.080     1.983     2.202
    94   1 H        0.923     0.082     1.962     2.191
    95   1 H        0.925     0.070     2.080     2.256
    96   1 H        0.924     0.067     2.119     2.277
    97   1 H        0.924     0.066     2.131     2.283
    98   1 H        0.925     0.073     2.049     2.239
    99   1 H        0.924     0.067     2.120     2.277
   100   1 H        0.924     0.068     2.109     2.271
   101   1 H        0.924     0.064     2.148     2.292
   102   1 H        0.924     0.073     2.056     2.243
   103   1 H        0.925     0.076     2.025     2.226
   104   1 H        0.926     0.095     1.834     2.118
   105   1 H        0.926     0.087     1.912     2.162
   106   1 H        0.926     0.094     1.841     2.122
   107   1 H        0.926     0.088     1.898     2.154
   108   1 H        0.926     0.080     1.980     2.201
   109   1 H        0.926     0.082     1.956     2.187
   110   1 H        0.926     0.092     1.861     2.133
   111   1 H        0.926     0.076     2.018     2.221

 Mol. C6AA /au·bohr⁶  :     177086.170679
 Mol. C8AA /au·bohr⁸  :    4374655.115740
 Mol. α(0) /au        :        655.054192


Wiberg/Mayer (AO) data.
largest (>0.10) Wiberg bond orders for each atom

 ---------------------------------------------------------------------------
     #   Z sym  total        # sym  WBO       # sym  WBO       # sym  WBO
 ---------------------------------------------------------------------------
     1   6 C    3.909 --     2 C    1.356     6 C    1.289    75 C    0.977
     2   6 C    3.937 --     1 C    1.356     3 C    1.234    22 O    1.111
     3   6 C    3.934 --     2 C    1.234     7 C    1.227     4 C    1.170
     4   6 C    3.973 --    10 N    1.378     5 C    1.241     3 C    1.170
     5   6 C    3.943 --     6 C    1.486     4 C    1.241   111 H    0.962
     6   6 C    3.972 --     5 C    1.486     1 C    1.289    23 C    0.971
     7   6 C    3.981 --     8 C    1.312     3 C    1.227    11 C    1.197
     8   6 C    3.974 --     7 C    1.312    14 C    1.192     9 C    1.187
     9   6 C    3.977 --    10 N    1.335    17 C    1.279     8 C    1.187
    10   7 N    2.991 --     4 C    1.378     9 C    1.335
    11   6 C    3.942 --    18 C    1.310     7 C    1.197    12 C    1.173
    12   6 C    3.971 --    13 N    1.397    21 C    1.217    11 C    1.173
    13   7 N    2.965 --    12 C    1.397    14 C    1.325
    14   6 C    3.973 --    13 N    1.325    15 C    1.280     8 C    1.192
    15   6 C    3.829 --    16 C    1.402    14 C    1.280   109 H    0.961
    16   6 C    3.975 --    17 C    1.403    15 C    1.402    25 C    0.978
    17   6 C    3.829 --    16 C    1.403     9 C    1.279   110 H    0.959
    18   6 C    3.958 --    19 C    1.321    11 C    1.310    70 N    1.079
    19   6 C    3.890 --    18 C    1.321    20 C    1.247    26 C    1.094
    20   6 C    3.967 --    21 C    1.531    19 C    1.247    24 C    0.964
    21   6 C    3.919 --    20 C    1.531    12 C    1.217   108 H    0.961
    22   8 O    2.157 --     2 C    1.111    51 B    0.793
    23   6 C    3.917 --    67 O    1.713    68 O    1.155     6 C    0.971
    24   6 C    3.920 --    57 O    1.735    55 O    1.146    20 C    0.964
    25   6 C    3.919 --    52 O    1.737    53 O    1.137    16 C    0.978
    26   6 C    3.910 --    27 C    1.308    31 C    1.251    19 C    1.094
    27   6 C    3.929 --    26 C    1.308    28 C    1.298    47 O    1.099
    28   6 C    3.947 --    27 C    1.298    32 C    1.198    29 C    1.177
    29   6 C    3.972 --    35 N    1.392    30 C    1.223    28 C    1.177
    30   6 C    3.919 --    31 C    1.524    29 C    1.223   107 H    0.959
    31   6 C    3.970 --    30 C    1.524    26 C    1.251    48 C    0.974
    32   6 C    3.979 --    33 C    1.314    36 C    1.223    28 C    1.198
    33   6 C    3.973 --    32 C    1.314    34 C    1.193    39 C    1.189
    34   6 C    3.974 --    35 N    1.327    42 C    1.281    33 C    1.193
    35   7 N    2.936 --    29 C    1.392    34 C    1.327
    36   6 C    3.937 --    43 C    1.247    32 C    1.223    37 C    1.175
    37   6 C    3.972 --    38 N    1.380    46 C    1.234    36 C    1.175
    38   7 N    2.998 --    37 C    1.380    39 C    1.346
    39   6 C    3.978 --    38 N    1.346    40 C    1.265    33 C    1.189
    40   6 C    3.828 --    41 C    1.413    39 C    1.265   104 H    0.959
    41   6 C    3.976 --    40 C    1.413    42 C    1.396    50 C    0.977
    42   6 C    3.818 --    41 C    1.396    34 C    1.281   105 H    0.961
    43   6 C    3.958 --    44 C    1.378    36 C    1.247    73 N    1.131
    44   6 C    3.881 --    43 C    1.378    45 C    1.324    93 H    0.956
    45   6 C    3.977 --    46 C    1.474    44 C    1.324    49 C    0.982
    46   6 C    3.896 --    45 C    1.474    37 C    1.234   106 H    0.958
    47   8 O    2.156 --    27 C    1.099    51 B    0.824
    48   6 C    3.918 --    58 O    1.742    59 O    1.123    31 C    0.974
    49   6 C    3.919 --    64 O    1.740    65 O    1.128    45 C    0.982
    50   6 C    3.921 --    61 O    1.738    62 O    1.139    41 C    0.977
    51   5 B    3.377 --    47 O    0.824    22 O    0.793    73 N    0.792
                            70 N    0.784
    52   8 O    2.036 --    25 C    1.737    53 O    0.175
    53   8 O    2.314 --    25 C    1.137    54 C    0.953    52 O    0.175
    54   6 C    3.921 --    82 H    0.982    84 H    0.977    83 H    0.977
                            53 O    0.953
    55   8 O    2.319 --    24 C    1.146    56 C    0.944    57 O    0.179
    56   6 C    3.911 --    81 H    0.982    80 H    0.977    79 H    0.970
                            55 O    0.944
    57   8 O    2.039 --    24 C    1.735    55 O    0.179
    58   8 O    2.044 --    48 C    1.742    59 O    0.173
    59   8 O    2.299 --    48 C    1.123    60 C    0.949    58 O    0.173
    60   6 C    3.917 --    76 H    0.981    77 H    0.976    78 H    0.974
                            59 O    0.949
    61   8 O    2.039 --    50 C    1.738    62 O    0.176
    62   8 O    2.317 --    50 C    1.139    63 C    0.952    61 O    0.176
    63   6 C    3.921 --    98 H    0.982    99 H    0.977   100 H    0.977
                            62 O    0.952
    64   8 O    2.041 --    49 C    1.740    65 O    0.174
    65   8 O    2.307 --    49 C    1.128    66 C    0.954    64 O    0.174
    66   6 C    3.922 --    95 H    0.982    97 H    0.977    96 H    0.977
                            65 O    0.954
    67   8 O    2.021 --    23 C    1.713    68 O    0.175
    68   8 O    2.329 --    23 C    1.155    69 C    0.949    67 O    0.175
    69   6 C    3.919 --   103 H    0.980   102 H    0.977   101 H    0.976
                            68 O    0.949
    70   7 N    3.127 --    18 C    1.079    72 C    0.999    51 B    0.784
    71   6 C    3.979 --    72 C    0.995    86 H    0.988    87 H    0.985
                            85 H    0.983
    72   6 C    3.973 --    70 N    0.999    71 C    0.995    89 H    0.971
                            88 H    0.962
    73   7 N    3.195 --    43 C    1.131    75 C    0.993    51 B    0.792
    74   6 C    3.982 --    75 C    0.989    91 H    0.983    92 H    0.980
                            90 H    0.978
    75   6 C    3.965 --    73 N    0.993    74 C    0.989     1 C    0.977
                            94 H    0.921
    76   1 H    0.995 --    60 C    0.981
    77   1 H    0.994 --    60 C    0.976
    78   1 H    0.995 --    60 C    0.974
    79   1 H    0.993 --    56 C    0.970
    80   1 H    0.995 --    56 C    0.977
    81   1 H    0.994 --    56 C    0.982
    82   1 H    0.994 --    54 C    0.982
    83   1 H    0.995 --    54 C    0.977
    84   1 H    0.995 --    54 C    0.977
    85   1 H    0.996 --    71 C    0.983
    86   1 H    0.998 --    71 C    0.988
    87   1 H    0.997 --    71 C    0.985
    88   1 H    0.992 --    72 C    0.962
    89   1 H    0.995 --    72 C    0.971
    90   1 H    0.995 --    74 C    0.978
    91   1 H    0.997 --    74 C    0.983
    92   1 H    0.996 --    74 C    0.980
    93   1 H    0.993 --    44 C    0.956
    94   1 H    0.980 --    75 C    0.921
    95   1 H    0.995 --    66 C    0.982
    96   1 H    0.995 --    66 C    0.977
    97   1 H    0.995 --    66 C    0.977
    98   1 H    0.994 --    63 C    0.982
    99   1 H    0.995 --    63 C    0.977
   100   1 H    0.995 --    63 C    0.977
   101   1 H    0.996 --    69 C    0.976
   102   1 H    0.995 --    69 C    0.977
   103   1 H    0.994 --    69 C    0.980
   104   1 H    0.990 --    40 C    0.959
   105   1 H    0.992 --    42 C    0.961
   106   1 H    0.990 --    46 C    0.958
   107   1 H    0.990 --    30 C    0.959
   108   1 H    0.992 --    21 C    0.961
   109   1 H    0.992 --    15 C    0.961
   110   1 H    0.991 --    17 C    0.959
   111   1 H    0.993 --     5 C    0.962
 ---------------------------------------------------------------------------

Topologies differ in total number of bonds
Writing corrected topology to xtbtopo.mol

molecular dipole:
                 x           y           z       tot (Debye)
 q only:        1.808      -0.304      -1.579
   full:        2.041      -0.366      -1.428       6.400
molecular quadrupole (traceless):
                xx          xy          yy          xz          yz          zz
 q only:      -12.012      -2.414      28.483      38.835      -6.972     -16.471
  q+dip:      -23.401      -6.493      30.798      41.715      -7.423      -7.397
   full:      -30.311      -7.273      27.696      38.556      -9.037       2.615


           -------------------------------------------------
          | TOTAL ENERGY             -209.913978776583 Eh   |
          | GRADIENT NORM               0.035227713960 Eh/α |
Note: The following floating-point exceptions are signalling: IEEE_UNDERFLOW_FLAG
normal termination of xtb
          | HOMO-LUMO GAP               0.121466103624 eV   |
           -------------------------------------------------
########################################################################
[WARNING] Runtime exception occurred
-2- restart_readRestart: Multiplicity missmatch in restart file.
-1- restart_readRestart: Number of electron missmatch in restart file.
########################################################################

------------------------------------------------------------------------
 * finished run on 2024/11/07 at 16:15:54.320     
------------------------------------------------------------------------
 total:
 * wall-time:     0 d,  0 h,  0 min,  1.099 sec
 *  cpu-time:     0 d,  0 h,  0 min,  3.559 sec
 * ratio c/w:     3.239 speedup
 SCF:
 * wall-time:     0 d,  0 h,  0 min,  1.084 sec
 *  cpu-time:     0 d,  0 h,  0 min,  3.527 sec
 * ratio c/w:     3.253 speedup

