Optimization of monomers started
Stacking dimer
Calculating transfer integral
Reorganization energy (electron): 0.10808120837312972 eV
Reorganization energy (hole): 0.1919989116441923 eV
Electron Transfer integral J: 0.018 eV
Hole Transfer integral J: 0.025 eV
=                   |     
     |                         S. Grimme                         |     
     |          Mulliken Center for Theoretical Chemistry        |     
     |                    University of Bonn                     |     
      -----------------------------------------------------------      

   * xtb version 6.7.1 (edcfbbe) compiled by 'runner@Mac-1732539442253.local' on 2024-11-25

   xtb is free software: you can redistribute it and/or modify it under
   the terms of the GNU Lesser General Public License as published by
   the Free Software Foundation, either version 3 of the License, or
   (at your option) any later version.
   
   xtb is distributed in the hope that it will be useful,
   but WITHOUT ANY WARRANTY; without even the implied warranty of
   MERCHANTABILITY or FITNESS FOR A PARTICULAR PURPOSE.  See the
   GNU Lesser General Public License for more details.
   
   Cite this work as:
   * C. Bannwarth, E. Caldeweyher, S. Ehlert, A. Hansen, P. Pracht,
     J. Seibert, S. Spicher, S. Grimme, WIREs Comput. Mol. Sci., 2020, 11,
     e01493. DOI: 10.1002/wcms.1493
   
   for GFN2-xTB:
   * C. Bannwarth, S. Ehlert and S. Grimme., J. Chem. Theory Comput., 2019,
     15, 1652-1671. DOI: 10.1021/acs.jctc.8b01176
   for GFN1-xTB:
   * S. Grimme, C. Bannwarth, P. Shushkov, J. Chem. Theory Comput., 2017,
     13, 1989-2009. DOI: 10.1021/acs.jctc.7b00118
   for GFN0-xTB:
   * P. Pracht, E. Caldeweyher, S. Ehlert, S. Grimme, ChemRxiv, 2019, preprint.
     DOI: 10.26434/chemrxiv.8326202.v1
   for GFN-FF:
   * S. Spicher and S. Grimme, Angew. Chem. Int. Ed., 2020, 59, 15665-15673.
     DOI: 10.1002/anie.202004239
   
   for ALPB and GBSA implicit solvation:
   * S. Ehlert, M. Stahn, S. Spicher, S. Grimme, J. Chem. Theory Comput.,
     2021, 17, 4250-4261. DOI: 10.1021/acs.jctc.1c00471
   
   for ddCOSMO and CPCM-X implicit solvation:
   * M. Stahn, S. Ehlert, S. Grimme, J. Phys. Chem. A,
     2023, XX, XXXX-XXXX. DOI: 10.1021/acs.jpca.3c04382
   
   for DFT-D4:
   * E. Caldeweyher, C. Bannwarth and S. Grimme, J. Chem. Phys., 2017,
     147, 034112. DOI: 10.1063/1.4993215
   * E. Caldeweyher, S. Ehlert, A. Hansen, H. Neugebauer, S. Spicher,
     C. Bannwarth and S. Grimme, J. Chem. Phys., 2019, 150, 154122.
     DOI: 10.1063/1.5090222
   * E. Caldeweyher, J.-M. Mewes, S. Ehlert and S. Grimme, Phys. Chem. Chem. Phys.
     2020, 22, 8499-8512. DOI: 10.1039/D0CP00502A
   
   for sTDA-xTB:
   * S. Grimme and C. Bannwarth, J. Chem. Phys., 2016, 145, 054103.
     DOI: 10.1063/1.4959605
   
   in the mass-spec context:
   * V. Asgeirsson, C. Bauer and S. Grimme, Chem. Sci., 2017, 8, 4879.
     DOI: 10.1039/c7sc00601b
   * J. Koopman and S. Grimme, ACS Omega 2019, 4, 12, 15120-15133.
     DOI: 10.1021/acsomega.9b02011
   
   for metadynamics refer to:
   * S. Grimme, J. Chem. Theory Comput., 2019, 155, 2847-2862
     DOI: 10.1021/acs.jctc.9b00143
   
   for SPH calculations refer to:
   * S. Spicher and S. Grimme, J. Chem. Theory Comput., 2021, 17, 1701-1714
     DOI: 10.1021/acs.jctc.0c01306
   
   for ONIOM refer to:
   * C. Plett, A. Katbashev, S. Ehlert, S. Grimme, M. Bursch,
     Phys. Chem. Chem. Phys., 2023, 25, 17860-17868. DOI: 10.1039/D3CP02178E
   
   for DIPRO refer to:
   * J. Kohn, N. Gildemeister, S. Grimme, D. Fazzi, A. Hansen,
     J. Chem. Phys., 2023, just accepted.
   
   for PTB refer to:
   * S. Grimme, M. Mueller, A. Hansen, J. Chem. Phys., 2023, 158, 124111.
     DOI: 10.1063/5.0137838
   
   with help from (in alphabetical order)
   P. Atkinson, C. Bannwarth, F. Bohle, G. Brandenburg, E. Caldeweyher
   M. Checinski, S. Dohm, S. Ehlert, S. Ehrlich, I. Gerasimov, C. Hölzer
   A. Katbashev, J. Kohn, J. Koopman, C. Lavigne, S. Lehtola, F. März, M. Müller,
   F. Musil, H. Neugebauer, J. Pisarek, C. Plett, P. Pracht, F. Pultar,
   J. Seibert, P. Shushkov, S. Spicher, M. Stahn, M. Steiner, T. Strunk,
   J. Stückrath, T. Rose, and J. Unsleber
   
 * started run on 2024/12/10 at 14:15:13.442     
   ID    Z sym.   atoms
    1    6 C      1-9, 11, 12, 14-21, 23-34, 36, 37, 39-46, 48-50, 54, 56,
                  60, 63, 66, 69, 71, 72, 74, 75
    2    7 N      10, 13, 35, 38, 70, 73
    3    8 O      22, 47, 52, 53, 55, 57-59, 61, 62, 64, 65, 67, 68
    4    5 B      51
    5    1 H      76-111

           -------------------------------------------------
          |                Calculation Setup                |
           -------------------------------------------------

          program call               : xtb Base2CO2Me.mol --opt --gfn 2 --chrg 0 --uhf 1 --tight
          coordinate file            : Base2CO2Me.mol
          omp threads                :                     8

########################################################################
[WARNING] Please study the warnings concerning your input carefully
-2- prog_main: Charge in sdf/mol input was overwritten
-1- prog_main_parseArguments: Unknown option '--tight' provided
########################################################################

           -------------------------------------------------
          |                 G F N 2 - x T B                 |
           -------------------------------------------------

        Reference                      10.1021/acs.jctc.8b01176
      * Hamiltonian:
        H0-scaling (s, p, d)           1.850000    2.230000    2.230000
        zeta-weighting                 0.500000
      * Dispersion:
        s8                             2.700000
        a1                             0.520000
        a2                             5.000000
        s9                             5.000000
      * Repulsion:
        kExp                           1.500000    1.000000
        rExp                           1.000000
      * Coulomb:
        alpha                          2.000000
        third order                    shell-resolved
        anisotropic                    true
        a3                             3.000000
        a5                             4.000000
        cn-shift                       1.200000
        cn-exp                         4.000000
        max-rad                        5.000000

q/qsh data taken from xtbrestart
CAMM data taken from xtbrestart

          ...................................................
          :                      SETUP                      :
          :.................................................:
          :  # basis functions                 336          :
          :  # atomic orbitals                 336          :
          :  # shells                          186          :
          :  # electrons                       369          :
          :  max. iterations                   250          :
          :  Hamiltonian                  GFN2-xTB          :
          :  restarted?                       true          :
          :  GBSA solvation                  false          :
          :  PC potential                    false          :
          :  electronic temp.          300.0000000     K    :
          :  accuracy                    1.0000000          :
          :  -> integral cutoff          0.2500000E+02      :
          :  -> integral neglect         0.1000000E-07      :
          :  -> SCF convergence          0.1000000E-05 Eh   :
          :  -> wf. convergence          0.1000000E-03 e    :
          :  Broyden damping             0.4000000          :
          :  net charge                          0          :
          :  unpaired electrons                  1          :
          ...................................................

 iter      E             dE          RMSdq      gap      omega  full diag
   1   -211.0535907 -0.211054E+03  0.426E+00    0.08       0.0  T
   2   -205.2980560  0.575553E+01  0.492E+00    0.22       1.0  T
   3   -205.6872390 -0.389183E+00  0.406E+00    0.28       1.0  T
   4   -206.8532962 -0.116606E+01  0.383E+00    0.01       1.0  T
   5   -210.1363990 -0.328310E+01  0.302E+00    0.28       1.0  T
   6   -210.1945823 -0.581832E-01  0.227E+00    0.08       1.0  T
   7   -210.4068221 -0.212240E+00  0.237E+00    0.10       1.0  T
   8   -211.1363279 -0.729506E+00  0.191E+00    0.16       1.0  T
   9   -211.0675712  0.687567E-01  0.187E+00    0.23       1.0  T
  10   -211.3093437 -0.241772E+00  0.163E+00    0.12       1.0  T
  11   -211.3576261 -0.482824E-01  0.153E+00    0.11       1.0  T
  12   -211.3450029  0.126231E-01  0.150E+00    0.17       1.0  T
  13   -211.3665263 -0.215233E-01  0.145E+00    0.15       1.0  T
  14   -211.4462773 -0.797511E-01  0.136E+00    0.10       1.0  T
  15   -211.5138258 -0.675484E-01  0.107E+00    0.07       1.0  T
  16   -211.6273237 -0.113498E+00  0.868E-01    0.09       1.0  T
  17   -211.7240357 -0.967120E-01  0.436E-01    0.04       1.0  T
  18   -211.7409932 -0.169575E-01  0.334E-01    0.06       1.0  T
  19   -211.7442622 -0.326898E-02  0.287E-01    0.03       1.0  T
  20   -211.7400656  0.419666E-02  0.302E-01    0.06       1.0  T
  21   -211.7293140  0.107515E-01  0.335E-01    0.06       1.0  T
  22   -211.7576739 -0.283599E-01  0.928E-02    0.04       1.0  T
  23   -211.7587497 -0.107577E-02  0.654E-02    0.04       1.0  T
  24   -211.7580714  0.678322E-03  0.695E-02    0.04       1.0  T
  25   -211.7592423 -0.117096E-02  0.332E-02    0.04       1.0  T
  26   -211.7594033 -0.160942E-03  0.250E-02    0.04       1.0  T
  27   -211.7594418 -0.384890E-04  0.190E-02    0.04       1.0  T
  28   -211.7593725  0.692417E-04  0.222E-02    0.04       1.0  T
  29   -211.7595176 -0.145082E-03  0.835E-03    0.04       1.1  T
  30   -211.7595366 -0.190153E-04  0.340E-03    0.04       2.8  T
  31   -211.7595392 -0.253183E-05  0.187E-03    0.04       5.1  T
  32   -211.7595398 -0.619600E-06  0.126E-03    0.04       7.5  T
  33   -211.7595401 -0.309245E-06  0.818E-04    0.04      11.6  T
  34   -211.7595401 -0.527348E-07  0.609E-04    0.04      15.6  T

   *** convergence criteria satisfied after 34 iterations ***

         #    Occupation            Energy/Eh            Energy/eV
      -------------------------------------------------------------
         1        2.0000           -0.7596644             -20.6715
       ...           ...                  ...                  ...
       179        2.0000           -0.3891816             -10.5902
       180        2.0000           -0.3877905             -10.5523
       181        2.0000           -0.3875591             -10.5460
       182        1.9999           -0.3851319             -10.4800
       183        1.9869           -0.3804179             -10.3517
       184        1.6864           -0.3771554             -10.2629
       185        0.8091           -0.3748188             -10.1993 (HOMO)
       186        0.3212           -0.3734209             -10.1613 (LUMO)
       187        0.1933           -0.3728274             -10.1451
       188        0.0032           -0.3687808             -10.0350
       189                         -0.3272376              -8.9046
       190                         -0.3251616              -8.8481
       ...                                ...                  ...
       336                          4.7782871             130.0238
      -------------------------------------------------------------
                  HL-Gap            0.0013978 Eh            0.0380 eV
             Fermi-level           -0.3752733 Eh          -10.2117 eV

 SCC (total)                   0 d,  0 h,  0 min,  1.691 sec
 SCC setup                      ...        0 min,  0.001 sec (  0.041%)
 Dispersion                     ...        0 min,  0.002 sec (  0.098%)
 classical contributions        ...        0 min,  0.000 sec (  0.029%)
 integral evaluation            ...        0 min,  0.007 sec (  0.402%)
 iterations                     ...        0 min,  1.639 sec ( 96.930%)
 molecular gradient             ...        0 min,  0.038 sec (  2.244%)
 printout                       ...        0 min,  0.004 sec (  0.256%)

         :::::::::::::::::::::::::::::::::::::::::::::::::::::
         ::                     SUMMARY                     ::
         :::::::::::::::::::::::::::::::::::::::::::::::::::::
         :: total energy            -206.841929271802 Eh    ::
         :: gradient norm              5.288011576410 Eh/a0 ::
         :: HOMO-LUMO gap              0.038037032841 eV    ::
         ::.................................................::
         :: SCC energy              -211.755861457237 Eh    ::
         :: -> isotropic ES            0.380094128346 Eh    ::
         :: -> anisotropic ES          0.017830489157 Eh    ::
         :: -> anisotropic XC          0.060554688509 Eh    ::
         :: -> dispersion             -0.166537515187 Eh    ::
         :: repulsion energy           4.913932185435 Eh    ::
         :: add. restraining           0.000000000000 Eh    ::
         :: total charge               0.000000037171 e     ::
         :::::::::::::::::::::::::::::::::::::::::::::::::::::

      ----------------------------------------------------------- 
     |                   =====================                   |
     |                        A N C O P T                        |
     |                   =====================                   |
     |               Approximate Normal Coordinate               |
     |                Rational Function Optimizer                |
      ----------------------------------------------------------- 
      ----------------------------------------------------------- 
     |                   =====================                   |
     |                        A N C O P T                        |
     |                   =====================                   |
     |               Approximate Normal Coordinate               |
     |                Rational Function Optimizer                |
      ----------------------------------------------------------- 

          ...................................................
          :                      SETUP                      :
          :.................................................:
          :   optimization level            normal          :
          :   max. optcycles                   333          :
          :   ANC micro-cycles                  20          :
          :   degrees of freedom               327          :
          :.................................................:
          :   RF solver                   davidson          :
          :   write xtbopt.log                true          :
          :   linear?                        false          :
          :   energy convergence         0.5000000E-05 Eh   :
          :   grad. convergence          0.1000000E-02 Eh/α :
          :   maxmium RF displ.          1.0000000          :
          :   Hlow (freq-cutoff)         0.1000000E-01      :
          :   Hmax (freq-cutoff)         5.0000000          :
          :   S6 in model hess.         20.0000000          :
          ...................................................

generating ANC from exact Hessian ...
Using Lindh-Hessian (1995)
 Shifting diagonal of input Hessian by    9.9614569655650763E-003
 Lowest  eigenvalues of input Hessian
    0.000000    0.000000    0.000000    0.000000    0.000000    0.000000
    0.010000    0.010009    0.010095    0.010146    0.010174    0.010303
    0.010401    0.010514    0.010563    0.010727    0.010742    0.010896
 Highest eigenvalues
    3.381064    3.757652    3.933814    4.001514    4.910087    7.669342


........................................................................
.............................. CYCLE    1 ..............................
........................................................................

 iter      E             dE          RMSdq      gap      omega  full diag
   1   -211.7595402 -0.211760E+03  0.281E-04    0.04       0.0  T
   2   -211.7595268  0.134219E-04  0.692E-03    0.04       1.4  T
   3   -211.7595401 -0.132907E-04  0.819E-04    0.04      11.6  T
   4   -211.7595402 -0.133107E-06  0.266E-04    0.04      35.7  T
   5   -211.7595402  0.165318E-07  0.384E-04    0.04      24.7  T
     SCC iter.                  ...        0 min,  0.262 sec
     gradient                   ...        0 min,  0.036 sec
 * total energy  :  -206.8419293 Eh     change       -0.7427758E-07 Eh
   gradient norm :     5.2880109 Eh/α   predicted     0.0000000E+00 (-100.00%)
   displ. norm   :     0.7808551 α      lambda       -0.4044077E+01
   maximum displ.:     0.4641644 α      in ANC's #295, #273, #327, ...

........................................................................
.............................. CYCLE    2 ..............................
........................................................................

 iter      E             dE          RMSdq      gap      omega  full diag
   1   -211.6273201 -0.211627E+03  0.853E-01    0.06       0.0  T
   2   -210.3381474  0.128917E+01  0.233E+00    0.06       1.0  T
   3   -210.6212761 -0.283129E+00  0.220E+00    0.17       1.0  T
   4   -210.9424228 -0.321147E+00  0.173E+00    0.06       1.0  T
   5   -211.4827671 -0.540344E+00  0.123E+00    0.08       1.0  T
   6   -211.4539471  0.288200E-01  0.129E+00    0.05       1.0  T
   7   -211.5912539 -0.137307E+00  0.997E-01    0.02       1.0  T
   8   -211.6270722 -0.358183E-01  0.812E-01    0.09       1.0  T
   9   -211.4091547  0.217918E+00  0.118E+00    0.09       1.0  T
  10   -211.5623366 -0.153182E+00  0.788E-01    0.07       1.0  T
  11   -211.7091150 -0.146778E+00  0.483E-01    0.07       1.0  T
  12   -211.7418300 -0.327150E-01  0.269E-01    0.05       1.0  T
  13   -211.7503741 -0.854409E-02  0.235E-01    0.04       1.0  T
  14   -211.7475055  0.286857E-02  0.224E-01    0.04       1.0  T
  15   -211.7590081 -0.115026E-01  0.809E-02    0.04       1.0  T
  16   -211.7592210 -0.212875E-03  0.730E-02    0.04       1.0  T
  17   -211.7594368 -0.215841E-03  0.563E-02    0.04       1.0  T
  18   -211.7599867 -0.549877E-03  0.202E-02    0.03       1.0  T
  19   -211.7599487  0.379922E-04  0.220E-02    0.03       1.0  T
  20   -211.7600384 -0.896578E-04  0.106E-02    0.03       1.0  T
  21   -211.7600598 -0.213860E-04  0.386E-03    0.03       2.5  T
  22   -211.7600592  0.579390E-06  0.417E-03    0.03       2.3  T
  23   -211.7600620 -0.286389E-05  0.171E-03    0.03       5.5  T
  24   -211.7600627 -0.646296E-06  0.293E-04    0.03      32.4  T
  25   -211.7600627 -0.173185E-07  0.139E-04    0.03      68.4  T
     SCC iter.                  ...        0 min,  1.310 sec
     gradient                   ...        0 min,  0.038 sec
 * total energy  :  -208.6801184 Eh     change       -0.1838189E+01 Eh
   gradient norm :     1.1279509 Eh/α   predicted    -0.3254946E+01 (  77.07%)
   displ. norm   :     0.5609941 α      lambda       -0.5354428E+00
   maximum displ.:     0.1863444 α      in ANC's #251, #273, #222, ...

........................................................................
.............................. CYCLE    3 ..............................
........................................................................

 iter      E             dE          RMSdq      gap      omega  full diag
   1   -211.7645913 -0.211765E+03  0.606E-01    0.07       0.0  T
   2   -209.3457173  0.241887E+01  0.304E+00    0.02       1.0  T
   3   -211.6774492 -0.233173E+01  0.756E-01    0.07       1.0  T
   4   -211.3290031  0.348446E+00  0.142E+00    0.05       1.0  T
   5   -211.4408367 -0.111834E+00  0.129E+00    0.09       1.0  T
   6   -211.6275500 -0.186713E+00  0.101E+00    0.00       1.0  T
   7   -211.7671868 -0.139637E+00  0.463E-01    0.05       1.0  T
   8   -211.4943515  0.272835E+00  0.111E+00    0.07       1.0  T
   9   -211.7554286 -0.261077E+00  0.437E-01    0.03       1.0  T
  10   -211.7882810 -0.328524E-01  0.312E-01    0.04       1.0  T
  11   -211.8070130 -0.187319E-01  0.122E-01    0.04       1.0  T
  12   -211.8103198 -0.330682E-02  0.578E-02    0.03       1.0  T
  13   -211.8096702  0.649571E-03  0.657E-02    0.03       1.0  T
  14   -211.8104172 -0.747011E-03  0.227E-02    0.03       1.0  T
  15   -211.8104949 -0.776236E-04  0.171E-02    0.03       1.0  T
  16   -211.8105568 -0.619706E-04  0.629E-03    0.03       1.5  T
  17   -211.8105626 -0.574158E-05  0.202E-03    0.03       4.7  T
  18   -211.8105626  0.199457E-07  0.182E-03    0.03       5.2  T
  19   -211.8105629 -0.330671E-06  0.109E-03    0.03       8.7  T
  20   -211.8105631 -0.177005E-06  0.521E-04    0.03      18.2  T
  21   -211.8105631 -0.352331E-07  0.330E-04    0.03      28.8  T
     SCC iter.                  ...        0 min,  1.165 sec
     gradient                   ...        0 min,  0.036 sec
 * total energy  :  -209.0587747 Eh     change       -0.3786563E+00 Eh
   gradient norm :     0.5666817 Eh/α   predicted    -0.3519771E+00 (  -7.05%)
   displ. norm   :     0.5461322 α      lambda       -0.2408496E+00
   maximum displ.:     0.1444553 α      in ANC's #186, #230, #273, ...

........................................................................
.............................. CYCLE    4 ..............................
........................................................................

 iter      E             dE          RMSdq      gap      omega  full diag
   1   -211.8230167 -0.211823E+03  0.746E-01    0.07       0.0  T
   2   -209.0968610  0.272616E+01  0.328E+00    0.10       1.0  T
   3   -211.7126949 -0.261583E+01  0.881E-01    0.11       1.0  T
   4   -211.3785147  0.334180E+00  0.148E+00    0.07       1.0  T
   5   -211.5457117 -0.167197E+00  0.132E+00    0.08       1.0  T
   6   -211.7446694 -0.198958E+00  0.950E-01    0.00       1.0  T
   7   -211.8330172 -0.883478E-01  0.562E-01    0.05       1.0  T
   8   -211.5941365  0.238881E+00  0.110E+00    0.08       1.0  T
   9   -211.8608603 -0.266724E+00  0.382E-01    0.03       1.0  T
  10   -211.8830435 -0.221832E-01  0.265E-01    0.03       1.0  T
  11   -211.8934414 -0.103979E-01  0.145E-01    0.03       1.0  T
  12   -211.8974999 -0.405847E-02  0.834E-02    0.02       1.0  T
  13   -211.8950745  0.242539E-02  0.115E-01    0.03       1.0  T
  14   -211.8979972 -0.292276E-02  0.303E-02    0.02       1.0  T
  15   -211.8981485 -0.151250E-03  0.222E-02    0.03       1.0  T
  16   -211.8982463 -0.978191E-04  0.431E-03    0.03       2.2  T
  17   -211.8982472 -0.872439E-06  0.337E-03    0.03       2.8  T
  18   -211.8982480 -0.831990E-06  0.267E-03    0.03       3.6  T
  19   -211.8982487 -0.718020E-06  0.143E-03    0.03       6.6  T
  20   -211.8982490 -0.299528E-06  0.882E-04    0.03      10.8  T
  21   -211.8982491 -0.892595E-07  0.425E-04    0.03      22.4  T
     SCC iter.                  ...        0 min,  1.050 sec
     gradient                   ...        0 min,  0.037 sec
 * total energy  :  -209.2433013 Eh     change       -0.1845266E+00 Eh
   gradient norm :     0.3241677 Eh/α   predicted    -0.1563430E+00 ( -15.27%)
   displ. norm   :     0.5694906 α      lambda       -0.1340081E+00
   maximum displ.:     0.1286293 α      in ANC's #186, #230, #67, ...

........................................................................
.............................. CYCLE    5 ..............................
........................................................................

 iter      E             dE          RMSdq      gap      omega  full diag
   1   -211.9127334 -0.211913E+03  0.668E-01    0.05       0.0  T
   2   -209.2830649  0.262967E+01  0.325E+00    0.15       1.0  T
   3   -211.8821437 -0.259908E+01  0.589E-01    0.07       1.0  T
   4   -211.4241104  0.458033E+00  0.149E+00    0.06       1.0  T
   5   -211.6981186 -0.274008E+00  0.121E+00    0.04       1.0  T
   6   -211.8971046 -0.198986E+00  0.653E-01    0.05       1.0  T
   7   -211.9140603 -0.169557E-01  0.519E-01    0.04       1.0  T
   8   -211.7987439  0.115316E+00  0.827E-01    0.08       1.0  T
   9   -211.9576413 -0.158897E+00  0.238E-01    0.02       1.0  T
  10   -211.9600467 -0.240541E-02  0.225E-01    0.03       1.0  T
  11   -211.9694843 -0.943753E-02  0.692E-02    0.02       1.0  T
  12   -211.9675942  0.189004E-02  0.119E-01    0.02       1.0  T
  13   -211.9683123 -0.718055E-03  0.879E-02    0.02       1.0  T
  14   -211.9693774 -0.106510E-02  0.526E-02    0.02       1.0  T
  15   -211.9696609 -0.283529E-03  0.325E-02    0.02       1.0  T
  16   -211.9699034 -0.242505E-03  0.101E-02    0.02       1.0  T
  17   -211.9699035 -0.904478E-07  0.946E-03    0.02       1.0  T
  18   -211.9699177 -0.141906E-04  0.291E-03    0.02       3.3  T
  19   -211.9699181 -0.440481E-06  0.288E-03    0.02       3.3  T
  20   -211.9699188 -0.679080E-06  0.190E-03    0.02       5.0  T
  21   -211.9699191 -0.284932E-06  0.127E-03    0.02       7.5  T
  22   -211.9699193 -0.248707E-06  0.432E-04    0.02      22.0  T
  23   -211.9699193  0.208050E-07  0.508E-04    0.02      18.7  T
     SCC iter.                  ...        0 min,  1.115 sec
     gradient                   ...        0 min,  0.043 sec
 * total energy  :  -209.3406562 Eh     change       -0.9735484E-01 Eh
   gradient norm :     0.1767859 Eh/α   predicted    -0.8873490E-01 (  -8.85%)
   displ. norm   :     0.5821404 α      lambda       -0.5988264E-01
   maximum displ.:     0.1868017 α      in ANC's #67, #60, #62, ...

........................................................................
.............................. CYCLE    6 ..............................
........................................................................

 iter      E             dE          RMSdq      gap      omega  full diag
   1   -212.0031414 -0.212003E+03  0.418E-01    0.03       0.0  T
   2   -210.5785918  0.142455E+01  0.241E+00    0.06       1.0  T
   3   -211.9394352 -0.136084E+01  0.588E-01    0.06       1.0  T
   4   -211.9550552 -0.156199E-01  0.573E-01    0.03       1.0  T
   5   -211.6882142  0.266841E+00  0.118E+00    0.06       1.0  T
   6   -211.9195231 -0.231309E+00  0.659E-01    0.03       1.0  T
   7   -211.9771471 -0.576239E-01  0.503E-01    0.02       1.0  T
   8   -212.0029134 -0.257664E-01  0.275E-01    0.03       1.0  T
   9   -212.0140580 -0.111445E-01  0.186E-01    0.02       1.0  T
  10   -212.0160165 -0.195859E-02  0.140E-01    0.02       1.0  T
  11   -212.0168355 -0.818954E-03  0.123E-01    0.03       1.0  T
  12   -212.0178466 -0.101107E-02  0.917E-02    0.03       1.0  T
  13   -212.0165546  0.129196E-02  0.112E-01    0.02       1.0  T
  14   -212.0198156 -0.326101E-02  0.423E-02    0.02       1.0  T
  15   -212.0200003 -0.184744E-03  0.220E-02    0.02       1.0  T
  16   -212.0200931 -0.927364E-04  0.665E-03    0.02       1.4  T
  17   -212.0200957 -0.265799E-05  0.540E-03    0.02       1.8  T
  18   -212.0200997 -0.394531E-05  0.248E-03    0.02       3.8  T
  19   -212.0201007 -0.103341E-05  0.177E-03    0.02       5.4  T
  20   -212.0201015 -0.757579E-06  0.646E-04    0.02      14.7  T
  21   -212.0201016 -0.714371E-07  0.264E-04    0.02      35.9  T
     SCC iter.                  ...        0 min,  1.180 sec
     gradient                   ...        0 min,  0.036 sec
 * total energy  :  -209.3856494 Eh     change       -0.4499326E-01 Eh
   gradient norm :     0.1200444 Eh/α   predicted    -0.4008810E-01 ( -10.90%)
   displ. norm   :     0.6254325 α      lambda       -0.3412382E-01
   maximum displ.:     0.2280269 α      in ANC's #67, #62, #22, ...

........................................................................
.............................. CYCLE    7 ..............................
........................................................................

 iter      E             dE          RMSdq      gap      omega  full diag
   1   -212.0591877 -0.212059E+03  0.265E-01    0.02       0.0  T
   2   -211.5596631  0.499525E+00  0.144E+00    0.02       1.0  T
   3   -211.9747874 -0.415124E+00  0.661E-01    0.09       1.0  T
   4   -211.9410214  0.337661E-01  0.757E-01    0.02       1.0  T
   5   -211.9859057 -0.448843E-01  0.634E-01    0.04       1.0  T
   6   -212.0012200 -0.153143E-01  0.567E-01    0.06       1.0  T
   7   -212.0279294 -0.267095E-01  0.413E-01    0.02       1.0  T
   8   -212.0548483 -0.269188E-01  0.182E-01    0.03       1.0  T
   9   -212.0581313 -0.328306E-02  0.143E-01    0.03       1.0  T
  10   -212.0614878 -0.335651E-02  0.771E-02    0.02       1.0  T
  11   -212.0611032  0.384667E-03  0.809E-02    0.02       1.0  T
  12   -212.0619967 -0.893496E-03  0.488E-02    0.02       1.0  T
  13   -212.0621353 -0.138621E-03  0.370E-02    0.02       1.0  T
  14   -212.0623862 -0.250967E-03  0.168E-02    0.02       1.0  T
  15   -212.0623922 -0.597543E-05  0.148E-02    0.02       1.0  T
  16   -212.0624319 -0.396452E-04  0.472E-03    0.02       2.0  T
  17   -212.0624340 -0.211780E-05  0.314E-03    0.02       3.0  T
  18   -212.0624353 -0.128243E-05  0.202E-03    0.02       4.7  T
  19   -212.0624359 -0.606796E-06  0.741E-04    0.02      12.8  T
  20   -212.0624360 -0.104967E-06  0.347E-04    0.02      27.3  T
     SCC iter.                  ...        0 min,  1.070 sec
     gradient                   ...        0 min,  0.037 sec
 * total energy  :  -209.4126443 Eh     change       -0.2699490E-01 Eh
   gradient norm :     0.0914499 Eh/α   predicted    -0.2373596E-01 ( -12.07%)
   displ. norm   :     0.6674285 α      lambda       -0.2444406E-01
   maximum displ.:     0.2350601 α      in ANC's #67, #22, #62, ...

........................................................................
.............................. CYCLE    8 ..............................
........................................................................

 iter      E             dE          RMSdq      gap      omega  full diag
   1   -212.1008715 -0.212101E+03  0.240E-01    0.02       0.0  T
   2   -211.8013968  0.299475E+00  0.120E+00    0.18       1.0  T
   3   -212.0753045 -0.273908E+00  0.400E-01    0.05       1.0  T
   4   -211.9703252  0.104979E+00  0.838E-01    0.05       1.0  T
   5   -211.8093586  0.160967E+00  0.115E+00    0.06       1.0  T
   6   -212.0911742 -0.281816E+00  0.262E-01    0.03       1.0  T
   7   -212.0905142  0.659960E-03  0.245E-01    0.03       1.0  T
   8   -212.0991974 -0.868314E-02  0.135E-01    0.03       1.0  T
   9   -212.0983570  0.840368E-03  0.138E-01    0.03       1.0  T
  10   -212.1026831 -0.432608E-02  0.486E-02    0.02       1.0  T
  11   -212.1029244 -0.241306E-03  0.341E-02    0.02       1.0  T
  12   -212.1030447 -0.120325E-03  0.189E-02    0.02       1.0  T
  13   -212.1030905 -0.457496E-04  0.849E-03    0.02       1.1  T
  14   -212.1030849  0.560865E-05  0.101E-02    0.02       1.0  T
  15   -212.1030943 -0.939903E-05  0.734E-03    0.02       1.3  T
  16   -212.1031030 -0.871856E-05  0.318E-03    0.02       3.0  T
  17   -212.1031052 -0.222177E-05  0.724E-04    0.02      13.1  T
  18   -212.1031053 -0.116902E-06  0.208E-04    0.02      45.7  T
  19   -212.1031053 -0.288162E-08  0.187E-04    0.02      50.7  T
     SCC iter.                  ...        0 min,  0.924 sec
     gradient                   ...        0 min,  0.036 sec
 * total energy  :  -209.4325936 Eh     change       -0.1994922E-01 Eh
   gradient norm :     0.0684078 Eh/α   predicted    -0.1766661E-01 ( -11.44%)
   displ. norm   :     0.6920649 α      lambda       -0.1884974E-01
   maximum displ.:     0.2101035 α      in ANC's #67, #22, #23, ...

........................................................................
.............................. CYCLE    9 ..............................
........................................................................

 iter      E             dE          RMSdq      gap      omega  full diag
   1   -212.1363514 -0.212136E+03  0.261E-01    0.03       0.0  T
   2   -211.8386873  0.297664E+00  0.124E+00    0.12       1.0  T
   3   -212.1118492 -0.273162E+00  0.407E-01    0.05       1.0  T
   4   -211.9619136  0.149936E+00  0.902E-01    0.12       1.0  T
   5   -211.9619387 -0.251430E-04  0.952E-01    0.08       1.0  T
   6   -212.1337977 -0.171859E+00  0.172E-01    0.03       1.0  T
   7   -212.1373922 -0.359445E-02  0.135E-01    0.03       1.0  T
   8   -212.1340099  0.338229E-02  0.189E-01    0.02       1.0  T
   9   -212.1380597 -0.404979E-02  0.998E-02    0.03       1.0  T
  10   -212.1400154 -0.195570E-02  0.520E-02    0.03       1.0  T
  11   -212.1403447 -0.329333E-03  0.351E-02    0.03       1.0  T
  12   -212.1402706  0.741628E-04  0.358E-02    0.03       1.0  T
  13   -212.1404990 -0.228407E-03  0.122E-02    0.03       1.0  T
  14   -212.1405310 -0.320584E-04  0.502E-03    0.03       1.9  T
  15   -212.1405264  0.460447E-05  0.647E-03    0.03       1.5  T
  16   -212.1405301 -0.363168E-05  0.486E-03    0.03       2.0  T
  17   -212.1405352 -0.511708E-05  0.882E-04    0.03      10.8  T
  18   -212.1405352 -0.405041E-07  0.713E-04    0.03      13.3  T
  19   -212.1405353 -0.552687E-07  0.419E-04    0.03      22.6  T
     SCC iter.                  ...        0 min,  0.990 sec
     gradient                   ...        0 min,  0.035 sec
 * total energy  :  -209.4480344 Eh     change       -0.1544082E-01 Eh
   gradient norm :     0.0530250 Eh/α   predicted    -0.1393896E-01 (  -9.73%)
   displ. norm   :     0.7086424 α      lambda       -0.1411884E-01
   maximum displ.:     0.2257475 α      in ANC's #22, #23, #33, ...

........................................................................
.............................. CYCLE   10 ..............................
........................................................................

 iter      E             dE          RMSdq      gap      omega  full diag
   1   -212.1645449 -0.212165E+03  0.257E-01    0.04       0.0  T
   2   -211.9326697  0.231875E+00  0.103E+00    0.05       1.0  T
   3   -212.0823635 -0.149694E+00  0.643E-01    0.10       1.0  T
   4   -212.0555181  0.268454E-01  0.807E-01    0.09       1.0  T
   5   -212.1114286 -0.559105E-01  0.546E-01    0.05       1.0  T
   6   -212.1592092 -0.477806E-01  0.203E-01    0.04       1.0  T
   7   -212.1650652 -0.585593E-02  0.156E-01    0.04       1.0  T
   8   -212.1652448 -0.179672E-03  0.156E-01    0.03       1.0  T
   9   -212.1686438 -0.339901E-02  0.654E-02    0.03       1.0  T
  10   -212.1692159 -0.572081E-03  0.405E-02    0.03       1.0  T
  11   -212.1693059 -0.900196E-04  0.341E-02    0.03       1.0  T
  12   -212.1695491 -0.243196E-03  0.133E-02    0.03       1.0  T
  13   -212.1695439  0.525425E-05  0.122E-02    0.03       1.0  T
  14   -212.1695733 -0.293745E-04  0.329E-03    0.03       2.9  T
  15   -212.1695753 -0.207764E-05  0.127E-03    0.03       7.5  T
  16   -212.1695756 -0.221460E-06  0.587E-04    0.03      16.2  T
  17   -212.1695756 -0.878580E-08  0.503E-04    0.03      18.9  T
     SCC iter.                  ...        0 min,  0.783 sec
     gradient                   ...        0 min,  0.036 sec
 * total energy  :  -209.4597132 Eh     change       -0.1167882E-01 Eh
   gradient norm :     0.0502929 Eh/α   predicted    -0.1060455E-01 (  -9.20%)
   displ. norm   :     0.7316114 α      lambda       -0.1109887E-01
   maximum displ.:     0.2562577 α      in ANC's #23, #22, #8, ...

........................................................................
.............................. CYCLE   11 ..............................
........................................................................

 iter      E             dE          RMSdq      gap      omega  full diag
   1   -212.1848031 -0.212185E+03  0.228E-01    0.04       0.0  T
   2   -211.8701666  0.314636E+00  0.117E+00    0.20       1.0  T
   3   -212.1321263 -0.261960E+00  0.558E-01    0.10       1.0  T
   4   -212.1423065 -0.101802E-01  0.538E-01    0.02       1.0  T
   5   -212.1416180  0.688504E-03  0.418E-01    0.05       1.0  T
   6   -212.1638497 -0.222318E-01  0.366E-01    0.07       1.0  T
   7   -212.1813633 -0.175135E-01  0.191E-01    0.05       1.0  T
   8   -212.1875257 -0.616245E-02  0.812E-02    0.03       1.0  T
   9   -212.1883253 -0.799604E-03  0.602E-02    0.03       1.0  T
  10   -212.1888115 -0.486153E-03  0.384E-02    0.04       1.0  T
  11   -212.1889475 -0.135992E-03  0.244E-02    0.04       1.0  T
  12   -212.1889998 -0.523216E-04  0.141E-02    0.03       1.0  T
  13   -212.1889743  0.255206E-04  0.167E-02    0.03       1.0  T
  14   -212.1890115 -0.372269E-04  0.105E-02    0.03       1.0  T
  15   -212.1890298 -0.183384E-04  0.472E-03    0.03       2.0  T
  16   -212.1890328 -0.299473E-05  0.253E-03    0.03       3.8  T
  17   -212.1890339 -0.111300E-05  0.102E-03    0.03       9.4  T
  18   -212.1890342 -0.222704E-06  0.284E-04    0.03      33.5  T
  19   -212.1890342 -0.145610E-07  0.619E-05    0.03     153.4  T
     SCC iter.                  ...        0 min,  0.989 sec
     gradient                   ...        0 min,  0.037 sec
 * total energy  :  -209.4692159 Eh     change       -0.9502665E-02 Eh
   gradient norm :     0.0503958 Eh/α   predicted    -0.8519818E-02 ( -10.34%)
   displ. norm   :     0.7623323 α      lambda       -0.9938564E-02
   maximum displ.:     0.2842409 α      in ANC's #23, #22, #8, ...

........................................................................
.............................. CYCLE   12 ..............................
........................................................................

 iter      E             dE          RMSdq      gap      omega  full diag
   1   -212.1993311 -0.212199E+03  0.211E-01    0.05       0.0  T
   2   -211.8089535  0.390378E+00  0.134E+00    0.25       1.0  T
   3   -212.1699883 -0.361035E+00  0.424E-01    0.07       1.0  T
   4   -212.1574638  0.125245E-01  0.523E-01    0.02       1.0  T
   5   -212.1624329 -0.496913E-02  0.375E-01    0.03       1.0  T
   6   -212.2001774 -0.377444E-01  0.111E-01    0.05       1.0  T
   7   -212.1884157  0.117617E-01  0.258E-01    0.05       1.0  T
   8   -212.2019062 -0.134905E-01  0.617E-02    0.03       1.0  T
   9   -212.2018383  0.678610E-04  0.657E-02    0.04       1.0  T
  10   -212.2024778 -0.639436E-03  0.396E-02    0.04       1.0  T
  11   -212.2025728 -0.950476E-04  0.299E-02    0.04       1.0  T
  12   -212.2026997 -0.126918E-03  0.136E-02    0.04       1.0  T
  13   -212.2027026 -0.286405E-05  0.137E-02    0.04       1.0  T
  14   -212.2027050 -0.239343E-05  0.131E-02    0.04       1.0  T
  15   -212.2027317 -0.266837E-04  0.654E-03    0.04       1.5  T
  16   -212.2027392 -0.752976E-05  0.176E-03    0.04       5.4  T
  17   -212.2027399 -0.652479E-06  0.476E-04    0.04      19.9  T
  18   -212.2027399 -0.259016E-07  0.263E-04    0.04      36.1  T
     SCC iter.                  ...        0 min,  0.972 sec
     gradient                   ...        0 min,  0.037 sec
 * total energy  :  -209.4779571 Eh     change       -0.8741190E-02 Eh
   gradient norm :     0.0464783 Eh/α   predicted    -0.7857186E-02 ( -10.11%)
   displ. norm   :     0.7894726 α      lambda       -0.9343876E-02
   maximum displ.:     0.3004089 α      in ANC's #23, #8, #22, ...

........................................................................
.............................. CYCLE   13 ..............................
........................................................................

 iter      E             dE          RMSdq      gap      omega  full diag
   1   -212.2065836 -0.212207E+03  0.224E-01    0.05       0.0  T
   2   -211.8895674  0.317016E+00  0.128E+00    0.16       1.0  T
   3   -212.0782633 -0.188696E+00  0.820E-01    0.16       1.0  T
   4   -212.1534813 -0.752181E-01  0.518E-01    0.05       1.0  T
   5   -212.1301710  0.233103E-01  0.653E-01    0.04       1.0  T
   6   -212.1985857 -0.684147E-01  0.228E-01    0.04       1.0  T
   7   -212.1930488  0.553693E-02  0.272E-01    0.02       1.0  T
   8   -212.2089952 -0.159464E-01  0.722E-02    0.04       1.0  T
   9   -212.2095851 -0.589906E-03  0.487E-02    0.04       1.0  T
  10   -212.2098896 -0.304458E-03  0.408E-02    0.04       1.0  T
  11   -212.2098505  0.390934E-04  0.417E-02    0.04       1.0  T
  12   -212.2100867 -0.236214E-03  0.213E-02    0.04       1.0  T
  13   -212.2101545 -0.677990E-04  0.112E-02    0.04       1.0  T
  14   -212.2101396  0.149020E-04  0.139E-02    0.04       1.0  T
  15   -212.2101571 -0.174935E-04  0.102E-02    0.04       1.0  T
  16   -212.2101777 -0.206322E-04  0.189E-03    0.04       5.0  T
  17   -212.2101785 -0.722563E-06  0.449E-04    0.04      21.2  T
  18   -212.2101785 -0.212285E-07  0.285E-04    0.04      33.3  T
     SCC iter.                  ...        0 min,  0.900 sec
     gradient                   ...        0 min,  0.035 sec
 * total energy  :  -209.4862477 Eh     change       -0.8290650E-02 Eh
   gradient norm :     0.0402103 Eh/α   predicted    -0.7583814E-02 (  -8.53%)
   displ. norm   :     0.8050135 α      lambda       -0.8625097E-02
   maximum displ.:     0.3270102 α      in ANC's #8, #23, #22, ...

........................................................................
.............................. CYCLE   14 ..............................
........................................................................

 iter      E             dE          RMSdq      gap      omega  full diag
   1   -212.2086303 -0.212209E+03  0.277E-01    0.03       0.0  T
   2   -211.9362736  0.272357E+00  0.129E+00    0.06       1.0  T
   3   -212.0765427 -0.140269E+00  0.819E-01    0.12       1.0  T
   4   -212.1801358 -0.103593E+00  0.395E-01    0.11       1.0  T
   5   -212.0495113  0.130624E+00  0.864E-01    0.05       1.0  T
   6   -212.1935626 -0.144051E+00  0.319E-01    0.06       1.0  T
   7   -212.1896893  0.387324E-02  0.303E-01    0.04       1.0  T
   8   -212.2095153 -0.198260E-01  0.148E-01    0.06       1.0  T
   9   -212.2135970 -0.408166E-02  0.947E-02    0.04       1.0  T
  10   -212.2148471 -0.125014E-02  0.523E-02    0.04       1.0  T
  11   -212.2149715 -0.124401E-03  0.461E-02    0.04       1.0  T
  12   -212.2153308 -0.359290E-03  0.216E-02    0.04       1.0  T
  13   -212.2153646 -0.337421E-04  0.141E-02    0.03       1.0  T
  14   -212.2153952 -0.306397E-04  0.703E-03    0.04       1.4  T
  15   -212.2154051 -0.983909E-05  0.142E-03    0.04       6.7  T
  16   -212.2154050  0.266242E-07  0.125E-03    0.04       7.6  T
  17   -212.2154053 -0.251547E-06  0.560E-04    0.04      16.9  T
  18   -212.2154053 -0.485868E-07  0.296E-04    0.04      32.1  T
     SCC iter.                  ...        0 min,  0.912 sec
     gradient                   ...        0 min,  0.039 sec
 * total energy  :  -209.4939321 Eh     change       -0.7684346E-02 Eh
   gradient norm :     0.0357793 Eh/α   predicted    -0.7107293E-02 (  -7.51%)
   displ. norm   :     0.8374189 α      lambda       -0.8055013E-02
   maximum displ.:     0.3612519 α      in ANC's #8, #22, #23, ...

........................................................................
.............................. CYCLE   15 ..............................
........................................................................

 iter      E             dE          RMSdq      gap      omega  full diag
   1   -212.1970167 -0.212197E+03  0.382E-01    0.00       0.0  T
   2   -211.7176181  0.479399E+00  0.157E+00    0.19       1.0  T
   3   -212.0419678 -0.324350E+00  0.971E-01    0.10       1.0  T
   4   -212.1898763 -0.147908E+00  0.331E-01    0.06       1.0  T
   5   -212.0190210  0.170855E+00  0.867E-01    0.09       1.0  T
   6   -212.1507326 -0.131712E+00  0.450E-01    0.03       1.0  T
   7   -212.2108687 -0.601361E-01  0.125E-01    0.04       1.0  T
   8   -212.1917912  0.190775E-01  0.311E-01    0.04       1.0  T
   9   -212.2133495 -0.215583E-01  0.630E-02    0.03       1.0  T
  10   -212.2138981 -0.548605E-03  0.514E-02    0.02       1.0  T
  11   -212.2140124 -0.114284E-03  0.427E-02    0.02       1.0  T
  12   -212.2142516 -0.239239E-03  0.228E-02    0.03       1.0  T
  13   -212.2143063 -0.546869E-04  0.132E-02    0.03       1.0  T
  14   -212.2143381 -0.317764E-04  0.401E-03    0.03       2.4  T
  15   -212.2143397 -0.164890E-05  0.243E-03    0.03       3.9  T
  16   -212.2143405 -0.761256E-06  0.641E-04    0.03      14.8  T
  17   -212.2143404  0.476486E-07  0.714E-04    0.03      13.3  T
     SCC iter.                  ...        0 min,  0.784 sec
     gradient                   ...        0 min,  0.037 sec
 * total energy  :  -209.5013086 Eh     change       -0.7376545E-02 Eh
   gradient norm :     0.0362451 Eh/α   predicted    -0.6851884E-02 (  -7.11%)
   displ. norm   :     0.8616228 α      lambda       -0.8750727E-02
   maximum displ.:     0.3975024 α      in ANC's #8, #22, #23, ...

........................................................................
.............................. CYCLE   16 ..............................
........................................................................

 iter      E             dE          RMSdq      gap      omega  full diag
   1   -212.1880551 -0.212188E+03  0.511E-01    0.03       0.0  T
   2   -211.4129180  0.775137E+00  0.181E+00    0.02       1.0  T
   3   -212.0841712 -0.671253E+00  0.840E-01    0.10       1.0  T
   4   -212.1695738 -0.854026E-01  0.466E-01    0.06       1.0  T
   5   -211.8210306  0.348543E+00  0.116E+00    0.15       1.0  T
   6   -212.1103308 -0.289300E+00  0.679E-01    0.09       1.0  T
   7   -212.2025725 -0.922416E-01  0.323E-01    0.02       1.0  T
   8   -212.2127061 -0.101337E-01  0.220E-01    0.02       1.0  T
   9   -212.2189044 -0.619826E-02  0.120E-01    0.03       1.0  T
  10   -212.2221733 -0.326890E-02  0.534E-02    0.02       1.0  T
  11   -212.2222457 -0.723629E-04  0.392E-02    0.02       1.0  T
  12   -212.2225992 -0.353567E-03  0.166E-02    0.02       1.0  T
  13   -212.2226207 -0.214936E-04  0.113E-02    0.02       1.0  T
  14   -212.2226387 -0.179197E-04  0.574E-03    0.02       1.7  T
  15   -212.2226437 -0.501504E-05  0.285E-03    0.02       3.3  T
  16   -212.2226445 -0.828121E-06  0.118E-03    0.02       8.0  T
  17   -212.2226446 -0.886512E-07  0.645E-04    0.02      14.7  T
  18   -212.2226447 -0.626687E-07  0.491E-04    0.02      19.3  T
     SCC iter.                  ...        0 min,  0.959 sec
     gradient                   ...        0 min,  0.037 sec
 * total energy  :  -209.5089962 Eh     change       -0.7687565E-02 Eh
   gradient norm :     0.0433712 Eh/α   predicted    -0.7623613E-02 (  -0.83%)
   displ. norm   :     0.8745677 α      lambda       -0.9446327E-02
   maximum displ.:     0.3947057 α      in ANC's #8, #22, #23, ...

........................................................................
.............................. CYCLE   17 ..............................
........................................................................

 iter      E             dE          RMSdq      gap      omega  full diag
   1   -212.2019617 -0.212202E+03  0.409E-01    0.03       0.0  T
   2   -211.7387646  0.463197E+00  0.150E+00    0.14       1.0  T
   3   -212.1164779 -0.377713E+00  0.705E-01    0.08       1.0  T
   4   -212.1034803  0.129977E-01  0.718E-01    0.08       1.0  T
   5   -212.0799851  0.234952E-01  0.785E-01    0.10       1.0  T
   6   -212.1863547 -0.106370E+00  0.318E-01    0.03       1.0  T
   7   -212.1639073  0.224475E-01  0.398E-01    0.04       1.0  T
   8   -212.2114811 -0.475738E-01  0.108E-01    0.03       1.0  T
   9   -212.2117646 -0.283541E-03  0.104E-01    0.01       1.0  T
  10   -212.2127216 -0.957004E-03  0.759E-02    0.02       1.0  T
  11   -212.2136981 -0.976510E-03  0.371E-02    0.02       1.0  T
  12   -212.2136830  0.151246E-04  0.317E-02    0.02       1.0  T
  13   -212.2139273 -0.244303E-03  0.130E-02    0.02       1.0  T
  14   -212.2139467 -0.193781E-04  0.721E-03    0.02       1.3  T
  15   -212.2139492 -0.256163E-05  0.511E-03    0.02       1.9  T
  16   -212.2139563 -0.709226E-05  0.176E-03    0.02       5.4  T
  17   -212.2139569 -0.590900E-06  0.910E-04    0.02      10.4  T
  18   -212.2139571 -0.160445E-06  0.403E-04    0.02      23.5  T
     SCC iter.                  ...        0 min,  0.942 sec
     gradient                   ...        0 min,  0.036 sec
 * total energy  :  -209.5178506 Eh     change       -0.8854414E-02 Eh
   gradient norm :     0.0535343 Eh/α   predicted    -0.8335765E-02 (  -5.86%)
   displ. norm   :     0.8165964 α      lambda       -0.1228679E-01
   maximum displ.:     0.3294089 α      in ANC's #8, #22, #23, ...

........................................................................
.............................. CYCLE   18 ..............................
........................................................................

 iter      E             dE          RMSdq      gap      omega  full diag
   1   -212.2061598 -0.212206E+03  0.395E-01    0.04       0.0  T
   2   -211.8084091  0.397751E+00  0.119E+00    0.19       1.0  T
   3   -212.1390126 -0.330604E+00  0.559E-01    0.05       1.0  T
   4   -211.9183874  0.220625E+00  0.104E+00    0.08       1.0  T
   5   -212.0591125 -0.140725E+00  0.801E-01    0.17       1.0  T
   6   -212.1866794 -0.127567E+00  0.362E-01    0.02       1.0  T
   7   -212.1757255  0.109539E-01  0.336E-01    0.02       1.0  T
   8   -212.2040500 -0.283245E-01  0.199E-01    0.01       1.0  T
   9   -212.2089376 -0.488763E-02  0.124E-01    0.01       1.0  T
  10   -212.2106470 -0.170944E-02  0.948E-02    0.01       1.0  T
  11   -212.2120846 -0.143758E-02  0.527E-02    0.02       1.0  T
  12   -212.2125091 -0.424463E-03  0.179E-02    0.02       1.0  T
  13   -212.2125380 -0.289520E-04  0.114E-02    0.03       1.0  T
  14   -212.2125666 -0.285504E-04  0.687E-03    0.02       1.4  T
  15   -212.2125739 -0.735196E-05  0.373E-03    0.02       2.5  T
  16   -212.2125773 -0.336397E-05  0.135E-03    0.02       7.0  T
  17   -212.2125769  0.434669E-06  0.146E-03    0.02       6.5  T
  18   -212.2125775 -0.666029E-06  0.258E-04    0.02      36.8  T
  19   -212.2125775 -0.576455E-08  0.174E-04    0.02      54.6  T
     SCC iter.                  ...        0 min,  0.892 sec
     gradient                   ...        0 min,  0.037 sec
 * total energy  :  -209.5283854 Eh     change       -0.1053486E-01 Eh
   gradient norm :     0.0729938 Eh/α   predicted    -0.1024001E-01 (  -2.80%)
   displ. norm   :     0.7994416 α      lambda       -0.1436252E-01
   maximum displ.:     0.3405705 α      in ANC's #8, #22, #18, ...

........................................................................
.............................. CYCLE   19 ..............................
........................................................................

 iter      E             dE          RMSdq      gap      omega  full diag
   1   -212.1981125 -0.212198E+03  0.368E-01    0.06       0.0  T
   2   -211.7717384  0.426374E+00  0.126E+00    0.11       1.0  T
   3   -212.1070288 -0.335290E+00  0.602E-01    0.03       1.0  T
   4   -212.0690745  0.379543E-01  0.773E-01    0.07       1.0  T
   5   -212.0822081 -0.131335E-01  0.756E-01    0.09       1.0  T
   6   -212.1652725 -0.830644E-01  0.450E-01    0.04       1.0  T
   7   -212.1813301 -0.160576E-01  0.329E-01    0.05       1.0  T
   8   -212.1967477 -0.154176E-01  0.241E-01    0.01       1.0  T
   9   -212.2053729 -0.862521E-02  0.144E-01    0.01       1.0  T
  10   -212.2067461 -0.137326E-02  0.108E-01    0.02       1.0  T
  11   -212.2095890 -0.284284E-02  0.212E-02    0.03       1.0  T
  12   -212.2096432 -0.542363E-04  0.164E-02    0.03       1.0  T
  13   -212.2097143 -0.710488E-04  0.533E-03    0.03       1.8  T
  14   -212.2097205 -0.617851E-05  0.312E-03    0.03       3.0  T
  15   -212.2097216 -0.115466E-05  0.199E-03    0.03       4.8  T
  16   -212.2097225 -0.906392E-06  0.910E-04    0.03      10.4  T
  17   -212.2097226 -0.773692E-07  0.620E-04    0.03      15.3  T
     SCC iter.                  ...        0 min,  0.795 sec
     gradient                   ...        0 min,  0.037 sec
 * total energy  :  -209.5418429 Eh     change       -0.1345746E-01 Eh
   gradient norm :     0.0908975 Eh/α   predicted    -0.1177086E-01 ( -12.53%)
   displ. norm   :     0.8085371 α      lambda       -0.2147182E-01
   maximum displ.:     0.2654001 α      in ANC's #8, #18, #5, ...

........................................................................
.............................. CYCLE   20 ..............................
........................................................................

 iter      E             dE          RMSdq      gap      omega  full diag
   1   -212.2032119 -0.212203E+03  0.415E-01    0.06       0.0  T
   2   -211.7909702  0.412242E+00  0.128E+00    0.13       1.0  T
   3   -212.1307928 -0.339823E+00  0.707E-01    0.14       1.0  T
   4   -212.1979993 -0.672065E-01  0.368E-01    0.04       1.0  T
   5   -211.9055883  0.292411E+00  0.102E+00    0.20       1.0  T
   6   -212.1799302 -0.274342E+00  0.368E-01    0.02       1.0  T
   7   -212.1996550 -0.197247E-01  0.271E-01    0.03       1.0  T
   8   -212.2153544 -0.156995E-01  0.156E-01    0.02       1.0  T
   9   -212.2193757 -0.402122E-02  0.997E-02    0.03       1.0  T
  10   -212.2206130 -0.123737E-02  0.421E-02    0.02       1.0  T
  11   -212.2207606 -0.147602E-03  0.364E-02    0.02       1.0  T
  12   -212.2209049 -0.144272E-03  0.323E-02    0.02       1.0  T
  13   -212.2210659 -0.160980E-03  0.136E-02    0.03       1.0  T
  14   -212.2210962 -0.303353E-04  0.613E-03    0.03       1.5  T
  15   -212.2211010 -0.477279E-05  0.193E-03    0.03       4.9  T
  16   -212.2211015 -0.532297E-06  0.942E-04    0.03      10.1  T
  17   -212.2211017 -0.171222E-06  0.673E-04    0.03      14.1  T
     SCC iter.                  ...        0 min,  0.850 sec
     gradient                   ...        0 min,  0.037 sec
 * total energy  :  -209.5599836 Eh     change       -0.1814071E-01 Eh
   gradient norm :     0.1189751 Eh/α   predicted    -0.1775433E-01 (  -2.13%)
   displ. norm   :     0.7925668 α      lambda       -0.2439559E-01
   maximum displ.:     0.2955157 α      in ANC's #8, #22, #18, ...
 * RMSD in coord.:     0.9982224 α      energy gain  -0.2718054E+01 Eh

generating ANC from exact Hessian ...
Using Lindh-Hessian (1995)
 Shifting diagonal of input Hessian by    9.9215066021268155E-003
 Lowest  eigenvalues of input Hessian
    0.000000    0.000000    0.000000    0.000000    0.000000    0.000000
    0.010000    0.010050    0.010118    0.010133    0.010343    0.010393
    0.010454    0.010568    0.010785    0.010923    0.010991    0.011074
 Highest eigenvalues
    2.330811    2.378778    2.393499    2.402007    2.431777    2.512844


........................................................................
.............................. CYCLE   21 ..............................
........................................................................

 iter      E             dE          RMSdq      gap      omega  full diag
   1   -212.2064660 -0.212206E+03  0.318E-01    0.04       0.0  T
   2   -211.8779672  0.328499E+00  0.116E+00    0.38       1.0  T
   3   -212.1737605 -0.295793E+00  0.438E-01    0.11       1.0  T
   4   -212.1036031  0.701573E-01  0.691E-01    0.07       1.0  T
   5   -212.1152338 -0.116306E-01  0.565E-01    0.11       1.0  T
   6   -212.1751684 -0.599346E-01  0.458E-01    0.04       1.0  T
   7   -212.1769530 -0.178459E-02  0.388E-01    0.05       1.0  T
   8   -212.1912358 -0.142828E-01  0.330E-01    0.01       1.0  T
   9   -212.1954454 -0.420966E-02  0.301E-01    0.01       1.0  T
  10   -212.2126812 -0.172358E-01  0.115E-01    0.01       1.0  T
  11   -212.2152117 -0.253051E-02  0.245E-02    0.02       1.0  T
  12   -212.2153283 -0.116526E-03  0.119E-02    0.02       1.0  T
  13   -212.2153665 -0.382118E-04  0.474E-03    0.02       2.0  T
  14   -212.2153648  0.164137E-05  0.468E-03    0.02       2.0  T
  15   -212.2153694 -0.458369E-05  0.155E-03    0.02       6.1  T
  16   -212.2153695 -0.115459E-06  0.108E-03    0.02       8.8  T
  17   -212.2153697 -0.139110E-06  0.843E-04    0.02      11.3  T
  18   -212.2153698 -0.146964E-06  0.882E-05    0.02     107.6  T
     SCC iter.                  ...        0 min,  0.921 sec
     gradient                   ...        0 min,  0.036 sec
 * total energy  :  -209.5806059 Eh     change       -0.2062230E-01 Eh
   gradient norm :     0.1343653 Eh/α   predicted     0.0000000E+00 (-100.00%)
   displ. norm   :     0.5840635 α      lambda       -0.3505745E-01
   maximum displ.:     0.2585444 α      in ANC's #34, #49, #28, ...

........................................................................
.............................. CYCLE   22 ..............................
........................................................................

 iter      E             dE          RMSdq      gap      omega  full diag
   1   -212.2170815 -0.212217E+03  0.419E-01    0.02       0.0  T
   2   -211.5404642  0.676617E+00  0.173E+00    0.15       1.0  T
   3   -212.1825308 -0.642067E+00  0.527E-01    0.06       1.0  T
   4   -212.1816612  0.869621E-03  0.567E-01    0.02       1.0  T
   5   -212.2283302 -0.466690E-01  0.333E-01    0.03       1.0  T
   6   -212.1951154  0.332148E-01  0.447E-01    0.01       1.0  T
   7   -212.2536691 -0.585537E-01  0.778E-02    0.04       1.0  T
   8   -212.2468675  0.680160E-02  0.185E-01    0.03       1.0  T
   9   -212.2538884 -0.702090E-02  0.634E-02    0.03       1.0  T
  10   -212.2538291  0.592615E-04  0.584E-02    0.02       1.0  T
  11   -212.2547518 -0.922663E-03  0.216E-02    0.02       1.0  T
  12   -212.2548528 -0.101031E-03  0.119E-02    0.02       1.0  T
  13   -212.2548883 -0.355157E-04  0.490E-03    0.02       1.9  T
  14   -212.2548920 -0.369209E-05  0.184E-03    0.02       5.2  T
  15   -212.2548927 -0.720765E-06  0.834E-04    0.02      11.4  T
  16   -212.2548928 -0.851537E-07  0.638E-04    0.02      14.9  T
     SCC iter.                  ...        0 min,  0.855 sec
     gradient                   ...        0 min,  0.038 sec
 * total energy  :  -209.6087941 Eh     change       -0.2818816E-01 Eh
   gradient norm :     0.0676739 Eh/α   predicted    -0.2350830E-01 ( -16.60%)
   displ. norm   :     0.7525436 α      lambda       -0.2839146E-01
   maximum displ.:     0.3336897 α      in ANC's #34, #28, #49, ...

........................................................................
.............................. CYCLE   23 ..............................
........................................................................

 iter      E             dE          RMSdq      gap      omega  full diag
   1   -212.2411889 -0.212241E+03  0.480E-01    0.04       0.0  T
   2   -211.4378625  0.803326E+00  0.188E+00    0.12       1.0  T
   3   -212.1631619 -0.725299E+00  0.710E-01    0.02       1.0  T
   4   -212.2616628 -0.985010E-01  0.346E-01    0.07       1.0  T
   5   -212.2766664 -0.150035E-01  0.254E-01    0.05       1.0  T
   6   -212.2363453  0.403211E-01  0.467E-01    0.02       1.0  T
   7   -212.2869310 -0.505857E-01  0.171E-01    0.04       1.0  T
   8   -212.2819385  0.499250E-02  0.209E-01    0.06       1.0  T
   9   -212.2892430 -0.730450E-02  0.113E-01    0.03       1.0  T
  10   -212.2926511 -0.340810E-02  0.375E-02    0.04       1.0  T
  11   -212.2924428  0.208248E-03  0.432E-02    0.04       1.0  T
  12   -212.2929342 -0.491316E-03  0.164E-02    0.04       1.0  T
  13   -212.2929954 -0.612490E-04  0.882E-03    0.04       1.1  T
  14   -212.2930106 -0.151598E-04  0.468E-03    0.04       2.0  T
  15   -212.2930136 -0.299638E-05  0.280E-03    0.04       3.4  T
  16   -212.2930154 -0.182574E-05  0.629E-04    0.04      15.1  T
  17   -212.2930155 -0.101456E-06  0.211E-04    0.04      45.1  T
  18   -212.2930155  0.131644E-07  0.268E-04    0.04      35.4  T
     SCC iter.                  ...        0 min,  0.901 sec
     gradient                   ...        0 min,  0.036 sec
 * total energy  :  -209.6326681 Eh     change       -0.2387407E-01 Eh
   gradient norm :     0.0454660 Eh/α   predicted    -0.2223509E-01 (  -6.87%)
   displ. norm   :     0.8151650 α      lambda       -0.2294849E-01
   maximum displ.:     0.3885648 α      in ANC's #34, #28, #12, ...

........................................................................
.............................. CYCLE   24 ..............................
........................................................................

 iter      E             dE          RMSdq      gap      omega  full diag
   1   -212.2953814 -0.212295E+03  0.358E-01    0.08       0.0  T
   2   -211.6687469  0.626635E+00  0.172E+00    0.18       1.0  T
   3   -212.2118388 -0.543092E+00  0.674E-01    0.07       1.0  T
   4   -212.3145590 -0.102720E+00  0.176E-01    0.09       1.0  T
   5   -212.2810507  0.335082E-01  0.404E-01    0.06       1.0  T
   6   -212.3032340 -0.221833E-01  0.250E-01    0.10       1.0  T
   7   -212.3092419 -0.600793E-02  0.229E-01    0.05       1.0  T
   8   -212.3191272 -0.988531E-02  0.899E-02    0.07       1.0  T
   9   -212.3208056 -0.167841E-02  0.271E-02    0.06       1.0  T
  10   -212.3207544  0.512527E-04  0.253E-02    0.07       1.0  T
  11   -212.3208551 -0.100687E-03  0.131E-02    0.07       1.0  T
  12   -212.3208515  0.353639E-05  0.136E-02    0.07       1.0  T
  13   -212.3208857 -0.341727E-04  0.795E-03    0.06       1.2  T
  14   -212.3209017 -0.160350E-04  0.288E-03    0.06       3.3  T
  15   -212.3209037 -0.191842E-05  0.148E-03    0.06       6.4  T
  16   -212.3209042 -0.572290E-06  0.287E-04    0.06      33.1  T
  17   -212.3209043 -0.225558E-07  0.747E-05    0.06     127.1  T
     SCC iter.                  ...        0 min,  0.755 sec
     gradient                   ...        0 min,  0.037 sec
 * total energy  :  -209.6523765 Eh     change       -0.1970839E-01 Eh
   gradient norm :     0.0467992 Eh/α   predicted    -0.1909884E-01 (  -3.09%)
   displ. norm   :     0.8108463 α      lambda       -0.1806730E-01
   maximum displ.:     0.4005533 α      in ANC's #34, #12, #28, ...

........................................................................
.............................. CYCLE   25 ..............................
........................................................................

 iter      E             dE          RMSdq      gap      omega  full diag
   1   -212.3339500 -0.212334E+03  0.229E-01    0.11       0.0  T
   2   -211.8895164  0.444434E+00  0.146E+00    0.10       1.0  T
   3   -212.2462933 -0.356777E+00  0.646E-01    0.11       1.0  T
   4   -212.3321732 -0.858799E-01  0.208E-01    0.11       1.0  T
   5   -212.3253834  0.678984E-02  0.277E-01    0.09       1.0  T
   6   -212.3344668 -0.908346E-02  0.155E-01    0.10       1.0  T
   7   -212.3346370 -0.170146E-03  0.167E-01    0.07       1.0  T
   8   -212.3414216 -0.678470E-02  0.357E-02    0.10       1.0  T
   9   -212.3415364 -0.114788E-03  0.243E-02    0.09       1.0  T
  10   -212.3415831 -0.467082E-04  0.172E-02    0.09       1.0  T
  11   -212.3415734  0.979203E-05  0.135E-02    0.09       1.0  T
  12   -212.3416234 -0.500690E-04  0.509E-03    0.09       1.9  T
  13   -212.3416289 -0.544935E-05  0.241E-03    0.09       3.9  T
  14   -212.3416300 -0.114049E-05  0.102E-03    0.09       9.3  T
  15   -212.3416300 -0.352462E-07  0.900E-04    0.09      10.5  T
  16   -212.3416302 -0.143047E-06  0.511E-04    0.09      18.6  T
     SCC iter.                  ...        0 min,  0.742 sec
     gradient                   ...        0 min,  0.038 sec
 * total energy  :  -209.6675830 Eh     change       -0.1520651E-01 Eh
   gradient norm :     0.0400895 Eh/α   predicted    -0.1497302E-01 (  -1.54%)
   displ. norm   :     0.7790968 α      lambda       -0.1337673E-01
   maximum displ.:     0.3911712 α      in ANC's #34, #12, #28, ...

........................................................................
.............................. CYCLE   26 ..............................
........................................................................

 iter      E             dE          RMSdq      gap      omega  full diag
   1   -212.3589664 -0.212359E+03  0.159E-01    0.12       0.0  T
   2   -212.2518498  0.107117E+00  0.691E-01    0.03       1.0  T
   3   -212.3375361 -0.856862E-01  0.336E-01    0.09       1.0  T
   4   -212.3538163 -0.162803E-01  0.188E-01    0.14       1.0  T
   5   -212.3601488 -0.633245E-02  0.844E-02    0.11       1.0  T
   6   -212.3574339  0.271491E-02  0.124E-01    0.10       1.0  T
   7   -212.3605762 -0.314229E-02  0.527E-02    0.11       1.0  T
   8   -212.3608043 -0.228163E-03  0.447E-02    0.10       1.0  T
   9   -212.3612082 -0.403835E-03  0.156E-02    0.11       1.0  T
  10   -212.3612394 -0.311775E-04  0.997E-03    0.11       1.0  T
  11   -212.3612491 -0.971924E-05  0.514E-03    0.11       1.8  T
  12   -212.3612548 -0.573886E-05  0.187E-03    0.11       5.1  T
  13   -212.3612557 -0.941134E-06  0.570E-04    0.11      16.6  T
  14   -212.3612557  0.432784E-07  0.565E-04    0.11      16.8  T
     SCC iter.                  ...        0 min,  0.719 sec
     gradient                   ...        0 min,  0.036 sec
 * total energy  :  -209.6788983 Eh     change       -0.1131524E-01 Eh
   gradient norm :     0.0272737 Eh/α   predicted    -0.1074815E-01 (  -5.01%)
   displ. norm   :     0.7819289 α      lambda       -0.1014986E-01
   maximum displ.:     0.3672193 α      in ANC's #34, #12, #28, ...

........................................................................
.............................. CYCLE   27 ..............................
........................................................................

 iter      E             dE          RMSdq      gap      omega  full diag
   1   -212.3785017 -0.212379E+03  0.141E-01    0.12       0.0  T
   2   -212.3262414  0.522603E-01  0.461E-01    0.09       1.0  T
   3   -212.3716103 -0.453689E-01  0.189E-01    0.12       1.0  T
   4   -212.3642653  0.734497E-02  0.282E-01    0.12       1.0  T
   5   -212.3450171  0.192482E-01  0.364E-01    0.16       1.0  T
   6   -212.3761098 -0.310926E-01  0.124E-01    0.11       1.0  T
   7   -212.3787802 -0.267041E-02  0.617E-02    0.12       1.0  T
   8   -212.3791459 -0.365670E-03  0.447E-02    0.12       1.0  T
   9   -212.3795848 -0.438962E-03  0.110E-02    0.12       1.0  T
  10   -212.3795994 -0.146207E-04  0.660E-03    0.11       1.4  T
  11   -212.3796065 -0.706229E-05  0.425E-03    0.11       2.2  T
  12   -212.3796090 -0.254923E-05  0.153E-03    0.11       6.2  T
  13   -212.3796095 -0.422102E-06  0.770E-04    0.11      12.3  T
  14   -212.3796096 -0.153873E-06  0.386E-04    0.11      24.6  T
     SCC iter.                  ...        0 min,  0.646 sec
     gradient                   ...        0 min,  0.037 sec
 * total energy  :  -209.6874833 Eh     change       -0.8585027E-02 Eh
   gradient norm :     0.0178446 Eh/α   predicted    -0.8177808E-02 (  -4.74%)
   displ. norm   :     0.7972105 α      lambda       -0.7607759E-02
   maximum displ.:     0.3386665 α      in ANC's #34, #12, #9, ...

........................................................................
.............................. CYCLE   28 ..............................
........................................................................

 iter      E             dE          RMSdq      gap      omega  full diag
   1   -212.3921050 -0.212392E+03  0.131E-01    0.13       0.0  T
   2   -212.3335877  0.585174E-01  0.496E-01    0.12       1.0  T
   3   -212.3859333 -0.523456E-01  0.189E-01    0.13       1.0  T
   4   -212.3628879  0.230454E-01  0.355E-01    0.13       1.0  T
   5   -212.3632385 -0.350547E-03  0.320E-01    0.17       1.0  T
   6   -212.3911573 -0.279189E-01  0.896E-02    0.12       1.0  T
   7   -212.3919889 -0.831603E-03  0.642E-02    0.13       1.0  T
   8   -212.3924981 -0.509121E-03  0.400E-02    0.12       1.0  T
   9   -212.3928456 -0.347523E-03  0.115E-02    0.12       1.0  T
  10   -212.3928570 -0.113903E-04  0.624E-03    0.12       1.5  T
  11   -212.3928638 -0.687178E-05  0.250E-03    0.12       3.8  T
  12   -212.3928644 -0.595376E-06  0.143E-03    0.12       6.6  T
  13   -212.3928648 -0.378104E-06  0.545E-04    0.12      17.4  T
  14   -212.3928648 -0.296715E-07  0.340E-04    0.12      28.0  T
     SCC iter.                  ...        0 min,  0.730 sec
     gradient                   ...        0 min,  0.040 sec
 * total energy  :  -209.6940431 Eh     change       -0.6559748E-02 Eh
   gradient norm :     0.0167367 Eh/α   predicted    -0.6221426E-02 (  -5.16%)
   displ. norm   :     0.8090755 α      lambda       -0.6114732E-02
   maximum displ.:     0.3648944 α      in ANC's #12, #34, #9, ...

........................................................................
.............................. CYCLE   29 ..............................
........................................................................

 iter      E             dE          RMSdq      gap      omega  full diag
   1   -212.4021481 -0.212402E+03  0.131E-01    0.13       0.0  T
   2   -212.3303880  0.717601E-01  0.557E-01    0.14       1.0  T
   3   -212.3995000 -0.691120E-01  0.142E-01    0.14       1.0  T
   4   -212.3562504  0.432496E-01  0.419E-01    0.11       1.0  T
   5   -212.3971046 -0.408542E-01  0.142E-01    0.13       1.0  T
   6   -212.4009533 -0.384872E-02  0.897E-02    0.12       1.0  T
   7   -212.4029535 -0.200020E-02  0.168E-02    0.13       1.0  T
   8   -212.4029523  0.115511E-05  0.150E-02    0.13       1.0  T
   9   -212.4029637 -0.113920E-04  0.147E-02    0.13       1.0  T
  10   -212.4029952 -0.315099E-04  0.706E-03    0.13       1.3  T
  11   -212.4030011 -0.582404E-05  0.260E-03    0.13       3.6  T
  12   -212.4030022 -0.116768E-05  0.774E-04    0.13      12.3  T
  13   -212.4030022  0.158850E-07  0.691E-04    0.13      13.7  T
  14   -212.4030023 -0.652580E-07  0.395E-04    0.13      24.0  T
     SCC iter.                  ...        0 min,  0.725 sec
     gradient                   ...        0 min,  0.038 sec
 * total energy  :  -209.6993942 Eh     change       -0.5351128E-02 Eh
   gradient norm :     0.0171547 Eh/α   predicted    -0.5058732E-02 (  -5.46%)
   displ. norm   :     0.8212995 α      lambda       -0.5189984E-02
   maximum displ.:     0.3718649 α      in ANC's #12, #9, #34, ...

........................................................................
.............................. CYCLE   30 ..............................
........................................................................

 iter      E             dE          RMSdq      gap      omega  full diag
   1   -212.4084627 -0.212408E+03  0.136E-01    0.14       0.0  T
   2   -212.3225950  0.858677E-01  0.608E-01    0.14       1.0  T
   3   -212.4045498 -0.819548E-01  0.166E-01    0.16       1.0  T
   4   -212.3799467  0.246031E-01  0.362E-01    0.09       1.0  T
   5   -212.4059679 -0.260212E-01  0.117E-01    0.14       1.0  T
   6   -212.4062060 -0.238044E-03  0.118E-01    0.13       1.0  T
   7   -212.4086198 -0.241379E-02  0.673E-02    0.14       1.0  T
   8   -212.4091784 -0.558649E-03  0.505E-02    0.14       1.0  T
   9   -212.4093624 -0.183981E-03  0.376E-02    0.14       1.0  T
  10   -212.4095854 -0.223004E-03  0.185E-02    0.13       1.0  T
  11   -212.4096401 -0.546948E-04  0.366E-03    0.13       2.6  T
  12   -212.4096415 -0.141456E-05  0.204E-03    0.13       4.6  T
  13   -212.4096422 -0.697511E-06  0.970E-04    0.13       9.8  T
  14   -212.4096423 -0.131052E-06  0.350E-04    0.13      27.1  T
     SCC iter.                  ...        0 min,  0.796 sec
     gradient                   ...        0 min,  0.038 sec
 * total energy  :  -209.7039888 Eh     change       -0.4594599E-02 Eh
   gradient norm :     0.0152214 Eh/α   predicted    -0.4345405E-02 (  -5.42%)
   displ. norm   :     0.8339300 α      lambda       -0.4671707E-02
   maximum displ.:     0.3757921 α      in ANC's #12, #9, #7, ...

........................................................................
.............................. CYCLE   31 ..............................
........................................................................

 iter      E             dE          RMSdq      gap      omega  full diag
   1   -212.4136623 -0.212414E+03  0.151E-01    0.14       0.0  T
   2   -212.3081697  0.105493E+00  0.670E-01    0.14       1.0  T
   3   -212.4060831 -0.979135E-01  0.219E-01    0.17       1.0  T
   4   -212.3982132  0.786989E-02  0.276E-01    0.11       1.0  T
   5   -212.4086559 -0.104426E-01  0.154E-01    0.15       1.0  T
   6   -212.4105640 -0.190813E-02  0.142E-01    0.14       1.0  T
   7   -212.4141929 -0.362889E-02  0.758E-02    0.14       1.0  T
   8   -212.4144682 -0.275338E-03  0.695E-02    0.14       1.0  T
   9   -212.4149991 -0.530874E-03  0.448E-02    0.14       1.0  T
  10   -212.4153516 -0.352540E-03  0.170E-02    0.14       1.0  T
  11   -212.4153955 -0.438495E-04  0.385E-03    0.13       2.5  T
  12   -212.4153973 -0.179780E-05  0.198E-03    0.13       4.8  T
  13   -212.4153979 -0.574678E-06  0.114E-03    0.13       8.3  T
  14   -212.4153979 -0.481147E-07  0.881E-04    0.13      10.8  T
  15   -212.4153980 -0.147133E-06  0.218E-04    0.13      43.6  T
     SCC iter.                  ...        0 min,  0.708 sec
     gradient                   ...        0 min,  0.037 sec
 * total energy  :  -209.7080674 Eh     change       -0.4078613E-02 Eh
   gradient norm :     0.0195574 Eh/α   predicted    -0.3960304E-02 (  -2.90%)
   displ. norm   :     0.8333503 α      lambda       -0.4335161E-02
   maximum displ.:     0.3574694 α      in ANC's #12, #9, #7, ...

........................................................................
.............................. CYCLE   32 ..............................
........................................................................

 iter      E             dE          RMSdq      gap      omega  full diag
   1   -212.4166079 -0.212417E+03  0.149E-01    0.15       0.0  T
   2   -212.3085695  0.108038E+00  0.671E-01    0.14       1.0  T
   3   -212.4102032 -0.101634E+00  0.204E-01    0.17       1.0  T
   4   -212.3833425  0.268607E-01  0.395E-01    0.10       1.0  T
   5   -212.4152734 -0.319308E-01  0.116E-01    0.14       1.0  T
   6   -212.4147225  0.550882E-03  0.123E-01    0.14       1.0  T
   7   -212.4163440 -0.162148E-02  0.863E-02    0.15       1.0  T
   8   -212.4172179 -0.873921E-03  0.754E-02    0.15       1.0  T
   9   -212.4179573 -0.739366E-03  0.446E-02    0.14       1.0  T
  10   -212.4181077 -0.150457E-03  0.328E-02    0.14       1.0  T
  11   -212.4182753 -0.167537E-03  0.117E-02    0.14       1.0  T
  12   -212.4182948 -0.195534E-04  0.235E-03    0.14       4.0  T
  13   -212.4182954 -0.537745E-06  0.154E-03    0.14       6.2  T
  14   -212.4182954 -0.779733E-07  0.121E-03    0.14       7.8  T
  15   -212.4182957 -0.313100E-06  0.358E-04    0.14      26.5  T
  16   -212.4182958 -0.158713E-07  0.156E-04    0.14      60.7  T
     SCC iter.                  ...        0 min,  0.789 sec
     gradient                   ...        0 min,  0.039 sec
 * total energy  :  -209.7117375 Eh     change       -0.3670091E-02 Eh
   gradient norm :     0.0143846 Eh/α   predicted    -0.3672923E-02 (   0.08%)
   displ. norm   :     0.8262710 α      lambda       -0.3761155E-02
   maximum displ.:     0.3354830 α      in ANC's #9, #12, #7, ...

........................................................................
.............................. CYCLE   33 ..............................
........................................................................

 iter      E             dE          RMSdq      gap      omega  full diag
   1   -212.4171682 -0.212417E+03  0.162E-01    0.15       0.0  T
   2   -212.3109704  0.106198E+00  0.660E-01    0.13       1.0  T
   3   -212.4086318 -0.976613E-01  0.228E-01    0.17       1.0  T
   4   -212.3619218  0.467100E-01  0.503E-01    0.09       1.0  T
   5   -212.4155062 -0.535844E-01  0.132E-01    0.14       1.0  T
   6   -212.4156385 -0.132281E-03  0.123E-01    0.14       1.0  T
   7   -212.4160812 -0.442696E-03  0.101E-01    0.15       1.0  T
   8   -212.4173122 -0.123101E-02  0.918E-02    0.15       1.0  T
   9   -212.4183588 -0.104660E-02  0.579E-02    0.14       1.0  T
  10   -212.4185824 -0.223658E-03  0.447E-02    0.14       1.0  T
  11   -212.4188447 -0.262303E-03  0.211E-02    0.14       1.0  T
  12   -212.4189108 -0.660092E-04  0.708E-03    0.14       1.3  T
  13   -212.4189168 -0.601794E-05  0.211E-03    0.14       4.5  T
  14   -212.4189174 -0.622297E-06  0.151E-03    0.14       6.3  T
  15   -212.4189177 -0.320700E-06  0.856E-04    0.14      11.1  T
  16   -212.4189179 -0.136814E-06  0.177E-04    0.14      53.6  T
     SCC iter.                  ...        0 min,  0.718 sec
     gradient                   ...        0 min,  0.037 sec
 * total energy  :  -209.7149647 Eh     change       -0.3227244E-02 Eh
   gradient norm :     0.0188130 Eh/α   predicted    -0.3164514E-02 (  -1.94%)
   displ. norm   :     0.8033935 α      lambda       -0.3371935E-02
   maximum displ.:     0.3128859 α      in ANC's #9, #7, #12, ...

........................................................................
.............................. CYCLE   34 ..............................
........................................................................

 iter      E             dE          RMSdq      gap      omega  full diag
   1   -212.4238312 -0.212424E+03  0.165E-01    0.15       0.0  T
   2   -212.3162669  0.107564E+00  0.651E-01    0.13       1.0  T
   3   -212.4151618 -0.988949E-01  0.229E-01    0.18       1.0  T
   4   -212.3536810  0.614808E-01  0.555E-01    0.08       1.0  T
   5   -212.4231356 -0.694546E-01  0.124E-01    0.15       1.0  T
   6   -212.4237887 -0.653091E-03  0.102E-01    0.14       1.0  T
   7   -212.4232357  0.552961E-03  0.924E-02    0.15       1.0  T
   8   -212.4242689 -0.103318E-02  0.841E-02    0.15       1.0  T
   9   -212.4253597 -0.109081E-02  0.477E-02    0.15       1.0  T
  10   -212.4254930 -0.133330E-03  0.373E-02    0.15       1.0  T
  11   -212.4256951 -0.202051E-03  0.141E-02    0.14       1.0  T
  12   -212.4257222 -0.271399E-04  0.358E-03    0.14       2.7  T
  13   -212.4257232 -0.975784E-06  0.176E-03    0.14       5.4  T
  14   -212.4257235 -0.258251E-06  0.113E-03    0.14       8.4  T
  15   -212.4257237 -0.202626E-06  0.653E-04    0.14      14.5  T
  16   -212.4257237 -0.782647E-07  0.182E-04    0.14      52.3  T
     SCC iter.                  ...        0 min,  0.744 sec
     gradient                   ...        0 min,  0.043 sec
 * total energy  :  -209.7176552 Eh     change       -0.2690416E-02 Eh
   gradient norm :     0.0191510 Eh/α   predicted    -0.2774168E-02 (   3.11%)
   displ. norm   :     0.8046117 α      lambda       -0.3347543E-02
   maximum displ.:     0.3181087 α      in ANC's #7, #9, #12, ...

........................................................................
.............................. CYCLE   35 ..............................
........................................................................

 iter      E             dE          RMSdq      gap      omega  full diag
   1   -212.4138037 -0.212414E+03  0.177E-01    0.16       0.0  T
   2   -212.3368781  0.769256E-01  0.539E-01    0.12       1.0  T
   3   -212.3975832 -0.607051E-01  0.284E-01    0.18       1.0  T
   4   -212.3951490  0.243412E-02  0.302E-01    0.17       1.0  T
   5   -212.4083176 -0.131685E-01  0.156E-01    0.15       1.0  T
   6   -212.4046376  0.367994E-02  0.189E-01    0.16       1.0  T
   7   -212.4145230 -0.988533E-02  0.631E-02    0.15       1.0  T
   8   -212.4149843 -0.461306E-03  0.441E-02    0.14       1.0  T
   9   -212.4151532 -0.168887E-03  0.312E-02    0.15       1.0  T
  10   -212.4152016 -0.484087E-04  0.234E-02    0.15       1.0  T
[...]
   * S. Grimme and C. Bannwarth, J. Chem. Phys., 2016, 145, 054103.
     DOI: 10.1063/1.4959605
   
   in the mass-spec context:
   * V. Asgeirsson, C. Bauer and S. Grimme, Chem. Sci., 2017, 8, 4879.
     DOI: 10.1039/c7sc00601b
   * J. Koopman and S. Grimme, ACS Omega 2019, 4, 12, 15120-15133.
     DOI: 10.1021/acsomega.9b02011
   
   for metadynamics refer to:
   * S. Grimme, J. Chem. Theory Comput., 2019, 155, 2847-2862
     DOI: 10.1021/acs.jctc.9b00143
   
   for SPH calculations refer to:
   * S. Spicher and S. Grimme, J. Chem. Theory Comput., 2021, 17, 1701-1714
     DOI: 10.1021/acs.jctc.0c01306
   
   for ONIOM refer to:
   * C. Plett, A. Katbashev, S. Ehlert, S. Grimme, M. Bursch,
     Phys. Chem. Chem. Phys., 2023, 25, 17860-17868. DOI: 10.1039/D3CP02178E
   
   for DIPRO refer to:
   * J. Kohn, N. Gildemeister, S. Grimme, D. Fazzi, A. Hansen,
     J. Chem. Phys., 2023, just accepted.
   
   for PTB refer to:
   * S. Grimme, M. Mueller, A. Hansen, J. Chem. Phys., 2023, 158, 124111.
     DOI: 10.1063/5.0137838
   
   with help from (in alphabetical order)
   P. Atkinson, C. Bannwarth, F. Bohle, G. Brandenburg, E. Caldeweyher
   M. Checinski, S. Dohm, S. Ehlert, S. Ehrlich, I. Gerasimov, C. Hölzer
   A. Katbashev, J. Kohn, J. Koopman, C. Lavigne, S. Lehtola, F. März, M. Müller,
   F. Musil, H. Neugebauer, J. Pisarek, C. Plett, P. Pracht, F. Pultar,
   J. Seibert, P. Shushkov, S. Spicher, M. Stahn, M. Steiner, T. Strunk,
   J. Stückrath, T. Rose, and J. Unsleber
   
 * started run on 2024/12/10 at 14:26:14.007     
   ID    Z sym.   atoms
    1    6 C      1-9, 11, 12, 14-21, 23-34, 36, 37, 39-46, 48-50, 54, 56,
                  60, 63, 66, 69, 71, 72, 74, 75, 112-120, 122, 123, 125-132,
                  134-145, 147, 148, 150-157, 159-161, 165, 167, 171, 174,
                  177, 180, 182, 183, 185, 186
    2    7 N      10, 13, 35, 38, 70, 73, 121, 124, 146, 149, 181, 184
    3    8 O      22, 47, 52, 53, 55, 57-59, 61, 62, 64, 65, 67, 68, 133,
                  158, 163, 164, 166, 168-170, 172, 173, 175, 176, 178, 179
    4    5 B      51, 162
    5    1 H      76-111, 187-222

           -------------------------------------------------
          |                Calculation Setup                |
           -------------------------------------------------

          program call               : xtb opt_dimer.mol --dipro 0.3 --gfn 2 --chrg 0 --uhf 2
          coordinate file            : opt_dimer.mol
          omp threads                :                     8


molecular fragmentation (1/2 indicates fragments):
111111111111111111111111111111111111111111111111111111111111111111111111
111111111111111111111111111111111111111222222222222222222222222222222222
222222222222222222222222222222222222222222222222222222222222222222222222
222222
# atoms in fragment 1/2:   111   111
 fragment masses (1/2) :     1003.71     1003.71
CMA distance (Bohr)    :  12.654
constraining FC (au)   :  0.0500

           -------------------------------------------------
          |                 G F N 2 - x T B                 |
           -------------------------------------------------

        Reference                      10.1021/acs.jctc.8b01176
      * Hamiltonian:
        H0-scaling (s, p, d)           1.850000    2.230000    2.230000
        zeta-weighting                 0.500000
      * Dispersion:
        s8                             2.700000
        a1                             0.520000
        a2                             5.000000
        s9                             5.000000
      * Repulsion:
        kExp                           1.500000    1.000000
        rExp                           1.000000
      * Coulomb:
        alpha                          2.000000
        third order                    shell-resolved
        anisotropic                    true
        a3                             3.000000
        a5                             4.000000
        cn-shift                       1.200000
        cn-exp                         4.000000
        max-rad                        5.000000

q/qsh data taken from xtbrestart
CAMM data taken from xtbrestart
           -------------------------------------------------
          |                    D I P R O                    |
           -------------------------------------------------
Calculation for dimer 
--------------------- 
  
charge of dimer :   0.
unpaired e- of dimer :  2
repulsion energy          5.3595693127612E+00 Eh
dispersion energy         3.2079127954811E-02 Eh
number of electrons       7.3800000000000E+02 e
integral cutoff           1.9311100799991E+01 bohr

------------------------------------------------------------
  cycle        total energy    energy error   density error
------------------------------------------------------------
      1     -416.2420087567  -4.2163366E+02   2.1193925E-01
      2     -418.8667238638  -2.6247151E+00   1.0203504E-01
      3     -413.7693165591   5.0974073E+00   9.8084669E-02
      4     -415.3543851390  -1.5850686E+00   7.5031634E-02
      5     -411.5249471941   3.8294379E+00   8.8620491E-02
      6     -419.1785734527  -7.6536263E+00   4.1796474E-02
      7     -418.9031955470   2.7537791E-01   3.5298696E-02
      8     -419.2486925174  -3.4549697E-01   3.0141940E-02
      9     -419.4453120435  -1.9661953E-01   2.5114312E-02
     10     -419.6917150283  -2.4640298E-01   1.7455135E-02
     11     -419.7111820022  -1.9466974E-02   1.4515999E-02
     12     -419.7545685669  -4.3386565E-02   1.0052908E-02
     13     -419.7740699111  -1.9501344E-02   6.8872530E-03
     14     -419.7774298519  -3.3599408E-03   4.6520879E-03
     15     -419.7116307531   6.5799099E-02   8.6716123E-03
     16     -419.7805826269  -6.8951874E-02   3.5703693E-03
     17     -419.7861817942  -5.5991673E-03   1.7505096E-03
     18     -419.7860356175   1.4617664E-04   1.5634321E-03
     19     -419.7866605139  -6.2489638E-04   1.0501555E-03
     20     -419.7872723400  -6.1182606E-04   6.1394568E-04
     21     -419.7874208860  -1.4854606E-04   3.2286759E-04
     22     -419.7874505993  -2.9713283E-05   1.5663920E-04
     23     -419.7874425976   8.0016771E-06   1.4890618E-04
     24     -419.7874517703  -9.1726660E-06   8.8957005E-05
     25     -419.7874573212  -5.5508582E-06   4.3793740E-05
     26     -419.7874580071  -6.8596535E-07   2.0421171E-05
     27     -419.7874581547  -1.4758365E-07   1.0531576E-05
------------------------------------------------------------

electronic energy        -4.2517910659543E+02 Eh
total energy             -4.1978745815472E+02 Eh

 total:                                   4.993 sec
 - repulsion                              0.000 sec (  0%)
 - dispersion                             0.022 sec (  0%)
 - coulomb                                0.006 sec (  0%)
 - hamiltonian                            0.021 sec (  0%)
 - scc                                    4.943 sec ( 99%)

Found 2 fragments!
Fragment 1:  1-111
Fragment 2:  112-222

[Info] Fragment spin read from .UHFfrag
Calculation for fragment 1
 ------------------------------
   
charge of fragment :   0.
unpaired e- of fragment :  1
------------------------------------------------------------
  cycle        total energy    energy error   density error
------------------------------------------------------------
      1     -208.0997783842  -2.1078125E+02   2.1184008E-01
      2     -209.4553169500  -1.3555386E+00   1.0119063E-01
      3     -207.9107245177   1.5445924E+00   9.0030541E-02
      4     -209.1829120117  -1.2721875E+00   6.0568051E-02
      5     -209.3246084080  -1.4169640E-01   4.5159177E-02
      6     -209.4883371026  -1.6372869E-01   3.6317088E-02
      7     -209.7813494119  -2.9301231E-01   2.3558506E-02
      8     -209.8254890235  -4.4139612E-02   1.6614763E-02
      9     -209.8508599796  -2.5370956E-02   1.1728006E-02
     10     -209.8611275795  -1.0267600E-02   8.0740025E-03
     11     -209.8562937317   4.8338478E-03   7.0857933E-03
     12     -209.8681975893  -1.1903858E-02   3.6159514E-03
     13     -209.8695013378  -1.3037485E-03   1.8868555E-03
     14     -209.8697598680  -2.5853015E-04   1.4355562E-03
     15     -209.8700642245  -3.0435649E-04   5.5910198E-04
     16     -209.8701386320  -7.4407540E-05   2.7735343E-04
     17     -209.8701203016   1.8330406E-05   3.0511996E-04
     18     -209.8701472719  -2.6970305E-05   7.6296129E-05
     19     -209.8701458457   1.4262321E-06   9.8876999E-05
     20     -209.8701474130  -1.5672923E-06   3.4437481E-05
     21     -209.8701476458  -2.3288092E-07   1.5451983E-05
------------------------------------------------------------

 total:                                   1.092 sec
Calculation for fragment 2
 ------------------------------
   
charge of fragment :   0.
unpaired e- of fragment :  1
------------------------------------------------------------
  cycle        total energy    energy error   density error
------------------------------------------------------------
      1     -208.0942924257  -2.1078100E+02   2.1224171E-01
      2     -209.4391139626  -1.3448215E+00   1.0256244E-01
      3     -207.9542849482   1.4848290E+00   8.8078890E-02
      4     -209.1732638958  -1.2189789E+00   6.2442135E-02
      5     -209.5680609546  -3.9479706E-01   3.7266865E-02
      6     -209.3992066414   1.6885431E-01   3.8864675E-02
      7     -209.7967325141  -3.9752587E-01   2.2030981E-02
      8     -209.8208133782  -2.4080864E-02   1.6188414E-02
      9     -209.8623802051  -4.1566827E-02   9.8103632E-03
     10     -209.8490168209   1.3363384E-02   9.6796392E-03
     11     -209.8655470800  -1.6530259E-02   5.5484819E-03
     12     -209.8712743165  -5.7272365E-03   2.9758105E-03
     13     -209.8729385719  -1.6642554E-03   1.3544175E-03
     14     -209.8727948969   1.4367497E-04   1.3885685E-03
     15     -209.8729914327  -1.9653576E-04   7.1529256E-04
     16     -209.8731119820  -1.2054935E-04   2.3381980E-04
     17     -209.8731139191  -1.9370869E-06   1.6485058E-04
     18     -209.8731188243  -4.9051361E-06   6.8786969E-05
     19     -209.8731191537  -3.2943854E-07   3.9149435E-05
     20     -209.8731193258  -1.7211744E-07   2.4186316E-05
     21     -209.8731194171  -9.1331572E-08   1.3404536E-05
------------------------------------------------------------

 total:                                   0.993 sec
   
   ::::::::::::::::::::::::::::::::::::::::::::::
   ::     D I P R O      C O U P L I N G S     ::
   ::::::::::::::::::::::::::::::::::::::::::::::
   
energy threshhold for near-degenerate orbitals near HOMO and LUMO considered for DIPRO:  0.300 eV
no. of orbitals within energy window of frag 1         6
no. of orbitals within energy window of frag 2         6
   
  Fragment 1 SOMO-3  Fragment 2 SOMO-3
--------------------------------------
E_mon(orb) frag1 frag2             -10.488   -10.499 eV
J(AB):               -0.004 eV
S(AB):             0.00016681 Eh
|J(AB,eff)|:            0.002 eV
   
  Fragment 1 SOMO-3  Fragment 2 SOMO-2
--------------------------------------
E_mon(orb) frag1 frag2             -10.488   -10.385 eV
J(AB):                0.003 eV
S(AB):            -0.00015900 Eh
|J(AB,eff)|:            0.002 eV
   
  Fragment 1 SOMO-3  Fragment 2 SOMO-1
--------------------------------------
E_mon(orb) frag1 frag2             -10.488   -10.323 eV
J(AB):               -0.006 eV
S(AB):             0.00024653 Eh
|J(AB,eff)|:            0.004 eV
   
  Fragment 1 SOMO-3  Fragment 2 SOMO 
--------------------------------------
E_mon(orb) frag1 frag2             -10.488   -10.220 eV
J(AB):               -0.004 eV
S(AB):             0.00023110 Eh
|J(AB,eff)|:            0.002 eV
   
  Fragment 1 SOMO-3  Fragment 2 LUMO 
--------------------------------------
E_mon(orb) frag1 frag2             -10.488   -10.108 eV
J(AB):                0.003 eV
S(AB):            -0.00013691 Eh
|J(AB,eff)|:            0.002 eV
   
  Fragment 1 SOMO-3  Fragment 2 LUMO+1
--------------------------------------
E_mon(orb) frag1 frag2             -10.488    -9.923 eV
J(AB):                0.000 eV
S(AB):            -0.00006560 Eh
|J(AB,eff)|:            0.001 eV
   
  Fragment 1 SOMO-2  Fragment 2 SOMO-3
--------------------------------------
E_mon(orb) frag1 frag2             -10.387   -10.499 eV
J(AB):                0.000 eV
S(AB):            -0.00003231 Eh
|J(AB,eff)|:            0.000 eV
   
  Fragment 1 SOMO-2  Fragment 2 SOMO-2
--------------------------------------
E_mon(orb) frag1 frag2             -10.387   -10.385 eV
J(AB):               -0.002 eV
S(AB):             0.00011632 Eh
|J(AB,eff)|:            0.001 eV
   
  Fragment 1 SOMO-2  Fragment 2 SOMO-1
--------------------------------------
E_mon(orb) frag1 frag2             -10.387   -10.323 eV
J(AB):                0.008 eV
S(AB):            -0.00032732 Eh
|J(AB,eff)|:            0.005 eV
   
  Fragment 1 SOMO-2  Fragment 2 SOMO 
--------------------------------------
E_mon(orb) frag1 frag2             -10.387   -10.220 eV
J(AB):               -0.007 eV
S(AB):             0.00034435 Eh
|J(AB,eff)|:            0.004 eV
   
  Fragment 1 SOMO-2  Fragment 2 LUMO 
--------------------------------------
E_mon(orb) frag1 frag2             -10.387   -10.108 eV
J(AB):                0.000 eV
S(AB):             0.00000199 Eh
|J(AB,eff)|:            0.000 eV
   
  Fragment 1 SOMO-2  Fragment 2 LUMO+1
--------------------------------------
E_mon(orb) frag1 frag2             -10.387    -9.923 eV
J(AB):                0.009 eV
S(AB):            -0.00041238 Eh
|J(AB,eff)|:            0.005 eV
   
  Fragment 1 SOMO-1  Fragment 2 SOMO-3
--------------------------------------
E_mon(orb) frag1 frag2             -10.333   -10.499 eV
J(AB):               -0.002 eV
S(AB):             0.00008622 Eh
|J(AB,eff)|:            0.001 eV
   
  Fragment 1 SOMO-1  Fragment 2 SOMO-2
--------------------------------------
E_mon(orb) frag1 frag2             -10.333   -10.385 eV
J(AB):               -0.001 eV
S(AB):             0.00006352 Eh
|J(AB,eff)|:            0.001 eV
   
  Fragment 1 SOMO-1  Fragment 2 SOMO-1
--------------------------------------
E_mon(orb) frag1 frag2             -10.333   -10.323 eV
J(AB):               -0.000 eV
S(AB):            -0.00002481 Eh
|J(AB,eff)|:            0.001 eV
   
  Fragment 1 SOMO-1  Fragment 2 SOMO 
--------------------------------------
E_mon(orb) frag1 frag2             -10.333   -10.220 eV
J(AB):                0.011 eV
S(AB):            -0.00053638 Eh
|J(AB,eff)|:            0.006 eV
   
  Fragment 1 SOMO-1  Fragment 2 LUMO 
--------------------------------------
E_mon(orb) frag1 frag2             -10.333   -10.108 eV
J(AB):               -0.000 eV
S(AB):             0.00001167 Eh
|J(AB,eff)|:            0.000 eV
   
  Fragment 1 SOMO-1  Fragment 2 LUMO+1
--------------------------------------
E_mon(orb) frag1 frag2             -10.333    -9.923 eV
J(AB):               -0.010 eV
S(AB):             0.00043466 Eh
|J(AB,eff)|:            0.005 eV
   
  Fragment 1 SOMO   Fragment 2 SOMO-3
--------------------------------------
E_mon(orb) frag1 frag2             -10.237   -10.499 eV
J(AB):                0.005 eV
S(AB):            -0.00021988 Eh
|J(AB,eff)|:            0.002 eV
   
  Fragment 1 SOMO   Fragment 2 SOMO-2
--------------------------------------
E_mon(orb) frag1 frag2             -10.237   -10.385 eV
J(AB):               -0.009 eV
S(AB):             0.00041732 Eh
|J(AB,eff)|:            0.005 eV
   
  Fragment 1 SOMO   Fragment 2 SOMO-1
--------------------------------------
E_mon(orb) frag1 frag2             -10.237   -10.323 eV
J(AB):               -0.019 eV
S(AB):             0.00089875 Eh
|J(AB,eff)|:            0.010 eV
   
  Fragment 1 SOMO   Fragment 2 SOMO 
--------------------------------------
E_mon(orb) frag1 frag2             -10.237   -10.220 eV
J(AB):                0.038 eV
S(AB):            -0.00171281 Eh
|J(AB,eff)|:            0.020 eV
   
  Fragment 1 SOMO   Fragment 2 LUMO 
--------------------------------------
E_mon(orb) frag1 frag2             -10.237   -10.108 eV
J(AB):                0.006 eV
S(AB):            -0.00027355 Eh
|J(AB,eff)|:            0.003 eV
   
  Fragment 1 SOMO   Fragment 2 LUMO+1
--------------------------------------
E_mon(orb) frag1 frag2             -10.237    -9.923 eV
J(AB):               -0.039 eV
S(AB):             0.00179600 Eh
|J(AB,eff)|:            0.021 eV
   
  Fragment 1 LUMO   Fragment 2 SOMO-3
--------------------------------------
E_mon(orb) frag1 frag2             -10.134   -10.499 eV
J(AB):                0.002 eV
S(AB):            -0.00008361 Eh
|J(AB,eff)|:            0.001 eV
   
  Fragment 1 LUMO   Fragment 2 SOMO-2
--------------------------------------
E_mon(orb) frag1 frag2             -10.134   -10.385 eV
J(AB):               -0.002 eV
S(AB):             0.00008832 Eh
|J(AB,eff)|:            0.001 eV
   
  Fragment 1 LUMO   Fragment 2 SOMO-1
--------------------------------------
E_mon(orb) frag1 frag2             -10.134   -10.323 eV
J(AB):                0.011 eV
S(AB):            -0.00045285 Eh
|J(AB,eff)|:            0.006 eV
   
  Fragment 1 LUMO   Fragment 2 SOMO 
--------------------------------------
E_mon(orb) frag1 frag2             -10.134   -10.220 eV
J(AB):                0.009 eV
S(AB):            -0.00042660 Eh
|J(AB,eff)|:            0.005 eV
   
  Fragment 1 LUMO   Fragment 2 LUMO 
--------------------------------------
E_mon(orb) frag1 frag2             -10.134   -10.108 eV
J(AB):               -0.006 eV
S(AB):             0.00026066 Eh
|J(AB,eff)|:            0.004 eV
   
  Fragment 1 LUMO   Fragment 2 LUMO+1
--------------------------------------
E_mon(orb) frag1 frag2             -10.134    -9.923 eV
J(AB):                0.000 eV
S(AB):             0.00003342 Eh
|J(AB,eff)|:            0.000 eV
   
  Fragment 1 LUMO+1  Fragment 2 SOMO-3
--------------------------------------
E_mon(orb) frag1 frag2              -9.936   -10.499 eV
J(AB):               -0.006 eV
S(AB):             0.00025929 Eh
|J(AB,eff)|:            0.003 eV
   
  Fragment 1 LUMO+1  Fragment 2 SOMO-2
--------------------------------------
E_mon(orb) frag1 frag2              -9.936   -10.385 eV
J(AB):                0.013 eV
S(AB):            -0.00058326 Eh
|J(AB,eff)|:            0.007 eV
   
  Fragment 1 LUMO+1  Fragment 2 SOMO-1
--------------------------------------
E_mon(orb) frag1 frag2              -9.936   -10.323 eV
J(AB):                0.016 eV
S(AB):            -0.00073131 Eh
|J(AB,eff)|:            0.009 eV
   
  Fragment 1 LUMO+1  Fragment 2 SOMO 
--------------------------------------
E_mon(orb) frag1 frag2              -9.936   -10.220 eV
J(AB):               -0.030 eV
S(AB):             0.00137532 Eh
|J(AB,eff)|:            0.016 eV
   
  Fragment 1 LUMO+1  Fragment 2 LUMO 
--------------------------------------
E_mon(orb) frag1 frag2              -9.936   -10.108 eV
J(AB):               -0.006 eV
S(AB):             0.00029489 Eh
|J(AB,eff)|:            0.003 eV
   
  Fragment 1 LUMO+1  Fragment 2 LUMO+1
--------------------------------------
E_mon(orb) frag1 frag2              -9.936    -9.923 eV
J(AB):                0.032 eV
S(AB):            -0.00146129 Eh
|J(AB,eff)|:            0.017 eV
   
..............................................................................
:  total |J(AB,eff)| for hole transport (occ. MOs) :               0.025 eV  :
:  total |J(AB,eff)| for charge transport (unocc. MOs) :           0.018 eV  :
:  total |J(AB,eff)| for charge transfer (CT) :                    0.031 eV  :
..............................................................................
  
 Please remember, DIPRO is not available for restart!
   
normal termination of dipro
----------------------------------------------------------
 * finished run on 2024/12/10 at 14:26:21.134     
----------------------------------------------------------
 dipro:
 * wall-time:     0 d,  0 h,  0 min,  7.112 sec
 *  cpu-time:     0 d,  0 h,  0 min, 24.675 sec
 * ratio c/w:     3.470 speedup
