      -----------------------------------------------------------      
     |                   =====================                   |     
     |                           x T B                           |     
     |                   =====================                   |     
     |                         S. Grimme                         |     
     |          Mulliken Center for Theoretical Chemistry        |     
     |                    University of Bonn                     |     
      -----------------------------------------------------------      

   * xtb version 6.6.1 (8d0f1dd) compiled by 'runner@Mac-1690902418499.local' on 2023-08-01

   xtb is free software: you can redistribute it and/or modify it under
   the terms of the GNU Lesser General Public License as published by
   the Free Software Foundation, either version 3 of the License, or
   (at your option) any later version.
   
   xtb is distributed in the hope that it will be useful,
   but WITHOUT ANY WARRANTY; without even the implied warranty of
   MERCHANTABILITY or FITNESS FOR A PARTICULAR PURPOSE.  See the
   GNU Lesser General Public License for more details.
   
   Cite this work as:
   * C. Bannwarth, E. Caldeweyher, S. Ehlert, A. Hansen, P. Pracht,
     J. Seibert, S. Spicher, S. Grimme, WIREs Comput. Mol. Sci., 2020, 11,
     e01493. DOI: 10.1002/wcms.1493
   
   for GFN2-xTB:
   * C. Bannwarth, S. Ehlert and S. Grimme., J. Chem. Theory Comput., 2019,
     15, 1652-1671. DOI: 10.1021/acs.jctc.8b01176
   for GFN1-xTB:
   * S. Grimme, C. Bannwarth, P. Shushkov, J. Chem. Theory Comput., 2017,
     13, 1989-2009. DOI: 10.1021/acs.jctc.7b00118
   for GFN0-xTB:
   * P. Pracht, E. Caldeweyher, S. Ehlert, S. Grimme, ChemRxiv, 2019, preprint.
     DOI: 10.26434/chemrxiv.8326202.v1
   for GFN-FF:
   * S. Spicher and S. Grimme, Angew. Chem. Int. Ed., 2020, 59, 15665-15673.
     DOI: 10.1002/anie.202004239
   
   for ALPB and GBSA implicit solvation:
   * S. Ehlert, M. Stahn, S. Spicher, S. Grimme, J. Chem. Theory Comput.,
     2021, 17, 4250-4261. DOI: 10.1021/acs.jctc.1c00471
   
   for DFT-D4:
   * E. Caldeweyher, C. Bannwarth and S. Grimme, J. Chem. Phys., 2017,
     147, 034112. DOI: 10.1063/1.4993215
   * E. Caldeweyher, S. Ehlert, A. Hansen, H. Neugebauer, S. Spicher,
     C. Bannwarth and S. Grimme, J. Chem. Phys., 2019, 150, 154122.
     DOI: 10.1063/1.5090222
   * E. Caldeweyher, J.-M. Mewes, S. Ehlert and S. Grimme, Phys. Chem. Chem. Phys.
     2020, 22, 8499-8512. DOI: 10.1039/D0CP00502A
   
   for sTDA-xTB:
   * S. Grimme and C. Bannwarth, J. Chem. Phys., 2016, 145, 054103.
     DOI: 10.1063/1.4959605
   
   in the mass-spec context:
   * V. Asgeirsson, C. Bauer and S. Grimme, Chem. Sci., 2017, 8, 4879.
     DOI: 10.1039/c7sc00601b
   * J. Koopman and S. Grimme, ACS Omega 2019, 4, 12, 15120-15133.
     DOI: 10.1021/acsomega.9b02011
   
   for metadynamics refer to:
   * S. Grimme, J. Chem. Theory Comput., 2019, 155, 2847-2862
     DOI: 10.1021/acs.jctc.9b00143
   
   for SPH calculations refer to:
   * S. Spicher and S. Grimme, J. Chem. Theory Comput., 2021, 17, 1701-1714
     DOI: 10.1021/acs.jctc.0c01306
   
   with help from (in alphabetical order)
   P. Atkinson, C. Bannwarth, F. Bohle, G. Brandenburg, E. Caldeweyher
   M. Checinski, S. Dohm, S. Ehlert, S. Ehrlich, I. Gerasimov, C. Hölzer
   A. Katbashev, J. Koopman, C. Lavigne, S. Lehtola, F. März, M. Müller,
   F. Musil, H. Neugebauer, J. Pisarek, C. Plett, P. Pracht, F. Pultar,
   J. Seibert, P. Shushkov, S. Spicher, M. Stahn, M. Steiner, T. Strunk,
   J. Stückrath, T. Rose, and J. Unsleber
   
 * started run on 2024/10/31 at 16:47:06.376     

           -------------------------------------------------
          |                Calculation Setup                |
           -------------------------------------------------

          program call               : xtb stacked_dimer_Base2CO2Me.mol --opt --gfn2 --chrg 0 --uhf 1 --tight
          coordinate file            : stacked_dimer_Base2CO2Me.mol
          omp threads                :                     8

   ID    Z sym.   atoms
    1    6 C      1-9, 11, 12, 14-21, 23-34, 36, 37, 39-46, 48-50, 54, 56,
                  60, 63, 66, 69, 71, 72, 74, 75, 112-120, 122, 123, 125-132,
                  134-145, 147, 148, 150-157, 159-161, 165, 167, 171, 174,
                  177, 180, 182, 183, 185, 186
    2    7 N      10, 13, 35, 38, 70, 73, 121, 124, 146, 149, 181, 184
    3    8 O      22, 47, 52, 53, 55, 57-59, 61, 62, 64, 65, 67, 68, 133,
                  158, 163, 164, 166, 168-170, 172, 173, 175, 176, 178, 179
    4    5 B      51, 162
    5    1 H      76-111, 187-222

molecular fragmentation (1/2 indicates fragments):
111111111111111111111111111111111111111111111111111111111111111111111111
111111111111111111111111111111111111111222222222222222222222222222222222
222222222222222222222222222222222222222222222222222222222222222222222222
222222
# atoms in fragment 1/2:   111   111
 fragment masses (1/2) :     1003.71     1003.71
CMA distance (Bohr)    :  13.228
constraining FC (au)   :  0.0500
########################################################################
[WARNING] Please study the warnings concerning your input carefully
-1- prog_main_parseArguments: Unknown option '--tight' provided
########################################################################

           -------------------------------------------------
          |                 G F N 2 - x T B                 |
           -------------------------------------------------

        Reference                      10.1021/acs.jctc.8b01176
      * Hamiltonian:
        H0-scaling (s, p, d)           1.850000    2.230000    2.230000
        zeta-weighting                 0.500000
      * Dispersion:
        s8                             2.700000
        a1                             0.520000
        a2                             5.000000
        s9                             5.000000
      * Repulsion:
        kExp                           1.500000    1.000000
        rExp                           1.000000
      * Coulomb:
        alpha                          2.000000
        third order                    shell-resolved
        anisotropic                    true
        a3                             3.000000
        a5                             4.000000
        cn-shift                       1.200000
        cn-exp                         4.000000
        max-rad                        5.000000


          ...................................................
          :                      SETUP                      :
          :.................................................:
          :  # basis functions                 672          :
          :  # atomic orbitals                 672          :
          :  # shells                          372          :
          :  # electrons                       738          :
          :  max. iterations                   250          :
          :  Hamiltonian                  GFN2-xTB          :
          :  restarted?                      false          :
          :  GBSA solvation                  false          :
          :  PC potential                    false          :
          :  electronic temp.          300.0000000     K    :
          :  accuracy                    1.0000000          :
          :  -> integral cutoff          0.2500000E+02      :
          :  -> integral neglect         0.1000000E-07      :
          :  -> SCF convergence          0.1000000E-05 Eh   :
          :  -> wf. convergence          0.1000000E-03 e    :
          :  Broyden damping             0.4000000          :
          ...................................................

 iter      E             dE          RMSdq      gap      omega  full diag
   1   -424.2546310 -0.424255E+03  0.527E+00    0.02       0.0  T
   2   -424.9233561 -0.668725E+00  0.308E+00    0.03       1.0  T
   3   -422.4335347  0.248982E+01  0.217E+00    0.01       1.0  T
   4   -408.9007374  0.135328E+02  0.370E+00    0.04       1.0  T
   5   -423.5789772 -0.146782E+02  0.164E+00    0.05       1.0  T
   6   -423.5145674  0.644098E-01  0.152E+00    0.16       1.0  T
   7   -424.6729206 -0.115835E+01  0.109E+00    0.23       1.0  T
   8   -425.0018909 -0.328970E+00  0.618E-01    0.04       1.0  T
   9   -424.9926718  0.921906E-02  0.562E-01    0.08       1.0  T
  10   -424.8927558  0.999160E-01  0.664E-01    0.16       1.0  T
  11   -424.9855491 -0.927933E-01  0.479E-01    0.11       1.0  T
  12   -425.0176902 -0.321411E-01  0.439E-01    0.10       1.0  T
  13   -425.1021911 -0.845009E-01  0.275E-01    0.02       1.0  T
  14   -425.0960222  0.616896E-02  0.227E-01    0.03       1.0  T
  15   -425.1106452 -0.146230E-01  0.163E-01    0.03       1.0  T
  16   -425.0896260  0.210192E-01  0.205E-01    0.05       1.0  T
  17   -425.1186973 -0.290713E-01  0.860E-02    0.00       1.0  T
  18   -425.1208915 -0.219422E-02  0.471E-02    0.01       1.0  T
  19   -425.1188770  0.201452E-02  0.603E-02    0.02       1.0  T
  20   -425.1212947 -0.241773E-02  0.233E-02    0.01       1.0  T
  21   -425.1204725  0.822209E-03  0.343E-02    0.02       1.0  T
  22   -425.1214506 -0.978114E-03  0.983E-03    0.01       1.0  T
  23   -425.1213971  0.535063E-04  0.116E-02    0.01       1.0  T
  24   -425.1214710 -0.738347E-04  0.669E-03    0.01       1.0  T
  25   -425.1214952 -0.242694E-04  0.209E-03    0.01       3.2  T
  26   -425.1214941  0.116868E-05  0.210E-03    0.01       3.2  T
  27   -425.1214945 -0.432032E-06  0.177E-03    0.01       3.8  T
  28   -425.1214970 -0.250979E-05  0.375E-04    0.01      17.9  T
  29   -425.1214971 -0.724130E-07  0.215E-04    0.01      31.3  T
  30   -425.1214971 -0.848559E-08  0.163E-04    0.01      41.2  T

   *** convergence criteria satisfied after 30 iterations ***

         #    Occupation            Energy/Eh            Energy/eV
      -------------------------------------------------------------
         1        2.0000           -0.7655313             -20.8312
       ...           ...                  ...                  ...
       363        1.9999           -0.3829109             -10.4195
       364        1.9998           -0.3824604             -10.4073
       365        1.9991           -0.3810059             -10.3677
       366        1.9989           -0.3808425             -10.3633
       367        1.9175           -0.3766593             -10.2494
       368        1.8926           -0.3763958             -10.2423
       369        1.1885           -0.3740325             -10.1779 (HOMO)
       370        1.0025           -0.3736749             -10.1682 (LUMO)
       371        0.0006           -0.3659939              -9.9592
       372        0.0005           -0.3658190              -9.9544
       373                         -0.3243804              -8.8268
       374                         -0.3236423              -8.8068
       ...                                ...                  ...
       672                          0.6912457              18.8098
      -------------------------------------------------------------
                  HL-Gap            0.0003576 Eh            0.0097 eV
             Fermi-level           -0.3736701 Eh          -10.1681 eV

 SCC (total)                   0 d,  0 h,  0 min,  5.549 sec
 SCC setup                      ...        0 min,  0.005 sec (  0.091%)
 Dispersion                     ...        0 min,  0.005 sec (  0.093%)
 classical contributions        ...        0 min,  0.001 sec (  0.018%)
 integral evaluation            ...        0 min,  0.034 sec (  0.612%)
 iterations                     ...        0 min,  5.266 sec ( 94.902%)
 molecular gradient             ...        0 min,  0.212 sec (  3.821%)
 printout                       ...        0 min,  0.026 sec (  0.463%)

         :::::::::::::::::::::::::::::::::::::::::::::::::::::
         ::                     SUMMARY                     ::
         :::::::::::::::::::::::::::::::::::::::::::::::::::::
         :: total energy            -419.730721003738 Eh    ::
         :: gradient norm              0.044107898272 Eh/a0 ::
         :: HOMO-LUMO gap              0.009731320084 eV    ::
         ::.................................................::
         :: SCC energy              -425.121497077145 Eh    ::
         :: -> isotropic ES            0.772077710755 Eh    ::
         :: -> anisotropic ES         -0.021725524421 Eh    ::
         :: -> anisotropic XC          0.126459727285 Eh    ::
         :: -> dispersion             -0.394691379859 Eh    ::
         :: repulsion energy           5.362511157448 Eh    ::
         :: add. restraining           0.000000000000 Eh    ::
         :: total charge              -0.000000000000 e     ::
         :::::::::::::::::::::::::::::::::::::::::::::::::::::

      ----------------------------------------------------------- 
     |                   =====================                   |
     |                        A N C O P T                        |
     |                   =====================                   |
     |               Approximate Normal Coordinate               |
     |                Rational Function Optimizer                |
      ----------------------------------------------------------- 

          ...................................................
          :                      SETUP                      :
          :.................................................:
          :   optimization level            normal          :
          :   max. optcycles                   666          :
          :   ANC micro-cycles                  20          :
          :   degrees of freedom               660          :
          :.................................................:
          :   RF solver                   davidson          :
          :   write xtbopt.log                true          :
          :   linear?                        false          :
          :   energy convergence         0.5000000E-05 Eh   :
          :   grad. convergence          0.1000000E-02 Eh/α :
          :   maxmium RF displ.          1.0000000          :
          :   Hlow (freq-cutoff)         0.1000000E-01      :
          :   Hmax (freq-cutoff)         5.0000000          :
          :   S6 in model hess.         20.0000000          :
          ...................................................

generating ANC from model Hessian ...
Using Lindh-Hessian (1995)
 Shifting diagonal of input Hessian by    1.0016000930404816E-002
 Lowest  eigenvalues of input Hessian
    0.010000    0.000000    0.000000    0.000000    0.000000    0.000000
    0.000000    0.010025    0.010058    0.010087    0.010102    0.010112
    0.010172    0.010212    0.010229    0.010289    0.010366    0.010436
 Highest eigenvalues
    2.395475    2.395503    2.397468    2.397473    2.398639    2.398641


........................................................................
.............................. CYCLE    1 ..............................
........................................................................

 iter      E             dE          RMSdq      gap      omega  full diag
   1   -425.1214971 -0.425121E+03  0.121E-04    0.01       0.0  T
   2   -425.1214918  0.529686E-05  0.233E-03    0.01       2.9  T
   3   -425.1214971 -0.528553E-05  0.175E-04    0.01      38.3  T
   4   -425.1214971 -0.153281E-07  0.105E-04    0.01      64.1  T
   5   -425.1214971 -0.461068E-08  0.698E-05    0.01      96.2  T
     SCC iter.                  ...        0 min,  0.945 sec
     gradient                   ...        0 min,  0.229 sec
 * total energy  :  -419.7307210 Eh     change       -0.1560545E-07 Eh
   gradient norm :     0.0441088 Eh/α   predicted     0.0000000E+00 (-100.00%)
   displ. norm   :     0.7472754 α      lambda       -0.2602060E-01
   maximum displ.:     0.2566952 α      in ANC's #21, #30, #32, ...

........................................................................
.............................. CYCLE    2 ..............................
........................................................................

 iter      E             dE          RMSdq      gap      omega  full diag
   1   -425.1426158 -0.425143E+03  0.105E-01    0.02       0.0  T
   2   -424.9903583  0.152258E+00  0.414E-01    0.13       1.0  T
   3   -425.1246318 -0.134274E+00  0.156E-01    0.05       1.0  T
   4   -425.1325280 -0.789612E-02  0.133E-01    0.01       1.0  T
   5   -425.0949783  0.375496E-01  0.267E-01    0.02       1.0  T
   6   -425.1416646 -0.466863E-01  0.717E-02    0.02       1.0  T
   7   -425.1402894  0.137520E-02  0.879E-02    0.02       1.0  T
   8   -425.1441029 -0.381347E-02  0.331E-02    0.01       1.0  T
   9   -425.1445711 -0.468189E-03  0.154E-02    0.01       1.0  T
  10   -425.1446677 -0.966692E-04  0.651E-03    0.01       1.0  T
  11   -425.1446667  0.103784E-05  0.477E-03    0.01       1.4  T
  12   -425.1446327  0.339532E-04  0.733E-03    0.01       1.0  T
  13   -425.1446674 -0.346903E-04  0.372E-03    0.01       1.8  T
  14   -425.1446706 -0.316366E-05  0.273E-03    0.01       2.5  T
  15   -425.1446766 -0.601604E-05  0.129E-03    0.01       5.2  T
  16   -425.1446772 -0.621514E-06  0.605E-04    0.01      11.1  T
  17   -425.1446775 -0.320057E-06  0.140E-04    0.01      48.1  T
     SCC iter.                  ...        0 min,  2.889 sec
     gradient                   ...        0 min,  0.204 sec
 * total energy  :  -419.7472859 Eh     change       -0.1656487E-01 Eh
   gradient norm :     0.0177193 Eh/α   predicted    -0.2027553E-01 (  22.40%)
   displ. norm   :     0.5277359 α      lambda       -0.7013936E-02
   maximum displ.:     0.1316694 α      in ANC's #12, #42, #21, ...

........................................................................
.............................. CYCLE    3 ..............................
........................................................................

 iter      E             dE          RMSdq      gap      omega  full diag
   1   -425.1470627 -0.425147E+03  0.658E-02    0.02       0.0  T
   2   -425.0110339  0.136029E+00  0.384E-01    0.13       1.0  T
   3   -425.1467201 -0.135686E+00  0.512E-02    0.02       1.0  T
   4   -425.1390198  0.770035E-02  0.122E-01    0.01       1.0  T
   5   -425.1377116  0.130819E-02  0.125E-01    0.01       1.0  T
   6   -425.1469288 -0.921720E-02  0.455E-02    0.01       1.0  T
   7   -425.1475079 -0.579150E-03  0.319E-02    0.01       1.0  T
   8   -425.1479399 -0.432025E-03  0.117E-02    0.01       1.0  T
   9   -425.1480106 -0.706736E-04  0.503E-03    0.01       1.3  T
  10   -425.1480237 -0.130542E-04  0.316E-03    0.01       2.1  T
  11   -425.1480267 -0.299134E-05  0.157E-03    0.01       4.3  T
  12   -425.1480249  0.177983E-05  0.202E-03    0.01       3.3  T
  13   -425.1480278 -0.294561E-05  0.705E-04    0.01       9.5  T
  14   -425.1480279 -0.100167E-06  0.363E-04    0.01      18.5  T
  15   -425.1480279  0.729756E-08  0.350E-04    0.01      19.2  T
     SCC iter.                  ...        0 min,  2.478 sec
     gradient                   ...        0 min,  0.211 sec
 * total energy  :  -419.7528247 Eh     change       -0.5538779E-02 Eh
   gradient norm :     0.0105800 Eh/α   predicted    -0.4483677E-02 ( -19.05%)
   displ. norm   :     0.6264400 α      lambda       -0.5038210E-02
   maximum displ.:     0.1809196 α      in ANC's #12, #42, #21, ...

........................................................................
.............................. CYCLE    4 ..............................
........................................................................

 iter      E             dE          RMSdq      gap      omega  full diag
   1   -425.1458119 -0.425146E+03  0.691E-02    0.02       0.0  T
   2   -425.0042511  0.141561E+00  0.393E-01    0.13       1.0  T
   3   -425.1451814 -0.140930E+00  0.562E-02    0.02       1.0  T
   4   -425.1289305  0.162509E-01  0.180E-01    0.02       1.0  T
   5   -425.1425380 -0.136075E-01  0.790E-02    0.02       1.0  T
   6   -425.1436919 -0.115398E-02  0.687E-02    0.02       1.0  T
   7   -425.1464004 -0.270843E-02  0.230E-02    0.01       1.0  T
   8   -425.1467527 -0.352341E-03  0.764E-03    0.01       1.0  T
   9   -425.1467683 -0.155969E-04  0.476E-03    0.01       1.4  T
  10   -425.1467713 -0.298503E-05  0.336E-03    0.01       2.0  T
  11   -425.1467785 -0.722650E-05  0.149E-03    0.01       4.5  T
  12   -425.1467775  0.103852E-05  0.170E-03    0.01       3.9  T
  13   -425.1467775  0.970067E-08  0.137E-03    0.01       4.9  T
  14   -425.1467792 -0.176419E-05  0.433E-04    0.01      15.5  T
  15   -425.1467793 -0.962559E-07  0.210E-04    0.01      32.0  T
  16   -425.1467794 -0.165360E-07  0.126E-04    0.01      53.1  T
     SCC iter.                  ...        0 min,  2.499 sec
     gradient                   ...        0 min,  0.207 sec
 * total energy  :  -419.7566945 Eh     change       -0.3869824E-02 Eh
   gradient norm :     0.0082079 Eh/α   predicted    -0.3507671E-02 (  -9.36%)
   displ. norm   :     0.6148160 α      lambda       -0.2949656E-02
   maximum displ.:     0.2081947 α      in ANC's #12, #7, #64, ...

........................................................................
.............................. CYCLE    5 ..............................
........................................................................

 iter      E             dE          RMSdq      gap      omega  full diag
   1   -425.1442784 -0.425144E+03  0.573E-02    0.02       0.0  T
   2   -425.0447239  0.995545E-01  0.326E-01    0.11       1.0  T
   3   -425.1393537 -0.946298E-01  0.820E-02    0.04       1.0  T
   4   -425.1312718  0.808189E-02  0.156E-01    0.00       1.0  T
   5   -425.1387968 -0.752501E-02  0.949E-02    0.02       1.0  T
   6   -425.1425286 -0.373182E-02  0.586E-02    0.02       1.0  T
   7   -425.1443601 -0.183153E-02  0.219E-02    0.02       1.0  T
   8   -425.1446564 -0.296249E-03  0.728E-03    0.01       1.0  T
   9   -425.1446723 -0.159560E-04  0.481E-03    0.01       1.4  T
  10   -425.1446789 -0.658039E-05  0.282E-03    0.01       2.4  T
  11   -425.1446784  0.532105E-06  0.246E-03    0.01       2.7  T
  12   -425.1446810 -0.263479E-05  0.180E-03    0.01       3.7  T
  13   -425.1446824 -0.141048E-05  0.612E-04    0.01      11.0  T
  14   -425.1446825 -0.421249E-07  0.399E-04    0.01      16.8  T
  15   -425.1446826 -0.105401E-06  0.206E-04    0.01      32.6  T
     SCC iter.                  ...        0 min,  2.150 sec
     gradient                   ...        0 min,  0.219 sec
 * total energy  :  -419.7589982 Eh     change       -0.2303710E-02 Eh
   gradient norm :     0.0074042 Eh/α   predicted    -0.2032319E-02 ( -11.78%)
   displ. norm   :     0.6107352 α      lambda       -0.1907062E-02
   maximum displ.:     0.2307189 α      in ANC's #12, #7, #4, ...

........................................................................
.............................. CYCLE    6 ..............................
........................................................................

 iter      E             dE          RMSdq      gap      omega  full diag
   1   -425.1437101 -0.425144E+03  0.494E-02    0.02       0.0  T
   2   -425.1034106  0.402995E-01  0.208E-01    0.05       1.0  T
   3   -425.1325174 -0.291068E-01  0.112E-01    0.05       1.0  T
   4   -425.1353059 -0.278849E-02  0.125E-01    0.01       1.0  T
   5   -425.1366601 -0.135425E-02  0.103E-01    0.01       1.0  T
   6   -425.1421089 -0.544871E-02  0.523E-02    0.02       1.0  T
   7   -425.1433872 -0.127838E-02  0.250E-02    0.02       1.0  T
   8   -425.1437374 -0.350210E-03  0.114E-02    0.02       1.0  T
   9   -425.1438336 -0.962031E-04  0.460E-03    0.01       1.5  T
  10   -425.1438406 -0.699158E-05  0.271E-03    0.01       2.5  T
  11   -425.1438429 -0.222388E-05  0.179E-03    0.01       3.8  T
  12   -425.1438415  0.140007E-05  0.198E-03    0.01       3.4  T
  13   -425.1438435 -0.205322E-05  0.104E-03    0.01       6.5  T
  14   -425.1438444 -0.843212E-06  0.293E-04    0.01      22.9  T
  15   -425.1438444 -0.254764E-07  0.187E-04    0.01      35.9  T
     SCC iter.                  ...        0 min,  2.163 sec
     gradient                   ...        0 min,  0.211 sec
 * total energy  :  -419.7605051 Eh     change       -0.1506883E-02 Eh
   gradient norm :     0.0063657 Eh/α   predicted    -0.1309199E-02 ( -13.12%)
   displ. norm   :     0.6060554 α      lambda       -0.1320189E-02
   maximum displ.:     0.2486942 α      in ANC's #12, #4, #7, ...

........................................................................
.............................. CYCLE    7 ..............................
........................................................................

 iter      E             dE          RMSdq      gap      omega  full diag
   1   -425.1443699 -0.425144E+03  0.448E-02    0.01       0.0  T
   2   -425.1437950  0.574912E-03  0.414E-02    0.02       1.0  T
   3   -425.1304515  0.133436E-01  0.148E-01    0.01       1.0  T
   4   -425.1395942 -0.914278E-02  0.878E-02    0.02       1.0  T
   5   -425.1406168 -0.102258E-02  0.694E-02    0.01       1.0  T
   6   -425.1406403 -0.235176E-04  0.629E-02    0.03       1.0  T
   7   -425.1442008 -0.356045E-02  0.176E-02    0.01       1.0  T
   8   -425.1443040 -0.103269E-03  0.104E-02    0.02       1.0  T
   9   -425.1443892 -0.851665E-04  0.366E-03    0.02       1.8  T
  10   -425.1443949 -0.571579E-05  0.178E-03    0.01       3.8  T
  11   -425.1443958 -0.824594E-06  0.132E-03    0.01       5.1  T
  12   -425.1443935  0.230083E-05  0.187E-03    0.01       3.6  T
  13   -425.1443955 -0.202746E-05  0.102E-03    0.01       6.5  T
  14   -425.1443964 -0.934901E-06  0.242E-04    0.01      27.7  T
  15   -425.1443964 -0.262572E-07  0.138E-04    0.01      48.6  T
     SCC iter.                  ...        0 min,  2.088 sec
     gradient                   ...        0 min,  0.209 sec
 * total energy  :  -419.7615615 Eh     change       -0.1056465E-02 Eh
   gradient norm :     0.0057295 Eh/α   predicted    -0.9025513E-03 ( -14.57%)
   displ. norm   :     0.5997562 α      lambda       -0.9827276E-03
   maximum displ.:     0.2613912 α      in ANC's #12, #4, #5, ...

........................................................................
.............................. CYCLE    8 ..............................
........................................................................

 iter      E             dE          RMSdq      gap      omega  full diag
   1   -425.1463587 -0.425146E+03  0.418E-02    0.01       0.0  T
   2   -425.1386494  0.770937E-02  0.934E-02    0.04       1.0  T
   3   -425.1244960  0.141534E-01  0.152E-01    0.03       1.0  T
   4   -425.1365020 -0.120060E-01  0.125E-01    0.02       1.0  T
   5   -425.1394644 -0.296241E-02  0.968E-02    0.01       1.0  T
   6   -425.1462751 -0.681071E-02  0.157E-02    0.01       1.0  T
   7   -425.1461567  0.118354E-03  0.201E-02    0.02       1.0  T
   8   -425.1462970 -0.140248E-03  0.107E-02    0.02       1.0  T
   9   -425.1463878 -0.907886E-04  0.374E-03    0.02       1.8  T
  10   -425.1463952 -0.743731E-05  0.193E-03    0.01       3.5  T
  11   -425.1463957 -0.470925E-06  0.156E-03    0.01       4.3  T
  12   -425.1463919  0.374014E-05  0.228E-03    0.01       2.9  T
  13   -425.1463961 -0.418300E-05  0.852E-04    0.01       7.9  T
  14   -425.1463967 -0.558761E-06  0.283E-04    0.01      23.7  T
  15   -425.1463967 -0.364190E-07  0.110E-04    0.01      60.9  T
     SCC iter.                  ...        0 min,  2.146 sec
     gradient                   ...        0 min,  0.214 sec
 * total energy  :  -419.7623564 Eh     change       -0.7948842E-03 Eh
   gradient norm :     0.0051234 Eh/α   predicted    -0.6681159E-03 ( -15.95%)
   displ. norm   :     0.5966948 α      lambda       -0.7803816E-03
   maximum displ.:     0.2695214 α      in ANC's #12, #5, #4, ...

........................................................................
.............................. CYCLE    9 ..............................
........................................................................

 iter      E             dE          RMSdq      gap      omega  full diag
   1   -425.1484498 -0.425148E+03  0.416E-02    0.01       0.0  T
   2   -425.1237844  0.246655E-01  0.162E-01    0.07       1.0  T
   3   -425.1416324 -0.178481E-01  0.876E-02    0.01       1.0  T
   4   -425.1310092  0.106232E-01  0.160E-01    0.02       1.0  T
   5   -425.1460429 -0.150337E-01  0.621E-02    0.01       1.0  T
   6   -425.1483202 -0.227727E-02  0.210E-02    0.02       1.0  T
   7   -425.1483886 -0.684381E-04  0.161E-02    0.02       1.0  T
   8   -425.1484488 -0.601766E-04  0.103E-02    0.02       1.0  T
   9   -425.1485338 -0.849778E-04  0.354E-03    0.02       1.9  T
  10   -425.1485413 -0.758906E-05  0.184E-03    0.01       3.6  T
  11   -425.1485422 -0.817041E-06  0.127E-03    0.01       5.3  T
  12   -425.1485396  0.255594E-05  0.179E-03    0.01       3.7  T
  13   -425.1485427 -0.306441E-05  0.436E-04    0.01      15.4  T
  14   -425.1485427 -0.291521E-07  0.308E-04    0.01      21.8  T
  15   -425.1485428 -0.642063E-07  0.986E-05    0.01      68.1  T
     SCC iter.                  ...        0 min,  2.134 sec
     gradient                   ...        0 min,  0.208 sec
 * total energy  :  -419.7629931 Eh     change       -0.6367070E-03 Eh
   gradient norm :     0.0050290 Eh/α   predicted    -0.5291359E-03 ( -16.89%)
   displ. norm   :     0.5950218 α      lambda       -0.6522187E-03
   maximum displ.:     0.2722177 α      in ANC's #12, #5, #4, ...

........................................................................
.............................. CYCLE   10 ..............................
........................................................................

 iter      E             dE          RMSdq      gap      omega  full diag
   1   -425.1505085 -0.425151E+03  0.423E-02    0.01       0.0  T
   2   -425.1200157  0.304928E-01  0.180E-01    0.08       1.0  T
   3   -425.1437015 -0.236858E-01  0.873E-02    0.01       1.0  T
   4   -425.1269875  0.167140E-01  0.183E-01    0.03       1.0  T
   5   -425.1491695 -0.221819E-01  0.530E-02    0.01       1.0  T
   6   -425.1500846 -0.915102E-03  0.321E-02    0.02       1.0  T
   7   -425.1505582 -0.473601E-03  0.107E-02    0.02       1.0  T
   8   -425.1505874 -0.292534E-04  0.682E-03    0.02       1.0  T
   9   -425.1506229 -0.355002E-04  0.203E-03    0.01       3.3  T
  10   -425.1506225  0.473449E-06  0.213E-03    0.01       3.2  T
  11   -425.1506242 -0.170535E-05  0.119E-03    0.01       5.6  T
  12   -425.1506237  0.427959E-06  0.115E-03    0.01       5.9  T
  13   -425.1506247 -0.969733E-06  0.389E-04    0.01      17.2  T
  14   -425.1506246  0.124261E-06  0.451E-04    0.01      14.9  T
     SCC iter.                  ...        0 min,  2.116 sec
     gradient                   ...        0 min,  0.214 sec
 * total energy  :  -419.7635266 Eh     change       -0.5334670E-03 Eh
   gradient norm :     0.0049915 Eh/α   predicted    -0.4415691E-03 ( -17.23%)
   displ. norm   :     0.5950783 α      lambda       -0.5615388E-03
   maximum displ.:     0.2683611 α      in ANC's #12, #5, #4, ...

........................................................................
.............................. CYCLE   11 ..............................
........................................................................

 iter      E             dE          RMSdq      gap      omega  full diag
   1   -425.1514871 -0.425151E+03  0.444E-02    0.01       0.0  T
   2   -425.1220283  0.294588E-01  0.180E-01    0.07       1.0  T
   3   -425.1406014 -0.185731E-01  0.109E-01    0.02       1.0  T
   4   -425.1270975  0.135039E-01  0.182E-01    0.03       1.0  T
   5   -425.1485354 -0.214379E-01  0.769E-02    0.02       1.0  T
   6   -425.1508467 -0.231133E-02  0.366E-02    0.02       1.0  T
   7   -425.1515369 -0.690138E-03  0.118E-02    0.01       1.0  T
   8   -425.1515938 -0.569572E-04  0.543E-03    0.01       1.2  T
   9   -425.1516033 -0.945856E-05  0.279E-03    0.01       2.4  T
  10   -425.1516055 -0.221201E-05  0.255E-03    0.01       2.6  T
  11   -425.1516044  0.104944E-05  0.213E-03    0.01       3.1  T
  12   -425.1516076 -0.311122E-05  0.133E-03    0.01       5.0  T
  13   -425.1516084 -0.894323E-06  0.261E-04    0.01      25.7  T
  14   -425.1516085 -0.287490E-07  0.139E-04    0.01      48.2  T
     SCC iter.                  ...        0 min,  1.973 sec
     gradient                   ...        0 min,  0.214 sec
 * total energy  :  -419.7639874 Eh     change       -0.4607877E-03 Eh
   gradient norm :     0.0066883 Eh/α   predicted    -0.3801961E-03 ( -17.49%)
   displ. norm   :     0.7116521 α      lambda       -0.7563312E-03
   maximum displ.:     0.3039343 α      in ANC's #12, #5, #4, ...

........................................................................
.............................. CYCLE   12 ..............................
........................................................................

 iter      E             dE          RMSdq      gap      omega  full diag
   1   -425.1525710 -0.425153E+03  0.597E-02    0.01       0.0  T
   2   -425.1113127  0.412583E-01  0.217E-01    0.08       1.0  T
   3   -425.1301238 -0.188111E-01  0.157E-01    0.03       1.0  T
   4   -425.1124201  0.177037E-01  0.229E-01    0.05       1.0  T
   5   -425.1441863 -0.317662E-01  0.124E-01    0.01       1.0  T
   6   -425.1516194 -0.743301E-02  0.489E-02    0.01       1.0  T
   7   -425.1525918 -0.972462E-03  0.193E-02    0.01       1.0  T
   8   -425.1527133 -0.121448E-03  0.104E-02    0.01       1.0  T
   9   -425.1527530 -0.397465E-04  0.620E-03    0.01       1.1  T
  10   -425.1527562 -0.315223E-05  0.498E-03    0.01       1.3  T
  11   -425.1527654 -0.924238E-05  0.304E-03    0.01       2.2  T
  12   -425.1527671 -0.173925E-05  0.254E-03    0.01       2.6  T
  13   -425.1527714 -0.426447E-05  0.702E-04    0.01       9.6  T
  14   -425.1527714  0.678216E-08  0.535E-04    0.01      12.6  T
  15   -425.1527716 -0.187865E-06  0.266E-04    0.01      25.2  T
     SCC iter.                  ...        0 min,  2.188 sec
     gradient                   ...        0 min,  0.210 sec
 * total energy  :  -419.7643559 Eh     change       -0.3685465E-03 Eh
   gradient norm :     0.0075275 Eh/α   predicted    -0.5696917E-03 (  54.58%)
   displ. norm   :     0.3639914 α      lambda       -0.3022521E-03
   maximum displ.:     0.1454794 α      in ANC's #12, #5, #4, ...

........................................................................
.............................. CYCLE   13 ..............................
........................................................................

 iter      E             dE          RMSdq      gap      omega  full diag
   1   -425.1514739 -0.425151E+03  0.308E-02    0.01       0.0  T
   2   -425.1462845  0.518939E-02  0.829E-02    0.03       1.0  T
   3   -425.1413623  0.492224E-02  0.104E-01    0.02       1.0  T
   4   -425.1401550  0.120726E-02  0.115E-01    0.04       1.0  T
   5   -425.1486391 -0.848405E-02  0.714E-02    0.01       1.0  T
   6   -425.1507456 -0.210654E-02  0.378E-02    0.02       1.0  T
   7   -425.1514801 -0.734508E-03  0.873E-03    0.01       1.0  T
   8   -425.1515094 -0.292757E-04  0.412E-03    0.01       1.6  T
   9   -425.1515110 -0.162784E-05  0.290E-03    0.01       2.3  T
  10   -425.1515123 -0.122709E-05  0.213E-03    0.01       3.2  T
  11   -425.1515133 -0.100314E-05  0.186E-03    0.01       3.6  T
  12   -425.1515145 -0.119920E-05  0.141E-03    0.01       4.8  T
  13   -425.1515162 -0.172148E-05  0.435E-04    0.01      15.4  T
  14   -425.1515162 -0.428906E-07  0.233E-04    0.01      28.8  T
  15   -425.1515163 -0.354904E-07  0.121E-04    0.01      55.3  T
     SCC iter.                  ...        0 min,  2.149 sec
     gradient                   ...        0 min,  0.210 sec
 * total energy  :  -419.7646160 Eh     change       -0.2600147E-03 Eh
   gradient norm :     0.0058791 Eh/α   predicted    -0.1711566E-03 ( -34.17%)
   displ. norm   :     0.5364616 α      lambda       -0.5495523E-03
   maximum displ.:     0.1690778 α      in ANC's #12, #5, #1, ...

........................................................................
.............................. CYCLE   14 ..............................
........................................................................

 iter      E             dE          RMSdq      gap      omega  full diag
   1   -425.1534144 -0.425153E+03  0.545E-02    0.01       0.0  T
   2   -425.1408934  0.125210E-01  0.129E-01    0.01       1.0  T
   3   -425.1249144  0.159790E-01  0.176E-01    0.07       1.0  T
   4   -425.1226476  0.226687E-02  0.197E-01    0.03       1.0  T
   5   -425.1320694 -0.942185E-02  0.167E-01    0.05       1.0  T
   6   -425.1508356 -0.187662E-01  0.617E-02    0.02       1.0  T
   7   -425.1523687 -0.153306E-02  0.402E-02    0.02       1.0  T
   8   -425.1530761 -0.707411E-03  0.227E-02    0.02       1.0  T
   9   -425.1532334 -0.157363E-03  0.174E-02    0.02       1.0  T
  10   -425.1534589 -0.225474E-03  0.856E-03    0.02       1.0  T
  11   -425.1535167 -0.578049E-04  0.375E-03    0.01       1.8  T
  12   -425.1535161  0.623136E-06  0.354E-03    0.01       1.9  T
  13   -425.1535214 -0.531245E-05  0.241E-03    0.01       2.8  T
  14   -425.1535240 -0.255707E-05  0.130E-03    0.01       5.2  T
  15   -425.1535254 -0.147790E-05  0.466E-04    0.01      14.4  T
  16   -425.1535255 -0.110675E-06  0.146E-04    0.01      45.8  T
  17   -425.1535255 -0.467139E-08  0.909E-05    0.01      73.8  T
     SCC iter.                  ...        0 min,  2.544 sec
     gradient                   ...        0 min,  0.214 sec
 * total energy  :  -419.7650218 Eh     change       -0.4058307E-03 Eh
   gradient norm :     0.0059027 Eh/α   predicted    -0.3538565E-03 ( -12.81%)
   displ. norm   :     0.5290774 α      lambda       -0.4014436E-03
   maximum displ.:     0.1784600 α      in ANC's #5, #1, #12, ...

........................................................................
.............................. CYCLE   15 ..............................
........................................................................

 iter      E             dE          RMSdq      gap      omega  full diag
   1   -425.1487224 -0.425149E+03  0.502E-02    0.02       0.0  T
   2   -425.0720237  0.766987E-01  0.286E-01    0.08       1.0  T
   3   -425.1423876 -0.703639E-01  0.906E-02    0.04       1.0  T
   4   -425.1362716  0.611601E-02  0.141E-01    0.01       1.0  T
   5   -425.1367095 -0.437828E-03  0.132E-01    0.03       1.0  T
   6   -425.1463718 -0.966232E-02  0.580E-02    0.02       1.0  T
   7   -425.1484526 -0.208083E-02  0.280E-02    0.02       1.0  T
   8   -425.1488982 -0.445555E-03  0.121E-02    0.02       1.0  T
   9   -425.1488525  0.456204E-04  0.114E-02    0.02       1.0  T
  10   -425.1489672 -0.114627E-03  0.390E-03    0.01       1.7  T
  11   -425.1489638  0.337836E-05  0.370E-03    0.01       1.8  T
  12   -425.1489731 -0.929533E-05  0.222E-03    0.01       3.0  T
  13   -425.1489714  0.164081E-05  0.222E-03    0.01       3.0  T
  14   -425.1489736 -0.218656E-05  0.130E-03    0.01       5.2  T
  15   -425.1489749 -0.129949E-05  0.413E-04    0.01      16.2  T
  16   -425.1489750 -0.672464E-07  0.174E-04    0.01      38.6  T
  17   -425.1489750 -0.139553E-07  0.685E-05    0.01      97.9  T
     SCC iter.                  ...        0 min,  2.432 sec
     gradient                   ...        0 min,  0.209 sec
 * total energy  :  -419.7652952 Eh     change       -0.2733877E-03 Eh
   gradient norm :     0.0076891 Eh/α   predicted    -0.2569127E-03 (  -6.03%)
   displ. norm   :     0.4483265 α      lambda       -0.3131431E-03
   maximum displ.:     0.1564541 α      in ANC's #5, #1, #4, ...

........................................................................
.............................. CYCLE   16 ..............................
........................................................................

 iter      E             dE          RMSdq      gap      omega  full diag
   1   -425.1499349 -0.425150E+03  0.433E-02    0.02       0.0  T
   2   -425.0574603  0.924746E-01  0.309E-01    0.09       1.0  T
   3   -425.1481679 -0.907076E-01  0.547E-02    0.03       1.0  T
   4   -425.1451894  0.297858E-02  0.995E-02    0.02       1.0  T
   5   -425.1455228 -0.333395E-03  0.807E-02    0.03       1.0  T
   6   -425.1491343 -0.361152E-02  0.399E-02    0.02       1.0  T
   7   -425.1499778 -0.843484E-03  0.204E-02    0.02       1.0  T
   8   -425.1502148 -0.237072E-03  0.711E-03    0.02       1.0  T
   9   -425.1501941  0.207334E-04  0.711E-03    0.02       1.0  T
  10   -425.1502349 -0.407892E-04  0.320E-03    0.01       2.1  T
  11   -425.1502332  0.165923E-05  0.324E-03    0.01       2.1  T
  12   -425.1502404 -0.713383E-05  0.156E-03    0.02       4.3  T
  13   -425.1502407 -0.338157E-06  0.113E-03    0.02       6.0  T
  14   -425.1502410 -0.334709E-06  0.629E-04    0.02      10.7  T
  15   -425.1502413 -0.243847E-06  0.277E-04    0.02      24.2  T
     SCC iter.                  ...        0 min,  2.307 sec
     gradient                   ...        0 min,  0.212 sec
 * total energy  :  -419.7655344 Eh     change       -0.2392280E-03 Eh
   gradient norm :     0.0069201 Eh/α   predicted    -0.1880427E-03 ( -21.40%)
   displ. norm   :     0.4698848 α      lambda       -0.3387228E-03
   maximum displ.:     0.1771667 α      in ANC's #5, #1, #4, ...

........................................................................
.............................. CYCLE   17 ..............................
........................................................................

 iter      E             dE          RMSdq      gap      omega  full diag
   1   -425.1521619 -0.425152E+03  0.453E-02    0.02       0.0  T
   2   -425.0191106  0.133051E+00  0.376E-01    0.09       1.0  T
   3   -425.1523316 -0.133221E+00  0.365E-02    0.02       1.0  T
   4   -425.1437838  0.854773E-02  0.110E-01    0.04       1.0  T
   5   -425.1415953  0.218850E-02  0.114E-01    0.04       1.0  T
   6   -425.1517240 -0.101286E-01  0.416E-02    0.02       1.0  T
   7   -425.1525325 -0.808539E-03  0.236E-02    0.01       1.0  T
   8   -425.1527586 -0.226084E-03  0.120E-02    0.01       1.0  T
   9   -425.1528375 -0.789142E-04  0.545E-03    0.02       1.2  T
  10   -425.1528206  0.168939E-04  0.598E-03    0.01       1.1  T
  11   -425.1528470 -0.263877E-04  0.377E-03    0.02       1.8  T
  12   -425.1528512 -0.424002E-05  0.166E-03    0.02       4.0  T
  13   -425.1528510  0.181867E-06  0.135E-03    0.02       5.0  T
  14   -425.1528525 -0.144390E-05  0.582E-04    0.02      11.5  T
  15   -425.1528527 -0.193785E-06  0.333E-04    0.02      20.1  T
  16   -425.1528527 -0.597792E-07  0.127E-04    0.02      53.0  T
     SCC iter.                  ...        0 min,  2.271 sec
     gradient                   ...        0 min,  0.207 sec
 * total energy  :  -419.7658063 Eh     change       -0.2719271E-03 Eh
   gradient norm :     0.0050057 Eh/α   predicted    -0.2067578E-03 ( -23.97%)
   displ. norm   :     0.5228882 α      lambda       -0.3477956E-03
   maximum displ.:     0.2037337 α      in ANC's #5, #1, #4, ...

........................................................................
.............................. CYCLE   18 ..............................
........................................................................

 iter      E             dE          RMSdq      gap      omega  full diag
   1   -425.1539017 -0.425154E+03  0.504E-02    0.03       0.0  T
   2   -425.0011449  0.152757E+00  0.414E-01    0.09       1.0  T
   3   -425.1542159 -0.153071E+00  0.434E-02    0.02       1.0  T
   4   -425.1459408  0.827506E-02  0.105E-01    0.04       1.0  T
   5   -425.1483854 -0.244454E-02  0.954E-02    0.03       1.0  T
   6   -425.1537894 -0.540400E-02  0.432E-02    0.02       1.0  T
   7   -425.1542406 -0.451276E-03  0.302E-02    0.02       1.0  T
   8   -425.1546682 -0.427575E-03  0.187E-02    0.02       1.0  T
   9   -425.1547519 -0.836965E-04  0.120E-02    0.02       1.0  T
  10   -425.1548298 -0.778630E-04  0.697E-03    0.02       1.0  T
  11   -425.1547716  0.581516E-04  0.985E-03    0.02       1.0  T
  12   -425.1548412 -0.695834E-04  0.407E-03    0.02       1.6  T
  13   -425.1548530 -0.117734E-04  0.271E-03    0.02       2.5  T
  14   -425.1548576 -0.457734E-05  0.111E-03    0.02       6.1  T
  15   -425.1548575  0.964590E-07  0.875E-04    0.02       7.7  T
  16   -425.1548580 -0.589980E-06  0.206E-04    0.02      32.6  T
     SCC iter.                  ...        0 min,  2.255 sec
     gradient                   ...        0 min,  0.209 sec
 * total energy  :  -419.7660723 Eh     change       -0.2659697E-03 Eh
   gradient norm :     0.0052569 Eh/α   predicted    -0.2214461E-03 ( -16.74%)
   displ. norm   :     0.5439193 α      lambda       -0.2949604E-03
   maximum displ.:     0.2140511 α      in ANC's #5, #1, #4, ...

........................................................................
.............................. CYCLE   19 ..............................
........................................................................

 iter      E             dE          RMSdq      gap      omega  full diag
   1   -425.1538395 -0.425154E+03  0.495E-02    0.03       0.0  T
   2   -425.0025724  0.151267E+00  0.415E-01    0.08       1.0  T
   3   -425.1540015 -0.151429E+00  0.440E-02    0.02       1.0  T
   4   -425.1470403  0.696123E-02  0.100E-01    0.04       1.0  T
   5   -425.1491924 -0.215210E-02  0.929E-02    0.03       1.0  T
   6   -425.1537987 -0.460633E-02  0.400E-02    0.02       1.0  T
   7   -425.1540413 -0.242663E-03  0.296E-02    0.02       1.0  T
   8   -425.1545403 -0.498973E-03  0.176E-02    0.02       1.0  T
   9   -425.1545848 -0.444493E-04  0.127E-02    0.02       1.0  T
  10   -425.1546775 -0.927085E-04  0.686E-03    0.02       1.0  T
  11   -425.1546372  0.403001E-04  0.879E-03    0.02       1.0  T
  12   -425.1546929 -0.557414E-04  0.349E-03    0.02       1.9  T
  13   -425.1547013 -0.839348E-05  0.228E-03    0.02       2.9  T
  14   -425.1547033 -0.202455E-05  0.148E-03    0.02       4.5  T
  15   -425.1547043 -0.927350E-06  0.823E-04    0.02       8.2  T
  16   -425.1547047 -0.429730E-06  0.254E-04    0.02      26.4  T
     SCC iter.                  ...        0 min,  2.366 sec
     gradient                   ...        0 min,  0.208 sec
 * total energy  :  -419.7662995 Eh     change       -0.2272442E-03 Eh
   gradient norm :     0.0061743 Eh/α   predicted    -0.1911166E-03 ( -15.90%)
   displ. norm   :     0.5234828 α      lambda       -0.2743892E-03
   maximum displ.:     0.2076149 α      in ANC's #5, #1, #4, ...

........................................................................
.............................. CYCLE   20 ..............................
........................................................................

 iter      E             dE          RMSdq      gap      omega  full diag
   1   -425.1545271 -0.425155E+03  0.434E-02    0.03       0.0  T
   2   -425.0284945  0.126033E+00  0.374E-01    0.08       1.0  T
   3   -425.1526724 -0.124178E+00  0.557E-02    0.03       1.0  T
   4   -425.1480714  0.460097E-02  0.106E-01    0.01       1.0  T
   5   -425.1484697 -0.398350E-03  0.976E-02    0.03       1.0  T
   6   -425.1547239 -0.625420E-02  0.237E-02    0.02       1.0  T
   7   -425.1548955 -0.171613E-03  0.159E-02    0.02       1.0  T
   8   -425.1548032  0.923296E-04  0.156E-02    0.02       1.0  T
   9   -425.1550031 -0.199856E-03  0.770E-03    0.02       1.0  T
  10   -425.1550153 -0.122460E-04  0.501E-03    0.02       1.3  T
  11   -425.1550301 -0.148267E-04  0.256E-03    0.02       2.6  T
  12   -425.1550102  0.199359E-04  0.484E-03    0.02       1.4  T
  13   -425.1550299 -0.197175E-04  0.203E-03    0.02       3.3  T
  14   -425.1550316 -0.163102E-05  0.127E-03    0.02       5.3  T
  15   -425.1550324 -0.855203E-06  0.533E-04    0.02      12.6  T
  16   -425.1550325 -0.135414E-06  0.237E-04    0.02      28.3  T
     SCC iter.                  ...        0 min,  2.277 sec
     gradient                   ...        0 min,  0.210 sec
 * total energy  :  -419.7665196 Eh     change       -0.2200774E-03 Eh
   gradient norm :     0.0057857 Eh/α   predicted    -0.1747925E-03 ( -20.58%)
   displ. norm   :     0.5353408 α      lambda       -0.2893735E-03
   maximum displ.:     0.2087326 α      in ANC's #5, #1, #4, ...
 * RMSD in coord.:     0.5781756 α      energy gain  -0.3579862E-01 Eh

generating ANC from model Hessian ...
Using Lindh-Hessian (1995)
 Shifting diagonal of input Hessian by    1.0010289351410418E-002
 Lowest  eigenvalues of input Hessian
    0.010000    0.010007    0.000000    0.000000    0.000000    0.000000
    0.000000    0.000000    0.010032    0.010087    0.010094    0.010099
    0.010165    0.010207    0.010216    0.010251    0.010315    0.010362
 Highest eigenvalues
    2.392334    2.396223    2.397959    2.398108    2.398191    2.399030


........................................................................
.............................. CYCLE   21 ..............................
........................................................................

 iter      E             dE          RMSdq      gap      omega  full diag
   1   -425.1542533 -0.425154E+03  0.431E-02    0.03       0.0  T
   2   -425.0420301  0.112223E+00  0.348E-01    0.07       1.0  T
   3   -425.1520980 -0.110068E+00  0.569E-02    0.04       1.0  T
   4   -425.1441455  0.795254E-02  0.127E-01    0.01       1.0  T
   5   -425.1495752 -0.542977E-02  0.881E-02    0.02       1.0  T
   6   -425.1544043 -0.482907E-02  0.209E-02    0.02       1.0  T
   7   -425.1545111 -0.106815E-03  0.139E-02    0.02       1.0  T
   8   -425.1545076  0.354631E-05  0.146E-02    0.02       1.0  T
   9   -425.1546143 -0.106754E-03  0.772E-03    0.02       1.0  T
  10   -425.1546426 -0.282419E-04  0.413E-03    0.02       1.6  T
  11   -425.1546498 -0.726301E-05  0.302E-03    0.02       2.2  T
  12   -425.1546306  0.192144E-04  0.497E-03    0.02       1.4  T
  13   -425.1546523 -0.216889E-04  0.172E-03    0.02       3.9  T
  14   -425.1546537 -0.142504E-05  0.100E-03    0.02       6.7  T
  15   -425.1546545 -0.756784E-06  0.408E-04    0.02      16.4  T
  16   -425.1546545 -0.487525E-07  0.188E-04    0.02      35.8  T
     SCC iter.                  ...        0 min,  2.291 sec
     gradient                   ...        0 min,  0.208 sec
 * total energy  :  -419.7667449 Eh     change       -0.2252850E-03 Eh
   gradient norm :     0.0060693 Eh/α   predicted     0.0000000E+00 (-100.00%)
   displ. norm   :     0.0676463 α      lambda       -0.8310541E-04
   maximum displ.:     0.0287889 α      in ANC's #12, #2, #5, ...

........................................................................
.............................. CYCLE   22 ..............................
........................................................................

 iter      E             dE          RMSdq      gap      omega  full diag
   1   -425.1553780 -0.425155E+03  0.101E-02    0.02       0.0  T
   2   -425.1517093  0.366869E-02  0.632E-02    0.04       1.0  T
   3   -425.1536003 -0.189095E-02  0.439E-02    0.01       1.0  T
   4   -425.1552255 -0.162522E-02  0.169E-02    0.02       1.0  T
   5   -425.1550776  0.147909E-03  0.225E-02    0.02       1.0  T
   6   -425.1552882 -0.210623E-03  0.139E-02    0.02       1.0  T
   7   -425.1553788 -0.905901E-04  0.550E-03    0.02       1.2  T
   8   -425.1553901 -0.113133E-04  0.294E-03    0.02       2.3  T
   9   -425.1553947 -0.458519E-05  0.151E-03    0.02       4.4  T
  10   -425.1553951 -0.379604E-06  0.931E-04    0.02       7.2  T
  11   -425.1553957 -0.629398E-06  0.395E-04    0.02      17.0  T
     SCC iter.                  ...        0 min,  1.668 sec
     gradient                   ...        0 min,  0.211 sec
 * total energy  :  -419.7668291 Eh     change       -0.8414476E-04 Eh
   gradient norm :     0.0034828 Eh/α   predicted    -0.5002763E-04 ( -40.55%)
   displ. norm   :     0.2377563 α      lambda       -0.2292860E-03
   maximum displ.:     0.1041581 α      in ANC's #12, #2, #5, ...

........................................................................
.............................. CYCLE   23 ..............................
........................................................................

 iter      E             dE          RMSdq      gap      omega  full diag
   1   -425.1557840 -0.425156E+03  0.318E-02    0.02       0.0  T
   2   -425.1226771  0.331069E-01  0.188E-01    0.08       1.0  T
   3   -425.1414681 -0.187909E-01  0.129E-01    0.02       1.0  T
   4   -425.1541540 -0.126859E-01  0.548E-02    0.02       1.0  T
   5   -425.1534464  0.707510E-03  0.624E-02    0.01       1.0  T
   6   -425.1546095 -0.116304E-02  0.488E-02    0.02       1.0  T
   7   -425.1557170 -0.110755E-02  0.206E-02    0.02       1.0  T
   8   -425.1559525 -0.235498E-03  0.871E-03    0.02       1.0  T
   9   -425.1559803 -0.277417E-04  0.364E-03    0.02       1.8  T
  10   -425.1559845 -0.419459E-05  0.210E-03    0.02       3.2  T
  11   -425.1559783  0.611250E-05  0.300E-03    0.02       2.2  T
  12   -425.1559866 -0.827764E-05  0.842E-04    0.02       8.0  T
  13   -425.1559866  0.585474E-07  0.657E-04    0.02      10.2  T
  14   -425.1559867 -0.141520E-06  0.519E-04    0.02      12.9  T
     SCC iter.                  ...        0 min,  1.992 sec
     gradient                   ...        0 min,  0.206 sec
 * total energy  :  -419.7669834 Eh     change       -0.1543401E-03 Eh
   gradient norm :     0.0040659 Eh/α   predicted    -0.1211250E-03 ( -21.52%)
   displ. norm   :     0.2098468 α      lambda       -0.1110045E-03
   maximum displ.:     0.0958781 α      in ANC's #12, #2, #4, ...

........................................................................
.............................. CYCLE   24 ..............................
........................................................................

 iter      E             dE          RMSdq      gap      omega  full diag
   1   -425.1556475 -0.425156E+03  0.225E-02    0.02       0.0  T
   2   -425.1410976  0.145499E-01  0.125E-01    0.06       1.0  T
   3   -425.1479069 -0.680932E-02  0.920E-02    0.01       1.0  T
   4   -425.1545976 -0.669071E-02  0.431E-02    0.02       1.0  T
   5   -425.1542045  0.393037E-03  0.488E-02    0.01       1.0  T
   6   -425.1550738 -0.869275E-03  0.338E-02    0.02       1.0  T
   7   -425.1556360 -0.562220E-03  0.123E-02    0.02       1.0  T
   8   -425.1557166 -0.805245E-04  0.408E-03    0.02       1.6  T
   9   -425.1557158  0.749584E-06  0.329E-03    0.02       2.0  T
  10   -425.1557211 -0.530200E-05  0.177E-03    0.02       3.8  T
  11   -425.1557210  0.972969E-07  0.167E-03    0.02       4.0  T
  12   -425.1557233 -0.226358E-05  0.674E-04    0.02      10.0  T
  13   -425.1557234 -0.720652E-07  0.524E-04    0.02      12.8  T
  14   -425.1557236 -0.194845E-06  0.227E-04    0.02      29.6  T
     SCC iter.                  ...        0 min,  1.986 sec
     gradient                   ...        0 min,  0.209 sec
 * total energy  :  -419.7670745 Eh     change       -0.9110369E-04 Eh
   gradient norm :     0.0051198 Eh/α   predicted    -0.5845367E-04 ( -35.84%)
   displ. norm   :     0.3275198 α      lambda       -0.1659160E-03
   maximum displ.:     0.1496805 α      in ANC's #12, #2, #4, ...

........................................................................
.............................. CYCLE   25 ..............................
........................................................................

 iter      E             dE          RMSdq      gap      omega  full diag
   1   -425.1549655 -0.425155E+03  0.300E-02    0.02       0.0  T
   2   -425.1337316  0.212339E-01  0.151E-01    0.07       1.0  T
   3   -425.1444413 -0.107097E-01  0.107E-01    0.02       1.0  T
   4   -425.1526547 -0.821337E-02  0.636E-02    0.02       1.0  T
   5   -425.1518188  0.835873E-03  0.718E-02    0.01       1.0  T
   6   -425.1540015 -0.218271E-02  0.432E-02    0.02       1.0  T
   7   -425.1549208 -0.919268E-03  0.162E-02    0.02       1.0  T
   8   -425.1550555 -0.134721E-03  0.534E-03    0.02       1.3  T
   9   -425.1550332  0.223088E-04  0.637E-03    0.02       1.1  T
  10   -425.1550669 -0.337656E-04  0.240E-03    0.02       2.8  T
  11   -425.1550645  0.241809E-05  0.265E-03    0.02       2.5  T
  12   -425.1550700 -0.552425E-05  0.108E-03    0.02       6.2  T
  13   -425.1550703 -0.281184E-06  0.812E-04    0.02       8.3  T
  14   -425.1550707 -0.339875E-06  0.407E-04    0.02      16.5  T
     SCC iter.                  ...        0 min,  1.974 sec
     gradient                   ...        0 min,  0.208 sec
 * total energy  :  -419.7672105 Eh     change       -0.1360449E-03 Eh
   gradient norm :     0.0048813 Eh/α   predicted    -0.9185853E-04 ( -32.48%)
   displ. norm   :     0.4255801 α      lambda       -0.2004986E-03
   maximum displ.:     0.1948100 α      in ANC's #12, #2, #4, ...

........................................................................
.............................. CYCLE   26 ..............................
........................................................................

 iter      E             dE          RMSdq      gap      omega  full diag
   1   -425.1543372 -0.425154E+03  0.328E-02    0.02       0.0  T
   2   -425.1384421  0.158951E-01  0.130E-01    0.06       1.0  T
   3   -425.1437859 -0.534372E-02  0.106E-01    0.02       1.0  T
   4   -425.1500166 -0.623078E-02  0.878E-02    0.02       1.0  T
   5   -425.1508019 -0.785308E-03  0.768E-02    0.02       1.0  T
   6   -425.1534773 -0.267537E-02  0.392E-02    0.02       1.0  T
   7   -425.1542614 -0.784077E-03  0.164E-02    0.02       1.0  T
   8   -425.1543773 -0.115910E-03  0.612E-03    0.02       1.1  T
   9   -425.1543494  0.279294E-04  0.744E-03    0.02       1.0  T
  10   -425.1544016 -0.522279E-04  0.168E-03    0.02       4.0  T
  11   -425.1543998  0.178629E-05  0.190E-03    0.02       3.5  T
  12   -425.1544025 -0.273023E-05  0.110E-03    0.02       6.1  T
  13   -425.1544025  0.100068E-07  0.740E-04    0.02       9.1  T
  14   -425.1544030 -0.498542E-06  0.261E-04    0.02      25.7  T
     SCC iter.                  ...        0 min,  1.985 sec
     gradient                   ...        0 min,  0.209 sec
 * total energy  :  -419.7673740 Eh     change       -0.1634741E-03 Eh
   gradient norm :     0.0047282 Eh/α   predicted    -0.1184129E-03 ( -27.56%)
   displ. norm   :     0.4734185 α      lambda       -0.2079776E-03
   maximum displ.:     0.2155171 α      in ANC's #12, #2, #4, ...

........................................................................
.............................. CYCLE   27 ..............................
........................................................................

 iter      E             dE          RMSdq      gap      omega  full diag
   1   -425.1543099 -0.425154E+03  0.315E-02    0.02       0.0  T
   2   -425.1531865  0.112340E-02  0.405E-02    0.03       1.0  T
   3   -425.1229813  0.302052E-01  0.182E-01    0.04       1.0  T
   4   -425.1440992 -0.211178E-01  0.120E-01    0.04       1.0  T
   5   -425.1528119 -0.871272E-02  0.482E-02    0.01       1.0  T
   6   -425.1536979 -0.885960E-03  0.325E-02    0.02       1.0  T
   7   -425.1542011 -0.503271E-03  0.134E-02    0.02       1.0  T
   8   -425.1543164 -0.115300E-03  0.333E-03    0.02       2.0  T
   9   -425.1543090  0.741648E-05  0.394E-03    0.02       1.7  T
  10   -425.1543202 -0.111912E-04  0.140E-03    0.02       4.8  T
  11   -425.1543197  0.550296E-06  0.140E-03    0.02       4.8  T
  12   -425.1543213 -0.159578E-05  0.793E-04    0.02       8.5  T
  13   -425.1543214 -0.135587E-06  0.492E-04    0.02      13.6  T
  14   -425.1543215 -0.654243E-07  0.270E-04    0.02      24.8  T
     SCC iter.                  ...        0 min,  2.089 sec
     gradient                   ...        0 min,  0.210 sec
 * total energy  :  -419.7675480 Eh     change       -0.1739428E-03 Eh
   gradient norm :     0.0053711 Eh/α   predicted    -0.1273104E-03 ( -26.81%)
   displ. norm   :     0.5294859 α      lambda       -0.2354412E-03
   maximum displ.:     0.2369595 α      in ANC's #12, #2, #4, ...

........................................................................
.............................. CYCLE   28 ..............................
........................................................................

 iter      E             dE          RMSdq      gap      omega  full diag
   1   -425.1548784 -0.425155E+03  0.334E-02    0.02       0.0  T
   2   -425.1431120  0.117664E-01  0.117E-01    0.02       1.0  T
   3   -425.1478468 -0.473471E-02  0.866E-02    0.04       1.0  T
   4   -425.1407629  0.708388E-02  0.134E-01    0.01       1.0  T
   5   -425.1522197 -0.114568E-01  0.704E-02    0.02       1.0  T
   6   -425.1547949 -0.257521E-02  0.171E-02    0.02       1.0  T
   7   -425.1547496  0.453411E-04  0.184E-02    0.02       1.0  T
   8   -425.1548911 -0.141553E-03  0.674E-03    0.02       1.0  T
   9   -425.1549045 -0.133549E-04  0.532E-03    0.02       1.3  T
  10   -425.1549269 -0.223904E-04  0.192E-03    0.02       3.5  T
  11   -425.1549249  0.193818E-05  0.220E-03    0.02       3.1  T
  12   -425.1549248  0.118139E-06  0.232E-03    0.02       2.9  T
  13   -425.1549286 -0.381148E-05  0.869E-04    0.02       7.7  T
  14   -425.1549291 -0.526770E-06  0.326E-04    0.02      20.6  T
  15   -425.1549292 -0.548861E-07  0.180E-04    0.02      37.4  T
     SCC iter.                  ...        0 min,  2.383 sec
     gradient                   ...        0 min,  0.215 sec
 * total energy  :  -419.7677497 Eh     change       -0.2017322E-03 Eh
   gradient norm :     0.0059059 Eh/α   predicted    -0.1508085E-03 ( -25.24%)
   displ. norm   :     0.5916048 α      lambda       -0.2760186E-03
   maximum displ.:     0.2569946 α      in ANC's #12, #2, #4, ...

........................................................................
.............................. CYCLE   29 ..............................
........................................................................

 iter      E             dE          RMSdq      gap      omega  full diag
   1   -425.1555690 -0.425156E+03  0.398E-02    0.02       0.0  T
   2   -425.0764269  0.791421E-01  0.298E-01    0.08       1.0  T
   3   -425.1511272 -0.747003E-01  0.733E-02    0.04       1.0  T
   4   -425.1444573  0.666997E-02  0.123E-01    0.01       1.0  T
   5   -425.1528310 -0.837371E-02  0.758E-02    0.02       1.0  T
   6   -425.1555458 -0.271481E-02  0.245E-02    0.02       1.0  T
   7   -425.1555356  0.102267E-04  0.233E-02    0.02       1.0  T
   8   -425.1558222 -0.286668E-03  0.614E-03    0.02       1.1  T
   9   -425.1557803  0.418890E-04  0.841E-03    0.02       1.0  T
  10   -425.1558424 -0.620669E-04  0.246E-03    0.02       2.7  T
  11   -425.1558315  0.108895E-04  0.377E-03    0.02       1.8  T
  12   -425.1558392 -0.770848E-05  0.264E-03    0.02       2.5  T
  13   -425.1558437 -0.451507E-05  0.137E-03    0.02       4.9  T
  14   -425.1558449 -0.114489E-05  0.574E-04    0.02      11.7  T
  15   -425.1558450 -0.124281E-06  0.335E-04    0.02      20.0  T
  16   -425.1558450 -0.323183E-07  0.193E-04    0.02      34.8  T
     SCC iter.                  ...        0 min,  2.452 sec
     gradient                   ...        0 min,  0.213 sec
 * total energy  :  -419.7679869 Eh     change       -0.2372281E-03 Eh
   gradient norm :     0.0057965 Eh/α   predicted    -0.1863143E-03 ( -21.46%)
   displ. norm   :     0.6216171 α      lambda       -0.2954251E-03
   maximum displ.:     0.2726833 α      in ANC's #2, #12, #4, ...

........................................................................
.............................. CYCLE   30 ..............................
........................................................................

 iter      E             dE          RMSdq      gap      omega  full diag
   1   -425.1558676 -0.425156E+03  0.459E-02    0.02       0.0  T
   2   -425.0238020  0.132066E+00  0.390E-01    0.09       1.0  T
   3   -425.1545752 -0.130773E+00  0.532E-02    0.03       1.0  T
   4   -425.1450645  0.951078E-02  0.127E-01    0.01       1.0  T
   5   -425.1499467 -0.488221E-02  0.947E-02    0.04       1.0  T
   6   -425.1550661 -0.511938E-02  0.481E-02    0.02       1.0  T
   7   -425.1561458 -0.107970E-02  0.253E-02    0.02       1.0  T
   8   -425.1564487 -0.302942E-03  0.949E-03    0.02       1.0  T
   9   -425.1564268  0.218507E-04  0.967E-03    0.02       1.0  T
  10   -425.1564956 -0.687641E-04  0.446E-03    0.02       1.5  T
  11   -425.1564768  0.188415E-04  0.551E-03    0.02       1.2  T
  12   -425.1564971 -0.203003E-04  0.309E-03    0.02       2.2  T
  13   -425.1565032 -0.613600E-05  0.173E-03    0.02       3.9  T
  14   -425.1565041 -0.883014E-06  0.986E-04    0.02       6.8  T
  15   -425.1565043 -0.185310E-06  0.592E-04    0.02      11.3  T
     SCC iter.                  ...        0 min,  2.577 sec
     gradient                   ...        0 min,  0.220 sec
 * total energy  :  -419.7682361 Eh     change       -0.2491618E-03 Eh
   gradient norm :     0.0050078 Eh/α   predicted    -0.2047914E-03 ( -17.81%)
   displ. norm   :     0.6011691 α      lambda       -0.2711971E-03
   maximum displ.:     0.2751490 α      in ANC's #2, #12, #4, ...

........................................................................
.............................. CYCLE   31 ..............................
........................................................................

 iter      E             dE          RMSdq      gap      omega  full diag
   1   -425.1558325 -0.425156E+03  0.480E-02    0.03       0.0  T
   2   -425.0031976  0.152635E+00  0.419E-01    0.10       1.0  T
   3   -425.1562605 -0.153063E+00  0.390E-02    0.02       1.0  T
   4   -425.1510100  0.525050E-02  0.863E-02    0.04       1.0  T
   5   -425.1500004  0.100965E-02  0.976E-02    0.04       1.0  T
   6   -425.1550814 -0.508105E-02  0.522E-02    0.02       1.0  T
   7   -425.1561930 -0.111159E-02  0.301E-02    0.02       1.0  T
   8   -425.1566730 -0.479962E-03  0.147E-02    0.02       1.0  T
   9   -425.1566799 -0.694000E-05  0.120E-02    0.02       1.0  T
  10   -425.1567751 -0.951454E-04  0.574E-03    0.02       1.2  T
  11   -425.1567561  0.189471E-04  0.673E-03    0.02       1.0  T
  12   -425.1567931 -0.369543E-04  0.202E-03    0.02       3.3  T
  13   -425.1567944 -0.130695E-05  0.189E-03    0.02       3.5  T
  14   -425.1567961 -0.173872E-05  0.102E-03    0.02       6.6  T
  15   -425.1567962 -0.564597E-07  0.758E-04    0.02       8.8  T
  16   -425.1567966 -0.442237E-06  0.173E-04    0.02      38.8  T
     SCC iter.                  ...        0 min,  2.522 sec
     gradient                   ...        0 min,  0.217 sec
 * total energy  :  -419.7684571 Eh     change       -0.2210324E-03 Eh
   gradient norm :     0.0039471 Eh/α   predicted    -0.1846156E-03 ( -16.48%)
   displ. norm   :     0.5386423 α      lambda       -0.2110768E-03
   maximum displ.:     0.2574453 α      in ANC's #2, #12, #4, ...

........................................................................
.............................. CYCLE   32 ..............................
........................................................................

 iter      E             dE          RMSdq      gap      omega  full diag
   1   -425.1560484 -0.425156E+03  0.427E-02    0.03       0.0  T
   2   -425.0110748  0.144974E+00  0.399E-01    0.09       1.0  T
   3   -425.1564968 -0.145422E+00  0.328E-02    0.02       1.0  T
   4   -425.1525726  0.392417E-02  0.735E-02    0.04       1.0  T
   5   -425.1497199  0.285274E-02  0.951E-02    0.04       1.0  T
   6   -425.1557440 -0.602415E-02  0.432E-02    0.02       1.0  T
   7   -425.1565990 -0.854940E-03  0.239E-02    0.02       1.0  T
   8   -425.1568299 -0.230961E-03  0.110E-02    0.02       1.0  T
   9   -425.1568711 -0.411438E-04  0.621E-03    0.02       1.1  T
  10   -425.1568922 -0.211407E-04  0.342E-03    0.02       2.0  T
  11   -425.1568910  0.122758E-05  0.365E-03    0.02       1.8  T
  12   -425.1568973 -0.635450E-05  0.193E-03    0.02       3.5  T
  13   -425.1568995 -0.219870E-05  0.106E-03    0.02       6.3  T
  14   -425.1569000 -0.467293E-06  0.720E-04    0.02       9.3  T
  15   -425.1569003 -0.307011E-06  0.371E-04    0.02      18.1  T
     SCC iter.                  ...        0 min,  2.526 sec
     gradient                   ...        0 min,  0.213 sec
 * total energy  :  -419.7686263 Eh     change       -0.1691447E-03 Eh
   gradient norm :     0.0035393 Eh/α   predicted    -0.1361797E-03 ( -19.49%)
   displ. norm   :     0.4482610 α      lambda       -0.1662491E-03
   maximum displ.:     0.2257292 α      in ANC's #2, #7, #4, ...

........................................................................
.............................. CYCLE   33 ..............................
........................................................................

 iter      E             dE          RMSdq      gap      omega  full diag
   1   -425.1571556 -0.425157E+03  0.352E-02    0.03       0.0  T
   2   -425.0273352  0.129820E+00  0.370E-01    0.09       1.0  T
   3   -425.1576135 -0.130278E+00  0.236E-02    0.02       1.0  T
   4   -425.1553097  0.230381E-02  0.561E-02    0.03       1.0  T
   5   -425.1541721  0.113756E-02  0.687E-02    0.03       1.0  T
   6   -425.1571211 -0.294903E-02  0.310E-02    0.02       1.0  T
   7   -425.1575327 -0.411581E-03  0.202E-02    0.02       1.0  T
   8   -425.1577228 -0.190107E-03  0.907E-03    0.02       1.0  T
   9   -425.1577501 -0.272558E-04  0.497E-03    0.02       1.3  T
  10   -425.1577658 -0.157511E-04  0.267E-03    0.02       2.5  T
  11   -425.1577678 -0.198502E-05  0.193E-03    0.02       3.5  T
  12   -425.1577700 -0.215966E-05  0.964E-04    0.02       7.0  T
  13   -425.1577702 -0.165417E-06  0.602E-04    0.02      11.1  T
  14   -425.1577703 -0.109522E-06  0.312E-04    0.02      21.5  T
     SCC iter.                  ...        0 min,  2.115 sec
     gradient                   ...        0 min,  0.210 sec
 * total energy  :  -419.7687618 Eh     change       -0.1355728E-03 Eh
   gradient norm :     0.0037531 Eh/α   predicted    -0.9983071E-04 ( -26.36%)
   displ. norm   :     0.4033366 α      lambda       -0.1622970E-03
   maximum displ.:     0.2137028 α      in ANC's #2, #7, #4, ...

........................................................................
.............................. CYCLE   34 ..............................
........................................................................

 iter      E             dE          RMSdq      gap      omega  full diag
   1   -425.1583217 -0.425158E+03  0.310E-02    0.03       0.0  T
   2   -425.0504608  0.107861E+00  0.335E-01    0.08       1.0  T
   3   -425.1583978 -0.107937E+00  0.268E-02    0.03       1.0  T
   4   -425.1564210  0.197677E-02  0.618E-02    0.02       1.0  T
   5   -425.1551759  0.124514E-02  0.683E-02    0.03       1.0  T
   6   -425.1579540 -0.277812E-02  0.326E-02    0.03       1.0  T
   7   -425.1586019 -0.647898E-03  0.147E-02    0.02       1.0  T
   8   -425.1586891 -0.872434E-04  0.720E-03    0.02       1.0  T
   9   -425.1587131 -0.240067E-04  0.291E-03    0.02       2.3  T
  10   -425.1587146 -0.150375E-05  0.212E-03    0.02       3.2  T
  11   -425.1587163 -0.164186E-05  0.138E-03    0.02       4.9  T
  12   -425.1587151  0.121560E-05  0.168E-03    0.02       4.0  T
  13   -425.1587173 -0.225509E-05  0.544E-04    0.02      12.3  T
  14   -425.1587173 -0.224596E-07  0.338E-04    0.02      19.9  T
  15   -425.1587174 -0.803357E-07  0.151E-04    0.02      44.5  T
     SCC iter.                  ...        0 min,  2.248 sec
     gradient                   ...        0 min,  0.213 sec
 * total energy  :  -419.7688973 Eh     change       -0.1355189E-03 Eh
   gradient norm :     0.0040173 Eh/α   predicted    -0.9435038E-04 ( -30.38%)
   displ. norm   :     0.4127594 α      lambda       -0.1847222E-03
   maximum displ.:     0.2287774 α      in ANC's #2, #7, #4, ...

........................................................................
.............................. CYCLE   35 ..............................
........................................................................

 iter      E             dE          RMSdq      gap      omega  full diag
   1   -425.1596189 -0.425160E+03  0.326E-02    0.03       0.0  T
   2   -425.0687205  0.908983E-01  0.309E-01    0.08       1.0  T
   3   -425.1585634 -0.898429E-01  0.443E-02    0.03       1.0  T
   4   -425.1551241  0.343926E-02  0.864E-02    0.02       1.0  T
   5   -425.1572048 -0.208067E-02  0.634E-02    0.03       1.0  T
   6   -425.1586388 -0.143407E-02  0.402E-02    0.03       1.0  T
   7   -425.1597208 -0.108200E-02  0.178E-02    0.02       1.0  T
   8   -425.1598947 -0.173904E-03  0.789E-03    0.02       1.0  T
   9   -425.1599210 -0.262566E-04  0.265E-03    0.02       2.5  T
  10   -425.1599217 -0.650577E-06  0.205E-03    0.02       3.3  T
  11   -425.1599222 -0.571229E-06  0.153E-03    0.02       4.4  T
  12   -425.1599184  0.380498E-05  0.234E-03    0.02       2.9  T
  13   -425.1599229 -0.451905E-05  0.864E-04    0.02       7.8  T
  14   -425.1599233 -0.336032E-06  0.415E-04    0.02      16.2  T
  15   -425.1599234 -0.105617E-06  0.181E-04    0.02      37.2  T
     SCC iter.                  ...        0 min,  2.220 sec
     gradient                   ...        0 min,  0.210 sec
 * total energy  :  -419.7690473 Eh     change       -0.1499991E-03 Eh
   gradient norm :     0.0041664 Eh/α   predicted    -0.1081005E-03 ( -27.93%)
   displ. norm   :     0.4184475 α      lambda       -0.1753449E-03
   maximum displ.:     0.2406308 α      in ANC's #2, #7, #4, ...

........................................................................
.............................. CYCLE   36 ..............................
........................................................................

 iter      E             dE          RMSdq      gap      omega  full diag
   1   -425.1592914 -0.425159E+03  0.314E-02    0.03       0.0  T
   2   -425.1150650  0.442265E-01  0.217E-01    0.05       1.0  T
   3   -425.1565078 -0.414429E-01  0.599E-02    0.04       1.0  T
   4   -425.1539926  0.251525E-02  0.914E-02    0.01       1.0  T
   5   -425.1565537 -0.256109E-02  0.679E-02    0.03       1.0  T
   6   -425.1582233 -0.166967E-02  0.400E-02    0.03       1.0  T
   7   -425.1591983 -0.974970E-03  0.179E-02    0.03       1.0  T
   8   -425.1594148 -0.216527E-03  0.648E-03    0.02       1.0  T
   9   -425.1594251 -0.102579E-04  0.299E-03    0.02       2.2  T
  10   -425.1594282 -0.314662E-05  0.210E-03    0.02       3.2  T
  11   -425.1594297 -0.147003E-05  0.161E-03    0.02       4.2  T
  12   -425.1594264  0.334261E-05  0.234E-03    0.02       2.9  T
  13   -425.1594305 -0.413342E-05  0.108E-03    0.02       6.2  T
  14   -425.1594312 -0.663278E-06  0.470E-04    0.02      14.3  T
  15   -425.1594313 -0.165330E-06  0.163E-04    0.02      41.1  T
     SCC iter.                  ...        0 min,  2.225 sec
     gradient                   ...        0 min,  0.214 sec
 * total energy  :  -419.7691840 Eh     change       -0.1366668E-03 Eh
   gradient norm :     0.0036363 Eh/α   predicted    -0.1030257E-03 ( -24.62%)
   displ. norm   :     0.3582057 α      lambda       -0.1326323E-03
   maximum displ.:     0.2148371 α      in ANC's #2, #7, #1, ...

........................................................................
.............................. CYCLE   37 ..............................
........................................................................

 iter      E             dE          RMSdq      gap      omega  full diag
   1   -425.1599795 -0.425160E+03  0.248E-02    0.02       0.0  T
   2   -425.1563081  0.367138E-02  0.650E-02    0.01       1.0  T
   3   -425.1539729  0.233518E-02  0.805E-02    0.05       1.0  T
   4   -425.1539547  0.182223E-04  0.957E-02    0.01       1.0  T
   5   -425.1576702 -0.371545E-02  0.581E-02    0.03       1.0  T
   6   -425.1595404 -0.187023E-02  0.251E-02    0.03       1.0  T
   7   -425.1598933 -0.352934E-03  0.124E-02    0.02       1.0  T
   8   -425.1599843 -0.909939E-04  0.481E-03    0.02       1.4  T
   9   -425.1599928 -0.848244E-05  0.271E-03    0.02       2.5  T
  10   -425.1599973 -0.449584E-05  0.130E-03    0.02       5.2  T
  11   -425.1599958  0.154942E-05  0.172E-03    0.02       3.9  T
  12   -425.1599971 -0.132793E-05  0.140E-03    0.02       4.8  T
  13   -425.1599985 -0.139537E-05  0.438E-04    0.02      15.3  T
  14   -425.1599985 -0.331942E-07  0.258E-04    0.02      26.1  T
  15   -425.1599986 -0.541571E-07  0.679E-05    0.02      98.9  T
     SCC iter.                  ...        0 min,  2.143 sec
     gradient                   ...        0 min,  0.213 sec
 * total energy  :  -419.7692860 Eh     change       -0.1019841E-03 Eh
   gradient norm :     0.0033497 Eh/α   predicted    -0.7482841E-04 ( -26.63%)
   displ. norm   :     0.2947012 α      lambda       -0.1027933E-03
   maximum displ.:     0.1847684 α      in ANC's #2, #7, #1, ...

........................................................................
.............................. CYCLE   38 ..............................
........................................................................

 iter      E             dE          RMSdq      gap      omega  full diag
   1   -425.1591752 -0.425159E+03  0.187E-02    0.02       0.0  T
   2   -425.1564586  0.271652E-02  0.546E-02    0.04       1.0  T
   3   -425.1558444  0.614263E-03  0.596E-02    0.01       1.0  T
   4   -425.1578835 -0.203914E-02  0.498E-02    0.03       1.0  T
   5   -425.1589076 -0.102406E-02  0.221E-02    0.02       1.0  T
   6   -425.1590805 -0.172936E-03  0.126E-02    0.02       1.0  T
   7   -425.1591081 -0.275755E-04  0.110E-02    0.02       1.0  T
   8   -425.1591828 -0.746706E-04  0.222E-03    0.02       3.0  T
   9   -425.1591841 -0.132408E-05  0.167E-03    0.02       4.0  T
  10   -425.1591850 -0.915700E-06  0.796E-04    0.02       8.4  T
  11   -425.1591848  0.195427E-06  0.863E-04    0.02       7.8  T
     SCC iter.                  ...        0 min,  1.651 sec
     gradient                   ...        0 min,  0.213 sec
 * total energy  :  -419.7693665 Eh     change       -0.8053388E-04 Eh
   gradient norm :     0.0028282 Eh/α   predicted    -0.5586518E-04 ( -30.63%)
   displ. norm   :     0.2629142 α      lambda       -0.9557217E-04
   maximum displ.:     0.1688728 α      in ANC's #2, #1, #7, ...

........................................................................
.............................. CYCLE   39 ..............................
........................................................................

 iter      E             dE          RMSdq      gap      omega  full diag
   1   -425.1600299 -0.425160E+03  0.186E-02    0.02       0.0  T
   2   -425.1370163  0.230137E-01  0.154E-01    0.07       1.0  T
   3   -425.1597505 -0.227342E-01  0.236E-02    0.02       1.0  T
   4   -425.1587881  0.962390E-03  0.455E-02    0.02       1.0  T
   5   -425.1590250 -0.236848E-03  0.416E-02    0.02       1.0  T
   6   -425.1600245 -0.999550E-03  0.128E-02    0.02       1.0  T
   7   -425.1600438 -0.192837E-04  0.111E-02    0.02       1.0  T
   8   -425.1600852 -0.414276E-04  0.533E-03    0.02       1.3  T
   9   -425.1601093 -0.240208E-04  0.182E-03    0.02       3.7  T
  10   -425.1601103 -0.106283E-05  0.887E-04    0.02       7.6  T
  11   -425.1601104 -0.907905E-07  0.738E-04    0.02       9.1  T
[...]

Topologies differ in total number of bonds
Writing corrected topology to xtbtopo.mol

molecular dipole:
                 x           y           z       tot (Debye)
 q only:        2.206      -3.352      -1.869
   full:        2.467      -3.860      -1.665      12.388
molecular quadrupole (traceless):
                xx          xy          yy          xz          yz          zz
 q only:       42.589     -20.717     -24.743      86.473     -39.846     -17.847
  q+dip:       26.627     -28.446     -27.500      84.342     -51.256       0.873
   full:       15.871     -27.109     -39.738      77.819     -55.566      23.866

           -------------------------------------------------
          |                Geometry Summary                 |
           -------------------------------------------------

      molecular mass/u    :     2007.4170436
   center of mass at/Å    :       -0.8783999       0.4355982       4.1466125
  moments of inertia/u·Å² :        0.4698728E+05   0.6190661E+05   0.6945878E+05
rotational constants/cm⁻¹ :        0.3587701E-03   0.2723075E-03   0.2426998E-03

 * 222 selected distances

     #   Z          #   Z                                           value/Å
     1   6 C        2   6 C                                       1.4099723
     2   6 C        3   6 C                                       1.3932657
     3   6 C        4   6 C                                       1.4281088
     4   6 C        5   6 C                                       1.4272022
     1   6 C        6   6 C                                       1.4217449
     5   6 C        6   6 C                                       1.3791021
     7   6 C        8   6 C                                       1.4074380
     8   6 C        9   6 C                                       1.4384808
     4   6 C       10   7 N                                       1.3245654
     9   6 C       10   7 N                                       1.3406884
    11   6 C       12   6 C                                       1.4360094
    12   6 C       13   7 N                                       1.3258655
     8   6 C       14   6 C                                       1.4325836
    13   7 N       14   6 C                                       1.3374733
    14   6 C       15   6 C                                       1.4053006
    15   6 C       16   6 C                                       1.3875350
     9   6 C       17   6 C                                       1.4031056
    16   6 C       17   6 C                                       1.3903613
    11   6 C       18   6 C                                       1.4155879
    18   6 C       19   6 C                                       1.4239498
    19   6 C       20   6 C                                       1.4164670
    12   6 C       21   6 C                                       1.4249183
    20   6 C       21   6 C                                       1.3779983
     2   6 C       22   8 O                                       1.3214926
    26   6 C       27   6 C                                       1.4102508
    27   6 C       28   6 C                                       1.3947910
    28   6 C       29   6 C                                       1.4278087
    29   6 C       30   6 C                                       1.4259122
    26   6 C       31   6 C                                       1.4221401
    30   6 C       31   6 C                                       1.3794152
    32   6 C       33   6 C                                       1.4060960
    33   6 C       34   6 C                                       1.4368830
    29   6 C       35   7 N                                       1.3259497
    34   6 C       35   7 N                                       1.3395083
    36   6 C       37   6 C                                       1.4358294
    37   6 C       38   7 N                                       1.3238409
    33   6 C       39   6 C                                       1.4319670
    38   7 N       39   6 C                                       1.3362028
    39   6 C       40   6 C                                       1.4034409
    40   6 C       41   6 C                                       1.3887828
    34   6 C       42   6 C                                       1.4065475
    41   6 C       42   6 C                                       1.3887943
    36   6 C       43   6 C                                       1.4131147
    43   6 C       44   6 C                                       1.4252126
    44   6 C       45   6 C                                       1.4160768
    37   6 C       46   6 C                                       1.4248121
    45   6 C       46   6 C                                       1.3800567
    27   6 C       47   8 O                                       1.3226127
    22   8 O       51   5 B                                       1.4244366
    47   8 O       51   5 B                                       1.4317363
    25   6 C       52   8 O                                       1.2049301
    25   6 C       53   8 O                                       1.3389129
    53   8 O       54   6 C                                       1.4203459
    24   6 C       55   8 O                                       1.3345791
    55   8 O       56   6 C                                       1.4260409
    24   6 C       57   8 O                                       1.2061619
    48   6 C       58   8 O                                       1.2005835
    48   6 C       59   8 O                                       1.3476843
    59   8 O       60   6 C                                       1.4214271
    50   6 C       61   8 O                                       1.2026233
    50   6 C       62   8 O                                       1.3379918
    62   8 O       63   6 C                                       1.4218514
    49   6 C       64   8 O                                       1.2066877
    49   6 C       65   8 O                                       1.3338950
    65   8 O       66   6 C                                       1.4256028
    23   6 C       67   8 O                                       1.2048819
    23   6 C       68   8 O                                       1.3386302
    68   8 O       69   6 C                                       1.4240340
    18   6 C       70   7 N                                       1.3765272
    51   5 B       70   7 N                                       1.5505729
    70   7 N       72   6 C                                       1.4542426
    71   6 C       72   6 C                                       1.5316515
    43   6 C       73   7 N                                       1.3752582
    51   5 B       73   7 N                                       1.5504232
    73   7 N       75   6 C                                       1.4535273
    74   6 C       75   6 C                                       1.5314678
    60   6 C       76   1 H                                       1.0904944
    60   6 C       77   1 H                                       1.0917883
    60   6 C       78   1 H                                       1.0904160
    56   6 C       79   1 H                                       1.0915179
    56   6 C       80   1 H                                       1.0912900
    56   6 C       81   1 H                                       1.0869221
    54   6 C       82   1 H                                       1.0868232
    54   6 C       83   1 H                                       1.0918862
    54   6 C       84   1 H                                       1.0918845
    71   6 C       85   1 H                                       1.0869259
    71   6 C       86   1 H                                       1.0878667
    71   6 C       87   1 H                                       1.0868323
    72   6 C       88   1 H                                       1.0935500
    72   6 C       89   1 H                                       1.0875177
    74   6 C       90   1 H                                       1.0868602
    74   6 C       91   1 H                                       1.0879003
    74   6 C       92   1 H                                       1.0868554
    75   6 C       93   1 H                                       1.0940068
    75   6 C       94   1 H                                       1.0872761
    66   6 C       95   1 H                                       1.0884432
    66   6 C       96   1 H                                       1.0911813
    66   6 C       97   1 H                                       1.0914190
    63   6 C       98   1 H                                       1.0874268
    63   6 C       99   1 H                                       1.0915837
    63   6 C      100   1 H                                       1.0916679
    69   6 C      101   1 H                                       1.0917380
    69   6 C      102   1 H                                       1.0874441
    69   6 C      103   1 H                                       1.0913798
    40   6 C      104   1 H                                       1.0784008
    42   6 C      105   1 H                                       1.0775889
    46   6 C      106   1 H                                       1.0798607
    30   6 C      107   1 H                                       1.0796233
    21   6 C      108   1 H                                       1.0781700
    15   6 C      109   1 H                                       1.0772926
    17   6 C      110   1 H                                       1.0785043
     5   6 C      111   1 H                                       1.0795989
   112   6 C      113   6 C                                       1.4101886
   113   6 C      114   6 C                                       1.3908522
   114   6 C      115   6 C                                       1.4281506
   115   6 C      116   6 C                                       1.4295200
   112   6 C      117   6 C                                       1.4228062
   116   6 C      117   6 C                                       1.3785073
   118   6 C      119   6 C                                       1.4081986
   119   6 C      120   6 C                                       1.4384809
   115   6 C      121   7 N                                       1.3234143
   120   6 C      121   7 N                                       1.3415567
   123   6 C      124   7 N                                       1.3219722
   119   6 C      125   6 C                                       1.4312915
   124   7 N      125   6 C                                       1.3378317
   125   6 C      126   6 C                                       1.4047135
   126   6 C      127   6 C                                       1.3878424
   120   6 C      128   6 C                                       1.4031695
   127   6 C      128   6 C                                       1.3902489
   122   6 C      129   6 C                                       1.4197018
   129   6 C      130   6 C                                       1.4275828
   130   6 C      131   6 C                                       1.4131558
   123   6 C      132   6 C                                       1.4294165
   131   6 C      132   6 C                                       1.3746731
   113   6 C      133   8 O                                       1.3194305
   137   6 C      138   6 C                                       1.4114866
   138   6 C      139   6 C                                       1.3886430
   139   6 C      140   6 C                                       1.4289751
   140   6 C      141   6 C                                       1.4306873
   137   6 C      142   6 C                                       1.4228520
   141   6 C      142   6 C                                       1.3769067
   143   6 C      144   6 C                                       1.4099148
   144   6 C      145   6 C                                       1.4374017
   140   6 C      146   7 N                                       1.3208320
   145   6 C      146   7 N                                       1.3423823
   148   6 C      149   7 N                                       1.3215789
   144   6 C      150   6 C                                       1.4318153
   149   7 N      150   6 C                                       1.3336768
   150   6 C      151   6 C                                       1.4073252
   151   6 C      152   6 C                                       1.3868167
   145   6 C      153   6 C                                       1.4024122
   152   6 C      153   6 C                                       1.3903988
   147   6 C      154   6 C                                       1.4220372
   154   6 C      155   6 C                                       1.4278155
   155   6 C      156   6 C                                       1.4127449
   148   6 C      157   6 C                                       1.4272278
   156   6 C      157   6 C                                       1.3759331
   138   6 C      158   8 O                                       1.3178351
   133   8 O      162   5 B                                       1.4105809
   158   8 O      162   5 B                                       1.4069983
   136   6 C      163   8 O                                       1.2049263
   136   6 C      164   8 O                                       1.3380754
   164   8 O      165   6 C                                       1.4203384
   135   6 C      166   8 O                                       1.3360062
   166   8 O      167   6 C                                       1.4256265
   135   6 C      168   8 O                                       1.2030445
   159   6 C      169   8 O                                       1.2028101
   159   6 C      170   8 O                                       1.3419761
   170   8 O      171   6 C                                       1.4232178
   161   6 C      172   8 O                                       1.2065863
   161   6 C      173   8 O                                       1.3327756
   173   8 O      174   6 C                                       1.4212576
   160   6 C      175   8 O                                       1.2047495
   160   6 C      176   8 O                                       1.3320797
   176   8 O      177   6 C                                       1.4247624
   134   6 C      178   8 O                                       1.2039280
   134   6 C      179   8 O                                       1.3370411
   179   8 O      180   6 C                                       1.4258287
   129   6 C      181   7 N                                       1.3712294
   162   5 B      181   7 N                                       1.5825817 (max)
   181   7 N      183   6 C                                       1.4582769
   182   6 C      183   6 C                                       1.5310871
   154   6 C      184   7 N                                       1.3712208
   162   5 B      184   7 N                                       1.5602200
   184   7 N      186   6 C                                       1.4524607
   185   6 C      186   6 C                                       1.5236952
   171   6 C      187   1 H                                       1.0918375
   171   6 C      188   1 H                                       1.0915778
   171   6 C      189   1 H                                       1.0880547
   167   6 C      190   1 H                                       1.0923415
   167   6 C      191   1 H                                       1.0910563
   167   6 C      192   1 H                                       1.0867675
   165   6 C      193   1 H                                       1.0868238
   165   6 C      194   1 H                                       1.0918508
   165   6 C      195   1 H                                       1.0919618
   182   6 C      196   1 H                                       1.0871649
   182   6 C      197   1 H                                       1.0881808
   182   6 C      198   1 H                                       1.0863817
   183   6 C      199   1 H                                       1.0935625
   183   6 C      200   1 H                                       1.0884384
   185   6 C      201   1 H                                       1.0860086
   185   6 C      202   1 H                                       1.0879233
   185   6 C      203   1 H                                       1.0859037
   186   6 C      204   1 H                                       1.0933479
   186   6 C      205   1 H                                       1.0868743
   177   6 C      206   1 H                                       1.0867479
   177   6 C      207   1 H                                       1.0913769
   177   6 C      208   1 H                                       1.0921107
   174   6 C      209   1 H                                       1.0908133
   174   6 C      210   1 H                                       1.0920146
   174   6 C      211   1 H                                       1.0867337
   180   6 C      212   1 H                                       1.0918592
   180   6 C      213   1 H                                       1.0873825
   180   6 C      214   1 H                                       1.0912815
   151   6 C      215   1 H                                       1.0785285
Note: The following floating-point exceptions are signalling: IEEE_UNDERFLOW_FLAG
normal termination of xtb
   153   6 C      216   1 H                                       1.0776636
   157   6 C      217   1 H                                       1.0794575
   141   6 C      218   1 H                                       1.0800830
   132   6 C      219   1 H                                       1.0789409
   126   6 C      220   1 H                                       1.0772761 (min)
   128   6 C      221   1 H                                       1.0786081
   116   6 C      222   1 H                                       1.0796881

 * 6 distinct bonds (by element types)

   Z      Z             #   av. dist./Å        max./Å        min./Å
   1 H    6 C          72     1.0871745     1.0940068     1.0772761
   6 C    6 C          78     1.4171136     1.5316515     1.3746731
   5 B    7 N           4     1.5609495     1.5825817     1.5504232
   6 C    7 N          24     1.3587534     1.4582769     1.3208320
   5 B    8 O           4     1.4184380     1.4317363     1.4069983
   6 C    8 O          40     1.3215816     1.4260409     1.2005835


optimized geometry written to: xtbopt.mol


           -------------------------------------------------
          | TOTAL ENERGY             -419.792127059204 Eh   |
          | GRADIENT NORM               0.000878359981 Eh/α |
          | HOMO-LUMO GAP               0.015196454179 eV   |
           -------------------------------------------------
########################################################################
[WARNING] Runtime exception occurred
-2- restart_readRestart: Dimension missmatch in restart file.
-1- restart_readRestart: Number of electron missmatch in restart file.
########################################################################

------------------------------------------------------------------------
 * finished run on 2024/10/31 at 16:53:53.318     
------------------------------------------------------------------------
 total:
 * wall-time:     0 d,  0 h,  6 min, 46.941 sec
 *  cpu-time:     0 d,  0 h, 21 min, 36.124 sec
 * ratio c/w:     3.185 speedup
 SCF:
 * wall-time:     0 d,  0 h,  0 min,  5.552 sec
 *  cpu-time:     0 d,  0 h,  0 min, 19.965 sec
 * ratio c/w:     3.596 speedup
 ANC optimizer:
 * wall-time:     0 d,  0 h,  6 min, 41.320 sec
 *  cpu-time:     0 d,  0 h, 21 min, 16.050 sec
 * ratio c/w:     3.180 speedup

