222
 energy: -419.640699131532 gnorm: 0.245095253471 xtb: 6.7.1 (edcfbbe)
C            0.38680000000000        3.52340000000000        2.12490000000000
C            1.00920000000000        2.25730000000000        2.35350000000000
C            2.38640000000000        1.92970000000000        2.33500000000000
C            3.25710000000000        3.03820000000000        2.35410000000000
C            2.68960000000000        4.32690000000000        2.11210000000000
C            1.33970000000000        4.57240000000000        1.93800000000000
C            2.83860000000000        0.55860000000000        2.52890000000000
C            4.14330000000000        0.49450000000000        3.04360000000000
C            4.96730000000000        1.66640000000000        3.07290000000000
N            4.55630000000000        2.89670000000000        2.66080000000000
C            2.14450000000000       -0.71750000000000        2.39690000000000
C            2.66480000000000       -1.85310000000000        3.07460000000000
N            3.87260000000000       -1.86080000000000        3.65710000000000
C            4.62070000000000       -0.73730000000000        3.57160000000000
C            5.92040000000000       -0.77550000000000        4.07670000000000
C            6.74260000000000        0.33120000000000        4.05350000000000
C            6.26920000000000        1.53720000000000        3.56630000000000
C            0.98470000000000       -1.02760000000000        1.55080000000000
C            0.11510000000000       -2.18920000000000        1.72850000000000
C            0.60910000000000       -3.17310000000000        2.62320000000000
C            1.86320000000000       -3.02760000000000        3.18220000000000
O            0.23600000000000        1.21310000000000        2.64560000000000
C            0.89830000000000        5.90530000000000        1.46220000000000
C           -0.32740000000000       -4.19960000000000        3.16180000000000
C            8.12100000000000        0.20420000000000        4.57830000000000
C           -1.26330000000000       -2.13830000000000        1.17480000000000
C           -1.97040000000000       -0.90070000000000        1.28250000000000
C           -3.19260000000000       -0.52580000000000        0.67790000000000
C           -3.91820000000000       -1.59260000000000        0.10960000000000
C           -3.28270000000000       -2.86890000000000        0.03400000000000
C           -2.01290000000000       -3.14600000000000        0.49940000000000
C           -3.74140000000000        0.81150000000000        0.84890000000000
C           -5.12530000000000        0.85970000000000        0.61860000000000
C           -5.79990000000000       -0.26720000000000        0.04860000000000
N           -5.19780000000000       -1.44530000000000       -0.26260000000000
C           -3.13040000000000        2.05210000000000        1.30690000000000
C           -3.96730000000000        3.10760000000000        1.74900000000000
N           -5.30080000000000        3.09330000000000        1.60120000000000
C           -5.85680000000000        2.02440000000000        0.98640000000000
C           -7.23240000000000        2.04550000000000        0.74050000000000
C           -7.88160000000000        0.97680000000000        0.15820000000000
C           -7.17280000000000       -0.16080000000000       -0.17950000000000
C           -1.71180000000000        2.43040000000000        1.24560000000000
C           -1.09440000000000        3.53130000000000        1.98710000000000
C           -2.02500000000000        4.46250000000000        2.52020000000000
C           -3.37490000000000        4.25960000000000        2.33810000000000
O           -1.47490000000000        0.03780000000000        2.08760000000000
C           -1.43380000000000       -4.48940000000000        0.26920000000000
C           -1.61370000000000        5.69530000000000        3.23300000000000
C           -9.33990000000000        1.04800000000000       -0.08070000000000
B           -0.36410000000000        0.71310000000000        1.39640000000000
O            8.96020000000000        1.04290000000000        4.31820000000000
O            8.35670000000000       -0.90250000000000        5.34380000000000
C            9.65360000000000       -0.86330000000000        5.84000000000000
O            0.03140000000000       -5.51190000000000        3.06290000000000
C           -1.01780000000000       -6.29620000000000        3.53130000000000
O           -1.36350000000000       -3.82160000000000        3.67690000000000
O           -2.15310000000000       -5.46950000000000        0.28260000000000
O           -0.09070000000000       -4.53780000000000        0.02700000000000
C            0.31700000000000       -5.86290000000000       -0.06720000000000
O           -9.94570000000000        2.06230000000000        0.20430000000000
O           -9.92470000000000       -0.06140000000000       -0.61890000000000
C          -11.29020000000000        0.15840000000000       -0.75840000000000
O           -2.34180000000000        6.66880000000000        3.18460000000000
O           -0.43100000000000        5.67860000000000        3.91260000000000
C           -0.14850000000000        6.95730000000000        4.38310000000000
O            1.48940000000000        6.90770000000000        1.81270000000000
O           -0.16800000000000        5.90960000000000        0.60650000000000
C           -0.56810000000000        7.21670000000000        0.34890000000000
N            0.59350000000000       -0.14920000000000        0.57550000000000
C            1.51770000000000       -0.72400000000000       -1.61400000000000
C            0.27500000000000       -0.57290000000000       -0.76320000000000
N           -0.86810000000000        1.75090000000000        0.40240000000000
C           -0.77140000000000        2.76570000000000       -1.81850000000000
C           -0.01940000000000        2.41430000000000       -0.55270000000000
H            1.36940000000000       -5.89380000000000       -0.35680000000000
H           -0.29950000000000       -6.37240000000000       -0.81240000000000
H            0.18200000000000       -6.33350000000000        0.91020000000000
H           -1.87640000000000       -6.15530000000000        2.86690000000000
H           -1.27320000000000       -5.96470000000000        4.54290000000000
H           -0.71020000000000       -7.34410000000000        3.54330000000000
H            9.87080000000000       -1.80860000000000        6.34210000000000
H            9.72550000000000       -0.03560000000000        6.54950000000000
H           10.34680000000000       -0.70480000000000        5.00960000000000
H            1.28350000000000       -1.04810000000000       -2.62950000000000
H            2.19340000000000       -1.46060000000000       -1.17730000000000
H            2.07090000000000        0.21270000000000       -1.68110000000000
H           -0.24990000000000       -1.53080000000000       -0.71560000000000
H           -0.44210000000000        0.12330000000000       -1.20360000000000
H           -0.13510000000000        3.26950000000000       -2.54810000000000
H           -1.60890000000000        3.42780000000000       -1.59440000000000
H           -1.18790000000000        1.87790000000000       -2.29430000000000
H            0.37380000000000        3.32860000000000       -0.10050000000000
H            0.85630000000000        1.79290000000000       -0.75300000000000
H            0.86400000000000        6.97050000000000        4.79290000000000
H           -0.88740000000000        7.21990000000000        5.14700000000000
H           -0.20640000000000        7.65630000000000        3.54470000000000
H          -11.75340000000000       -0.73230000000000       -1.18860000000000
H          -11.44270000000000        1.02040000000000       -1.41320000000000
H          -11.71410000000000        0.36790000000000        0.22750000000000
H           -1.07530000000000        7.60370000000000        1.23690000000000
H           -1.25530000000000        7.21730000000000       -0.49960000000000
H            0.31320000000000        7.82380000000000        0.12520000000000
H           -7.80490000000000        2.91340000000000        1.01550000000000
H           -7.69880000000000       -0.99450000000000       -0.60820000000000
H           -4.03990000000000        5.03120000000000        2.68250000000000
H           -3.84070000000000       -3.67600000000000       -0.40520000000000
H            2.21700000000000       -3.79990000000000        3.84030000000000
H            6.28970000000000       -1.69150000000000        4.50130000000000
H            6.90710000000000        2.40340000000000        3.61040000000000
H            3.36330000000000        5.16230000000000        2.04580000000000
C           -1.37350000000000        3.19500000000000        7.94360000000000
C           -0.29310000000000        2.25520000000000        8.08890000000000
C            1.01160000000000        2.32960000000000        7.52400000000000
C            1.34600000000000        3.57390000000000        6.95530000000000
C            0.31770000000000        4.54770000000000        6.83240000000000
C           -0.98780000000000        4.37790000000000        7.24080000000000
C            1.98440000000000        1.25090000000000        7.62490000000000
C            3.30460000000000        1.65220000000000        7.37520000000000
C            3.55620000000000        2.94590000000000        6.82550000000000
N            2.59250000000000        3.86300000000000        6.55660000000000
C            1.82490000000000       -0.15020000000000        7.95870000000000
C            2.95020000000000       -0.93000000000000        8.32020000000000
N            4.20830000000000       -0.47190000000000        8.20320000000000
C            4.38030000000000        0.76250000000000        7.66720000000000
C            5.68230000000000        1.20140000000000        7.40250000000000
C            5.92700000000000        2.44030000000000        6.84310000000000
C            4.87760000000000        3.28880000000000        6.54920000000000
C            0.62870000000000       -0.93970000000000        7.70390000000000
C            0.36520000000000       -2.27790000000000        8.19930000000000
C            1.50810000000000       -2.92090000000000        8.74480000000000
C            2.73090000000000       -2.27740000000000        8.73510000000000
O           -0.52770000000000        1.13020000000000        8.77650000000000
C           -1.99350000000000        5.37330000000000        6.79480000000000
C            1.42530000000000       -4.27780000000000        9.33170000000000
C            7.30340000000000        2.88460000000000        6.52890000000000
C           -1.03060000000000       -2.77390000000000        8.04590000000000
C           -2.09240000000000       -1.83230000000000        8.29420000000000
C           -3.45390000000000       -1.93040000000000        7.89630000000000
C           -3.84100000000000       -3.18930000000000        7.39390000000000
C           -2.82130000000000       -4.15200000000000        7.14180000000000
C           -1.47700000000000       -3.96510000000000        7.38850000000000
C           -4.40870000000000       -0.84270000000000        8.07020000000000
C           -5.74680000000000       -1.24470000000000        7.95920000000000
C           -6.05610000000000       -2.55690000000000        7.48420000000000
N           -5.12530000000000       -3.48930000000000        7.15340000000000
C           -4.21580000000000        0.57370000000000        8.32540000000000
C           -5.30100000000000        1.38670000000000        8.73590000000000
N           -6.56450000000000        0.93020000000000        8.75320000000000
C           -6.78570000000000       -0.32600000000000        8.29090000000000
C           -8.10790000000000       -0.74600000000000        8.11780000000000
C           -8.41310000000000       -1.99830000000000        7.62390000000000
C           -7.40060000000000       -2.88810000000000        7.31770000000000
C           -3.05490000000000        1.34810000000000        7.90180000000000
C           -2.74250000000000        2.71840000000000        8.28150000000000
C           -3.84180000000000        3.41120000000000        8.85140000000000
C           -5.05460000000000        2.76750000000000        9.00970000000000
O           -1.79160000000000       -0.66960000000000        8.88830000000000
C           -0.52600000000000       -4.94230000000000        6.80300000000000
C           -3.72770000000000        4.83920000000000        9.23030000000000
C           -9.82490000000000       -2.37830000000000        7.39800000000000
B           -1.22790000000000        0.21930000000000        7.85120000000000
O            7.45850000000000        3.79710000000000        5.73960000000000
O            8.32790000000000        2.23430000000000        7.15280000000000
C            9.53160000000000        2.77460000000000        6.71330000000000
O            2.59660000000000       -4.97860000000000        9.38460000000000
C            2.36270000000000       -6.21500000000000        9.97530000000000
O            0.37000000000000       -4.71140000000000        9.75010000000000
O           -0.91080000000000       -6.06340000000000        6.53140000000000
O            0.73720000000000       -4.49720000000000        6.53420000000000
C            1.52520000000000       -5.54240000000000        6.06600000000000
O          -10.71270000000000       -1.59980000000000        7.68640000000000
O          -10.03830000000000       -3.61220000000000        6.85380000000000
C          -11.40310000000000       -3.81340000000000        6.68390000000000
O           -4.68420000000000        5.57730000000000        9.09180000000000
O           -2.52100000000000        5.24530000000000        9.72380000000000
C           -2.51940000000000        6.62390000000000        9.89540000000000
O           -1.75570000000000        6.56270000000000        6.88270000000000
O           -3.13590000000000        4.85800000000000        6.25130000000000
C           -4.00880000000000        5.89250000000000        5.93850000000000
N           -0.30560000000000       -0.43640000000000        6.84340000000000
C           -0.11780000000000       -0.79230000000000        4.48540000000000
C           -0.84220000000000       -1.16640000000000        5.73620000000000
N           -2.26690000000000        0.83620000000000        6.90220000000000
C           -2.82760000000000        1.18050000000000        4.52250000000000
C           -1.97750000000000        1.58690000000000        5.70600000000000
H            2.56660000000000       -5.21570000000000        6.03610000000000
H            1.18790000000000       -5.82520000000000        5.06710000000000
H            1.42100000000000       -6.39110000000000        6.74600000000000
H            1.57840000000000       -6.73070000000000        9.41490000000000
H            2.02810000000000       -6.05390000000000       11.00320000000000
H            3.28490000000000       -6.79970000000000        9.96460000000000
H           10.36110000000000        2.28760000000000        7.22980000000000
H            9.53400000000000        3.84700000000000        6.92410000000000
H            9.60290000000000        2.61230000000000        5.63310000000000
H           -0.57640000000000       -1.25770000000000        3.61630000000000
H            0.92660000000000       -1.09410000000000        4.55500000000000
H           -0.11530000000000        0.28180000000000        4.31770000000000
H           -0.72400000000000       -2.24080000000000        5.90380000000000
H           -1.91950000000000       -0.99000000000000        5.67880000000000
H           -2.64970000000000        1.83450000000000        3.67030000000000
H           -3.88850000000000        1.23250000000000        4.76950000000000
H           -2.62020000000000        0.16600000000000        4.18680000000000
H           -2.17700000000000        2.64250000000000        5.91790000000000
H           -0.90690000000000        1.53190000000000        5.49930000000000
H           -1.61060000000000        6.91190000000000       10.42800000000000
H           -3.40580000000000        6.91300000000000       10.46600000000000
H           -2.53860000000000        7.09020000000000        8.90590000000000
H          -11.56750000000000       -4.79970000000000        6.24490000000000
H          -11.79390000000000       -3.03570000000000        6.02290000000000
H          -11.89280000000000       -3.74590000000000        7.65850000000000
H           -4.27950000000000        6.40390000000000        6.86700000000000
H           -4.90140000000000        5.47490000000000        5.46840000000000
H           -3.50620000000000        6.58380000000000        5.25560000000000
H           -8.91060000000000       -0.06970000000000        8.35050000000000
H           -7.65720000000000       -3.85900000000000        6.93460000000000
H           -5.88660000000000        3.35700000000000        9.35070000000000
H           -3.11600000000000       -5.07210000000000        6.67010000000000
H            3.58660000000000       -2.83190000000000        9.07510000000000
H            6.51030000000000        0.55430000000000        7.62680000000000
H            5.09140000000000        4.24400000000000        6.10450000000000
H            0.57380000000000        5.46580000000000        6.34140000000000
222
 energy: -419.703048205093 gnorm: 0.122672135131 xtb: 6.7.1 (edcfbbe)
C            0.38536425057308        3.51111853537145        2.10260629795888
C            1.00229535584345        2.25888833274791        2.34622821798383
C            2.36611249479509        1.92850640025408        2.33904972596133
C            3.25536780305861        3.03477768332317        2.36449371365479
C            2.69033608228365        4.32328997745915        2.10959704849471
C            1.33928102663557        4.55839271118069        1.93044569103192
C            2.81859345688053        0.55745509788171        2.52253139319133
C            4.12935413425644        0.49347850514731        3.03708169374171
C            4.95942877853604        1.66783062440425        3.07239281184930
N            4.54705923987665        2.88846863930818        2.66718738869127
C            2.12704969875500       -0.71764025589669        2.36960006699952
C            2.66028495886373       -1.85067677061176        3.06375298850364
N            3.85876483101496       -1.85035274174979        3.64766834827133
C            4.61326245351198       -0.74117965229452        3.56702133575454
C            5.91372617938897       -0.78684274325300        4.08228049801095
C            6.73266200090553        0.32844133830277        4.05782713857023
C            6.26730882955850        1.54171020100073        3.56509461119795
C            0.98792383193794       -1.04025900273311        1.53957470647488
C            0.12346056379711       -2.18092499482712        1.73017380447322
C            0.61991979711601       -3.17463449602327        2.61137930394407
C            1.86636158785270       -3.03206632173850        3.17775411713988
O            0.22672104314093        1.22922952197533        2.62597832727410
C            0.91120897922332        5.90516621190482        1.47975559123787
C           -0.33082843209112       -4.18407949491685        3.15041149111997
C            8.11630358332391        0.21815511440056        4.56914893370672
C           -1.25131047806462       -2.12433821571283        1.16182189589741
C           -1.95985993279796       -0.90039391468147        1.28088820910028
C           -3.17631910487578       -0.52772712339891        0.69194390908168
C           -3.91942470902811       -1.59216815092122        0.11858396422717
C           -3.28182933427663       -2.86633926815876        0.03314090411898
C           -2.00651279593926       -3.13129490792227        0.49575945895689
C           -3.72090823036721        0.81121977114471        0.85277131090178
C           -5.10975016686273        0.85893680334124        0.61905975372371
C           -5.79082671295745       -0.27169145686233        0.04930199784818
N           -5.19068319917712       -1.44035621089392       -0.25553273335421
C           -3.10126266272093        2.05398783830810        1.29428864433450
C           -3.95917181332433        3.10490061235792        1.74310938641675
N           -5.28569544016222        3.08040513563771        1.59765562924689
C           -5.84980529418603        2.02506983684194        0.98650779611138
C           -7.23138715489091        2.05030508356740        0.74373678161276
C           -7.87498422244247        0.97193553784536        0.15730372854284
C           -7.16836861696083       -0.17131290437207       -0.18453640091360
C           -1.71134417195815        2.45042293464865        1.22945063205272
C           -1.09717359412386        3.52150148495923        1.97933637741316
C           -2.02159361817946        4.44988199440258        2.52185675352284
C           -3.37500230331700        4.25893365215337        2.33882839438116
O           -1.46177911411091        0.03313322117220        2.06877433995030
C           -1.45035229228569       -4.48659075268310        0.27419383359760
C           -1.62542821482841        5.69226616108175        3.22675383099252
C           -9.33406315011942        1.06292762537922       -0.07455392212402
B           -0.36329583695934        0.71491846716577        1.39242301372154
O            8.96220955877455        1.04291885214061        4.31699181528894
O            8.35087105456692       -0.87553363106605        5.32837691385697
C            9.65864768373524       -0.86499287744657        5.84280316670903
O            0.02262166049586       -5.48161547618720        3.06052497100275
C           -1.02401267544712       -6.30497604469795        3.52721136375192
O           -1.36149600809660       -3.81780044418947        3.66510462937107
O           -2.15210522132282       -5.47009951666891        0.28942365496625
O           -0.11952577616075       -4.53505069306794        0.03864783145472
C            0.32108073620148       -5.86675745050391       -0.06965689209605
O           -9.95311009813229        2.06275439519976        0.20325550155551
O           -9.91151303058864       -0.03675290723639       -0.60616317942008
C          -11.29556345277750        0.15703089618926       -0.75988072347816
O           -2.33732495899741        6.67118424537106        3.18470566990240
O           -0.45075422172421        5.67855279322158        3.88797540164272
C           -0.14241866831064        6.96355649400137        4.38152926162294
O            1.49132068293435        6.90897402703844        1.81493478771122
O           -0.14736482682978        5.90837531818254        0.63417592484456
C           -0.57134725860462        7.21997703845960        0.34613591424527
N            0.60559837152672       -0.14136606236962        0.57760156002746
C            1.52571482269230       -0.72424723035404       -1.61034873749934
C            0.27177452656919       -0.59283886556953       -0.75944338992836
N           -0.87942388738354        1.74237852130205        0.39600713760016
C           -0.77962265034731        2.76487347907573       -1.81884081670159
C           -0.01845935577058        2.43121548295986       -0.54469496289751
H            1.37043063649143       -5.87661868212817       -0.35836826731086
H           -0.28650780679217       -6.38841751676937       -0.81385429026467
H            0.19463458835502       -6.35471022945356        0.89949810114787
H           -1.88969746777180       -6.17601925040645        2.87248292160341
H           -1.29577292844492       -5.99527077158367        4.53811886099824
H           -0.69663672946996       -7.34260890119043        3.53250842500658
H            9.85668989708313       -1.81376279229651        6.33902511686426
H            9.74640793164309       -0.04206855965547        6.55600173512658
H           10.36540957455879       -0.70818646628564        5.02345020309757
H            1.27535794550886       -1.04576446628509       -2.62047774709265
H            2.19560588524519       -1.46373861803943       -1.17463522222480
H            2.06977134032673        0.21660954986358       -1.67870742804014
H           -0.24478595279655       -1.55677451924302       -0.73089737165478
H           -0.43276551760330        0.11438080662901       -1.19948160742811
H           -0.13125399743029        3.26505118528208       -2.53694829788941
H           -1.61127514353180        3.43018256977604       -1.59200789914717
H           -1.18769233511764        1.87335272640126       -2.29296606863911
H            0.37559824131985        3.35513858528712       -0.11255117154516
H            0.84640975158653        1.79920947028388       -0.75150994194411
H            0.86748296440982        6.95793834545181        4.78648418796091
H           -0.86906413020988        7.24246894721153        5.14894590526948
H           -0.19683430846123        7.67948970707541        3.55880238126447
H          -11.73925858495421       -0.73961461786492       -1.18934523976404
H          -11.46466054827942        1.01680386083822       -1.41381861974377
H          -11.73517675450872        0.36781758742827        0.21893855610109
H           -1.08314190281203        7.62384111546724        1.22362399996294
H           -1.25491076608901        7.20003846558475       -0.50072251824648
H            0.30033930579883        7.83920511167035        0.11825232658435
H           -7.80436054663809        2.92078193110794        1.01872622900753
H           -7.69323883477407       -1.00690779367755       -0.61429811685195
H           -4.04560160904510        5.02919268057548        2.68591695188896
H           -3.84093341752124       -3.67498313624609       -0.41082915196896
H            2.22760017407011       -3.80215144686209        3.83867749652604
H            6.28378710230237       -1.70593233719981        4.50197101453774
H            6.90663880330335        2.40965209653594        3.60125616731958
H            3.36635883179638        5.16124109701330        2.04120322575669
C           -1.37608354628795        3.17173146136937        7.92568065182663
C           -0.30003351507548        2.24887427657599        8.09266181312346
C            0.99475880598153        2.32292395445918        7.54098273936886
C            1.34727606208232        3.57222703854219        6.96497112455994
C            0.31716308341799        4.54650624922633        6.83370915682188
C           -0.98674856560637        4.36037780684946        7.23954647659730
C            1.96570572218006        1.24354515487381        7.62838282911503
C            3.29107295945110        1.64695293219719        7.37730034424978
C            3.54989368423609        2.94545926698193        6.82745062903885
N            2.58780721359361        3.85408266860921        6.56706809647215
C            1.80114499679392       -0.15908711744828        7.94540063820350
C            2.94332150049933       -0.92877382665412        8.31232249967773
N            4.19093043843528       -0.46436040287771        8.20257651778546
C            4.37340288190736        0.75689770712413        7.66760681051838
C            5.68374304862882        1.19118015809095        7.40933459412628
C            5.92360071549024        2.43458645480027        6.84915601291362
C            4.87495940147457        3.29221062540245        6.54601830877163
C            0.63424477441744       -0.95514729388024        7.69522409172171
C            0.37037717475565       -2.27120970290715        8.19464077442239
C            1.51338145649257       -2.91568287951554        8.73480988160601
C            2.73620516927975       -2.27539645419674        8.73423902635075
O           -0.53995290704449        1.13493045534182        8.77462461825879
C           -1.98274870832124        5.37323072639696        6.81075646257083
C            1.40869070179279       -4.26733847906355        9.32859470114644
C            7.29262548778844        2.89248074031205        6.51984929897056
C           -1.02799041084220       -2.75149125444222        8.02857215383074
C           -2.08271282417309       -1.82588242298195        8.29692211867587
C           -3.43386023982240       -1.92442676345242        7.91088299157019
C           -3.84005709398576       -3.18826550444649        7.40340089113806
C           -2.82084155872606       -4.15076217218185        7.14389860026896
C           -1.47781355128010       -3.94969231851327        7.39287321157443
C           -4.38825272636087       -0.83621139321952        8.06985746089399
C           -5.73185984421299       -1.24062606986904        7.95926760021216
C           -6.04647188125195       -2.55820356008218        7.48512737874317
N           -5.11773912856451       -3.48091092944816        7.16240719817621
C           -4.19121913720106        0.58043110150805        8.30951204675823
C           -5.29230305952864        1.38580303980754        8.72501828621145
N           -6.54494980197581        0.92212860573900        8.74863814452933
C           -6.77832569844070       -0.32311102498776        8.29164469119577
C           -8.10790537312205       -0.74090831602969        8.12180686380540
C           -8.40516814988549       -2.00017976181144        7.62286338443447
C           -7.39342779862887       -2.89741003645338        7.31346081741115
C           -3.06620610443959        1.36636662541176        7.88606429465825
C           -2.74298813720927        2.71035170398832        8.27848381065215
C           -3.83425741688366        3.40117396699607        8.85885529344272
C           -5.05221909949302        2.76616670536962        9.01220871911678
O           -1.77984328747976       -0.67299987458039        8.88559240535851
C           -0.54076997018516       -4.94620582403508        6.82148683747649
C           -3.74028542835317        4.83387700961997        9.22690556040636