116
 energy: -22.928061455056 gnorm: 0.329736929581 xtb: 6.6.1 (8d0f1dd)
C           -3.31122850772930        0.79849766164622       -0.92477639677520
C           -2.44380812530352       -0.12270372891954       -0.27661132624697
C           -1.41337090092821        0.39579727573559        0.56335275196199
C           -0.89266158675590        1.65801491088749        0.27377586709581
C           -1.72665675402493        2.51431363229076       -0.49448366572522
C           -2.95444148494349        2.13954154133227       -1.01494489940871
C           -0.74098268209890       -0.43411532818871        1.49825021926784
C            0.56872586496315        0.03782116815119        1.86248088067890
C            1.03782416582094        1.29402317993033        1.50887470833621
N            0.31238977034758        2.07067427098208        0.65193736800696
C           -1.29695700510141       -1.39996043042223        2.41574187746061
C           -0.38243517664656       -2.18060797534842        3.13232615520648
N            0.91308504082021       -1.90366887689689        3.30325166013478
C            1.37712470144904       -0.74872102533751        2.81811050966982
C            2.52149331701875       -0.17739833758153        3.39379298866852
C            2.95849061756259        1.02681208890480        2.95105897606587
C            2.24288949469137        1.78498308775960        2.03503020483770
C           -2.74860936222260       -1.74497937691422        2.38401158947411
C           -3.09416315450955       -2.91614440870436        3.00571134491758
C           -2.16786021984049       -3.77788778654213        3.63251872101904
C           -0.85708937311598       -3.40495313382985        3.68547234358092
O           -3.71994433332149       -0.94984598373544        1.67726658385724
O           -2.55702603277562       -1.47241711578389       -0.57241635275616
C           -3.84297843593025        3.13357444054366       -1.60938954875544
C           -2.68769581069131       -5.03867041417370        4.30484659386931
H           -1.39666850744143        3.51251503834900       -0.76806311868865
H           -4.27662633836220        0.55105838579656       -1.33106614114542
H            2.66329581305412        2.73912661909249        1.72562431984580
H            3.05775395548473       -0.69369546277216        4.16536137542516
H           -0.24710966264510       -4.12034095424229        4.22946223699121
H           -4.11477991332403       -3.04712728052358        3.03244694615357
O           -4.21824883374556        4.03433712717988       -0.87713382485991
O           -4.44510595673734        2.90643496899600       -2.81853501752979
C           -5.44216520282800        3.83300025693726       -3.02488532025093
C            4.23586651889298        1.50004220933226        3.59165660008449
O            5.05927614697201        0.66079890002952        3.91714215179376
O            4.47001334453535        2.86385149488593        3.72605651435371
C            5.79457498613219        3.08584475587818        4.15829123132174
O           -3.82227255313510       -5.27347675879771        4.16636005494405
O           -1.85023202017753       -5.79767454267276        5.06656077253571
C           -2.55119635829503       -6.86252441382958        5.62930343183426
C           -5.07197156564436       -1.42399175670916        1.58830531863830
C           -1.33089900128490       -2.23622472573986       -0.99264499351172
H           -2.54510546830388       -7.76426885143998        4.99136022291012
H           -3.57194749219491       -6.44405511486021        5.74196173723541
H           -2.09133598235598       -7.02043774843818        6.64022264233588
H            5.72707967266424        3.46798026205549        5.10135971236643
H            6.34060091246885        3.78468702308830        3.50069950143490
H            6.17933064298187        2.03010500085905        4.19342358084693
H           -0.91862729772622       -2.57650129080332       -0.01361370304871
H           -0.49769766914251       -1.60651221708571       -1.34094446550576
H           -1.52632419730509       -2.94569707152159       -1.75361447637286
H           -5.11788846557077       -2.41810833635233        1.17520213188926
H           -5.67929807973498       -0.69619639428435        1.04301666067831
H           -5.57598832326623       -1.42383358739762        2.57928294206544
H           -6.13050215934830        3.76035386975488       -2.23272855695873
H           -5.86615610071888        3.45938329385866       -4.02668959924245
H           -5.13479557532099        4.87790991548477       -2.98314551356402
C           -1.38192942069774        3.73616555005018        2.91232598411686
C           -1.84821468128685        2.59982427735607        3.49755545445181
C           -1.05946531454833        2.05730632010638        4.60922730982276
C            0.19893954712228        2.69376791964407        4.86302140881997
C            0.50425395911860        3.94630308659851        4.28768785650746
C           -0.26031777722226        4.46998310053134        3.25072669343212
C           -1.20488993561782        0.74454293276906        5.14851520323437
C           -0.06287609782692        0.02744069315890        5.60930570802864
C            1.19208754369866        0.71421540266195        5.78882868583885
N            1.19428660993148        2.06344359410476        5.62744624321596
C           -2.41361422770794        0.07928500213936        5.25249410304426
C           -2.45851584031083       -1.32662100968547        5.60237876023992
N           -1.29466212405906       -1.98318595734370        5.89916817085159
C           -0.14475655767527       -1.32117560077092        5.98824682881008
C            0.97209270935794       -1.98958449505532        6.53157704134458
C            2.21982707914082       -1.36973967291181        6.68703967237737
C            2.30561929262884       -0.09745313075593        6.26436900324455
C           -3.73018485967715        0.71367583494582        5.25810242262992
C           -4.89964478833448       -0.06184623426677        5.21204641615509
C           -4.82617965800088       -1.39228978090841        5.46901303780036
C           -3.67144193418464       -1.98914944386360        5.67265433266067
O           -3.75568638935321        2.07705011038914        5.52067969627343
O           -2.94192434743730        1.91263938797883        3.01658762327703
C            0.21273512614467        5.50086066357994        2.34765104514621
C           -6.06660304520411       -2.17604633098929        5.80641622556876
H            1.41756699010566        4.38133362238595        4.66974005703471
H           -1.82880610647429        4.11982501512100        2.06992133318584
H            3.26888037378556        0.32655662585251        6.31721410015598
H            0.87146188387207       -3.08471526305024        6.57830423410869
H           -3.67716811065157       -3.05999292755990        5.83019634570050
H           -5.77379677507622        0.43595144608221        4.71017130754348
O            1.34459852619901        5.82615848916894        2.44941456579099
O           -0.74718748219123        6.07961784856304        1.59848183464284
C           -0.21473095568964        7.24015934882472        1.05753806029483
C            3.53228080814219       -2.00967610361154        7.02506769044485
O            3.64093082622715       -3.14437803815732        7.50071391725347
O            4.56565258381079       -1.22937033368332        6.69086985080897
C            5.72579357310716       -1.80692399125161        7.22246151275881
O           -7.04801223588612       -1.95726935745904        5.14194115322235
O           -6.01514389321278       -2.93743591896022        6.94765316328794
C           -7.21292732384718       -3.62681918543340        7.15115816329978
C           -4.95459780685163        2.65960679932188        5.86868674392943
C           -3.68284113682406        2.59129188358641        2.05479246020704
H           -7.43119628931628       -4.22607794725959        6.20622607140901
H           -8.06548455146707       -2.91765848248592        7.29781126410398
H           -7.07314693247270       -4.33087306029711        7.91223421050944
H            6.57332189837178       -1.29353136199234        6.78341268688262
H            5.74663761932316       -2.84282155125561        6.88089468184451
H            5.69426191474290       -1.72781984964892        8.29460302186842
H           -4.10481209541493        3.44288266176275        2.60483747673152
H           -4.49244774344916        1.87419893016926        1.82433103764650
H           -3.18901540870812        2.85154642679373        1.06781919454921
H           -5.55414326821421        2.76698137191684        4.93950725322359
H           -4.78658370641210        3.62090640967288        6.25983200635257
H           -5.43485580473958        1.97242995129449        6.65265772412460
H            0.89164886030839        7.38838561720231        1.13776105146914
H           -0.62894889903848        8.04195665205089        1.64837664327952
H           -0.59282546386754        7.45699159724320        0.03719083132488
116
 energy: -22.746832714465 gnorm: 0.461031829666 xtb: 6.6.1 (8d0f1dd)
C           -3.35396012060944        0.17864464669275       -1.42433185407275
C           -2.37606680719124       -0.60260851230042       -0.81122792265940
C           -1.37851121016784        0.05428547642886        0.00818042759571
C           -1.03414088061859        1.36071967149171       -0.31462973629781
C           -1.94603563909931        2.07247041693653       -1.18163797971849
C           -3.10617606456791        1.48364729144925       -1.72057008777389
C           -0.76125913491190       -0.55885895126257        1.21735856492081
C            0.42364739450046        0.07275434119571        1.51957178614849
C            0.80267645567831        1.34478654172515        1.01714733895396
N           -0.03791860940755        2.08840434073289        0.22939476657651
C           -1.16390057595717       -1.67777045511316        1.99024581139594
C           -0.26516338261230       -2.26543771750784        2.86218913744052
N            0.93952600035889       -1.65304246834562        3.11996919362354
C            1.20665344342184       -0.39658556455211        2.57130681036646
C            2.42680247512599        0.24473239528320        2.97595846687207
C            2.92686165049464        1.30357693787298        2.24381130946546
C            2.09225015835463        1.82817159219415        1.28358175904437
C           -2.49423084010662       -2.01768829343094        2.02089877127717
C           -2.88077433801073       -3.02318602830830        2.91330620056278
C           -1.86977759388069       -3.82112562454346        3.53714845170103
C           -0.57673372366176       -3.31733333995292        3.61513633048887
O           -3.53505999657557       -1.21275841048690        1.38893987115540
O           -2.59403729297146       -2.09255935420746       -0.75527938814561
C           -4.17855939599282        2.33318737512328       -2.44101025748306
C           -2.37668823405529       -4.75047117270594        4.61742970396900
H           -1.70764869639991        3.10698626052148       -1.32003049551098
H           -4.12006435303953       -0.41063371846184       -1.83508255481308
H            2.33704297138479        2.68570915531154        0.72340499234652
H            2.81122253401732        0.12868349044991        3.92939169844494
H            0.07239453319301       -3.90967141254559        4.30065245425966
H           -3.88750931394823       -3.12450764599115        3.22584000291094
O           -5.26244265382679        2.08833200119578       -2.02264580516916
O           -3.85183684149080        3.34192488277886       -3.41959137533151
C           -5.05565760731298        3.80671410498147       -4.08895657197316
C            4.29029006034330        1.85194863485858        2.48247881936521
O            5.17653845122361        1.57219295003783        1.67479372313544
O            4.45730806336126        2.71069241345587        3.57272927527895
C            5.70926757954142        3.30276739124210        3.83216708466817
O           -3.52686809195003       -5.24899770254139        4.61446080999849
O           -1.47624327576180       -5.10162086920838        5.56198203809467
C           -1.97342059130443       -5.91244702374749        6.61645599563578
C           -4.80611271532731       -1.63424683128053        1.05402220367809
C           -2.47994784932526       -2.82037299212178       -1.94040676275697
H           -1.87423968966545       -5.54447501150798        7.59727022004220
H           -1.25897778189985       -6.74383960930042        6.67932006561827
H           -2.99426569277468       -6.37823363835540        6.45762965100492
H            6.51330693423256        2.57870996922978        3.99318002903377
H            5.59539922323346        4.02283631180632        4.61281404177023
H            5.91693662676917        3.59181760077788        2.86786153673816
H           -3.18084579745176       -3.70934192843704       -1.83950112999719
H           -1.51668570900659       -3.24877542549790       -2.17159697946883
H           -2.63984395772243       -1.90299402685800       -2.57382215115334
H           -4.80006932322034       -1.80186175898297       -0.06602993576123
H           -5.60824335801399       -0.97376291966477        1.38269075521515
H           -4.98518755843488       -2.59706361087464        1.43325383474791
H           -4.69673013390849        3.81699999065243       -5.08107015330133
H           -5.49043015213379        4.49141382040652       -3.28565501840836
H           -6.00095338842717        3.13526207830701       -4.13172526920446
C           -1.46948275264205        4.14834873287630        4.01557155845896
C           -1.78709751233386        2.83281804927280        4.56793370026405
C           -0.89896390359942        2.08525237290011        5.35161745901088
C            0.43196628015553        2.65055279572749        5.36689706193737
C            0.74372559353857        3.90037584246336        4.93063109152797
C           -0.15945801012173        4.66528758356173        4.18788803947692
C           -1.16447152591740        0.73187463303312        5.84800251303521
C            0.01805352316375       -0.06892800216362        5.88372538107986
C            1.29057342244834        0.57546984262796        5.82858331011477
N            1.51221657779679        1.91097151195592        5.83793032566929
C           -2.49492802588768        0.15278466745687        6.22617366034929
C           -2.45314681476705       -1.24746259409769        6.19493929706810
N           -1.29972453038532       -2.00082849948275        6.17090767449395
C           -0.11589394658717       -1.45907466023221        6.14647516194267
C            1.08668115650522       -2.06515411613166        6.51276448305774
C            2.33845217374707       -1.46921374236564        6.55925415387104
C            2.49194964962626       -0.14906327470292        6.04017926396363
C           -3.78074627806954        0.82265947230328        6.25587606970442
C           -4.83379062001904        0.10215971291783        5.78613813489665
C           -4.80471992104840       -1.27843782733371        5.67521035413004
C           -3.65113164942711       -1.96797055746937        5.99915067984505
O           -3.86044029364981        2.18691695306338        6.50727513856971
O           -2.93972635155634        2.18873659909342        4.00937331339008
C            0.11486532344621        6.01407934088328        3.76456950232013
C           -6.08273393360161       -1.97397652567935        5.60472546626427
H            1.80050549253151        4.28840783971216        5.08366711476204
H           -1.93648524554353        4.70502070138823        3.22470544049629
H            3.36414863892116        0.36398392071853        5.72132568216995
H            0.90419454796256       -2.93777743900201        7.06200739032671
H           -3.48528476995266       -3.05806543887007        5.93323179674430
H           -5.88826490549501        0.46317815365485        5.49884492337644
O            1.29335455398863        6.42485077130114        3.63557280126716
O           -0.98589568047124        6.64665543758679        3.15949996519662
C           -0.56203390979403        7.96469580672965        2.56682409983723
C            3.50751456534809       -2.23183439457485        7.02679981121843
O            3.40704290041138       -3.40475947411068        7.22499746902460
O            4.74731774997506       -1.70835711737216        7.06544430129033
C            5.75947580031110       -2.74635987984140        7.28787316010456
O           -6.21304984519869       -2.75038840192632        4.67367908003423
O           -7.08226474692957       -1.62527696267047        6.36257030288226
C           -8.23806870378690       -2.13801201793247        5.80313746592366
C           -5.25144145797337        2.77909358884791        6.66167044500086
C           -2.72137074952378        1.48485922256687        2.89611539388704
H           -8.26274343523554       -3.26527022305989        5.85939166833286
H           -8.35709347893204       -1.81620468255566        4.80332121060923
H           -9.05592443357178       -1.79579509753054        6.41187029165081
H            6.56091277886753       -2.05641660557293        7.45296942546105
H            5.92246364663623       -3.17469755214979        6.30846845967655
H            5.71113979229900       -3.55860912347525        8.09149772701193
H           -2.68328860446988        0.34427118572621        3.22099719761251
H           -1.72269727267589        1.51215263643644        2.51905221391832
H           -3.49906494422569        1.67479424322926        2.16737043868950
H           -5.19870143421972        3.74987314298282        6.00180739507704
H           -5.11616403834037        3.18653658529202        7.73379528521972
H           -6.02944985800499        2.16802325150038        6.65046873664192
H            0.37571181255716        8.01597305361044        2.03821924589347
H           -0.62766744382662        8.80640375953529        3.30020937422199
H           -1.42747810424066        8.18010049243058        1.94144261293653
116
 energy: -22.793874497164 gnorm: 0.427179428594 xtb: 6.6.1 (8d0f1dd)
C           -3.10444409680997       -0.51535384132387       -1.65244060688114
C           -2.32924349548145       -1.06982166701587       -0.56023932397946
C           -1.42619623310874       -0.15525168159806        0.14263952537992
C           -1.34485005447023        1.16910094273034       -0.35517167390551
C           -2.18392406144818        1.61285649520803       -1.34735785369875
C           -2.92063410651467        0.79169991724292       -2.13239140305553
C           -0.97597523614584       -0.53920795119618        1.46588639674856
C            0.14112361976505        0.18673950174498        1.78306576877080
C            0.24550534824530        1.52757805546350        1.21197739452100
N           -0.49036621319193        2.05312096515087        0.25673956748961
C           -1.18106586775181       -1.72786651836515        2.19653849250186
C           -0.08229790240260       -2.24306128747803        2.99227881232912
N            1.07404954815447       -1.71662470663930        3.28371844579899
C            1.10574741905787       -0.50209698556047        2.67971222070538
C            2.25541148746406        0.35602770752031        2.98441679370292
C            2.38831868534238        1.58350092445252        2.44621137508719
C            1.45708420384439        2.10512949019167        1.60663782636268
C           -2.46774922387714       -2.42240798649342        2.39260961470972
C           -2.60512664843481       -3.69885099649698        2.94860963466080
C           -1.50460921076118       -4.24099489260062        3.57526282235809
C           -0.39071825062045       -3.44867669266159        3.63979531600118
O           -3.47922950926265       -1.50055160033614        2.13189154796504
O           -2.23601200712069       -2.43483199889636       -0.35957780568931
C           -3.62282830535479        1.25470159217894       -3.41672108131156
C           -1.52565696817860       -5.60090031250872        4.29611671634326
H           -2.05380626147573        2.61801571307694       -1.69844393766925
H           -3.53863846081740       -1.20659410732250       -2.38214732613426
H            1.77403438751761        3.07864218783991        1.23653263355534
H            3.00403147609725       -0.15450434420712        3.51496679013607
H            0.39213089341251       -3.80953899582915        4.26005315728111
H           -3.47919677799886       -4.26035954440893        2.75179651653925
O           -4.08281016437319        0.31700712882749       -4.10185410281630
O           -3.99016047867459        2.56811975393894       -3.73718121372612
C           -4.74881847077757        2.54355047765595       -4.82932429778783
C            3.65836504706695        2.41572740381051        2.62815021677648
O            3.69497159931814        3.34779579782820        3.37928360868990
O            4.71279890534863        2.08947769386643        1.75601084077929
C            5.51772897688551        3.20516825233401        1.38187251240803
O           -2.55977658091922       -5.95836502622762        4.76036207023227
O           -0.27840878659059       -6.20144635400608        4.49476297121980
C           -0.40139147437634       -7.34069103062390        5.15588293758889
C           -4.75208663977760       -1.69734449903813        2.53750533773703
C           -3.15576594218253       -3.20866857235532       -1.09518934748824
H           -0.76755031794721       -8.11283132604573        4.52887324864570
H           -1.07357973618662       -7.37401187008087        6.08462653736897
H            0.59592848318434       -7.57322098153623        5.41100025501306
H            5.07206398665850        4.11213818371442        1.63359959539840
H            5.73658600826054        3.07359294344733        0.30762873642351
H            6.49570185547426        3.11757755151627        1.99772889168441
H           -4.17163750025854       -2.61448302468159       -1.14857684185832
H           -3.30911920822660       -4.00314557898934       -0.29438973535486
H           -2.77958662385602       -3.47519038782177       -2.09857194348869
H           -5.14524070745244       -2.69272852040774        2.29414311261983
H           -5.29630873668829       -0.85977186811586        2.06006564448325
H           -4.78505870634971       -1.57389233475907        3.61346437979753
H           -5.57793079019376        1.71698952554394       -4.72651419821409
H           -4.20822810235602        2.49039565475849       -5.74227302433479
H           -5.03058483315994        3.63786978985499       -5.17766090217396
C           -1.34244634995298        4.52812242817445        4.49677142126261
C           -1.60744051026159        3.18406919255877        4.41606752144347
C           -0.62111673774723        2.30532957926320        5.04458513178105
C            0.65256393327228        2.65910779014414        5.49000187321999
C            0.86007576497736        4.07563538110506        5.48224482496982
C           -0.11840689314143        4.93497800246374        5.02586377991650
C           -1.07000460888055        1.04084213940509        5.45119192483146
C           -0.02151817020458        0.19557122698036        5.75971743104154
C            1.38290106919427        0.62808366673066        5.91139534410020
N            1.66208924798934        1.90727584340771        5.95133502450730
C           -2.40293335829670        0.54296403510660        5.83354343713406
C           -2.51809670550582       -0.90863129868124        5.93712083279340
N           -1.58298990729144       -1.79606040333930        6.20718009376428
C           -0.37554734892117       -1.18961094023773        6.03885359948609
C            0.73690623477790       -1.93583285141915        6.45971761826516
C            2.05327855151912       -1.59582911852664        6.57596098722858
C            2.37840506689512       -0.32794737317678        6.24685151463831
C           -3.54209691552525        1.43036745394995        5.97333615348149
C           -4.77174324828991        0.80764036436627        5.75565415551181
C           -4.89187462687335       -0.56689134564539        5.83071584255825
C           -3.79208784963935       -1.34995857398173        5.94504225980383
O           -3.26282153881524        2.78246784971302        6.22470157999894
O           -2.72170077204591        2.57122244314253        3.65147717554539
C            0.08010611362487        6.44359101400777        4.74592681403101
C           -6.26333438444860       -1.21133653563101        5.68400082601932
H            1.79025265398984        4.60241217765563        5.89587188918498
H           -2.01670150050836        5.24235250587449        4.05957545637731
H            3.36157745917430        0.03172244549129        6.45043984477002
H            0.51031794846961       -2.98839830301265        6.71146684270936
H           -3.91336040092904       -2.43182841045327        6.00288912007729
H           -5.59252325097424        1.41979986126654        5.24033297648771
O            1.23951354491147        6.83237589952892        4.73470105425468
O           -1.02081894771196        7.16979457812397        4.30114953279288
C           -0.50779625747897        8.36542785140148        3.92017855246878
C            2.94494711818404       -2.76444611749372        7.14369631142461
O            2.38767067789572       -3.88256248226781        7.10819104376153
O            4.26413477246089       -2.43094365501489        7.41188784833838
C            5.02660792824648       -3.51434376013666        7.56697415786808
O           -6.43781833125198       -2.40907474344690        5.64613970916025
O           -7.29089238443340       -0.33205966683600        5.39924330520006
C           -8.53142503547932       -1.06603323817033        5.23350480591650
C           -4.42893823795064        3.41830349877193        6.90732816189375
C           -3.34101743044636        3.42580815193853        2.82964129754109
H           -8.44624367580633       -2.08036646644839        5.88757974120784
H           -8.75154859414309       -1.30958784173687        4.28119812757229
H           -9.27102793175741       -0.48679077826059        5.70198415510090
H            6.01180552109060       -3.16468910148996        7.44123539223590
H            4.95797814662400       -4.29330357280339        6.75485135056145
H            5.01765271148706       -3.96296490100617        8.64915137505168
H           -2.76283909847088        4.21657980323713        2.46745645937668
H           -4.27951712762156        3.77363955404740        3.26695629177301
H           -3.32277119929407        2.90908783806973        1.81982988514612
H           -5.11801407362031        3.96767258289626        6.24220562814957
H           -4.01443586941023        4.17763720002799        7.65146973982220
H           -5.14735488044397        2.69628654858324        7.38056083651949
H            0.36745150898757        8.15172251492434        3.18894255839354
H            0.01085519350393        8.94072876640867        4.74806561202464
H           -1.26474191210222        9.02799366600132        3.45647848896355
116
 energy: -22.792279386739 gnorm: 0.423885206147 xtb: 6.6.1 (8d0f1dd)
C           -3.67233399144678       -0.80661686520085       -1.39347553312979
C           -2.78024052415175       -1.30291805347391       -0.48264243116823
C           -1.87735018731796       -0.39488527444928        0.18494934830178
C           -1.76997180863266        0.99749973211667       -0.23974187631086
C           -2.79711384303003        1.42762760484013       -1.10378542056849
C           -3.64958126237903        0.56448583563587       -1.69262763215420
C           -1.06721756069704       -0.80821302918434        1.24728958219877
C            0.07402012722894        0.07566167301644        1.39065021697779
C            0.24063270525690        1.31422011394366        0.81165391198136
N           -0.64353277421681        1.75959603448778       -0.05871783752409
C           -1.20969953772773       -2.02205294433121        2.02371723566733
C           -0.05282182609894       -2.38508115074332        2.81189857600437
N            0.97792614879443       -1.50509193915456        3.07277072073906
C            1.01624918833709       -0.36677427563989        2.42989674496861
C            2.07104017282005        0.50616960467702        2.65340828061258
C            2.18286139238803        1.82615525800551        2.14375074461985
C            1.26266434206512        2.18856729904224        1.19304258452908
C           -2.42308164592016       -2.73198217990019        2.27987421745410
C           -2.28902456721179       -4.01832628521711        2.87414152570261
C           -1.04873432473343       -4.49346384600657        3.35653087313282
C            0.01505075706445       -3.62741163152775        3.34073186199788
O           -3.72152349733293       -2.09578020415585        2.18333234905656
O           -2.73344450680815       -2.74944172731762       -0.34116650554288
C           -4.30906297229245        0.95033500147421       -2.95174990610928
C           -0.79849096275545       -5.81988848546041        3.92325567180756
H           -2.98334186005625        2.48885113611198       -1.24525114839877
H           -4.48070089092805       -1.41928099467071       -1.80063863786042
H            1.33871868121613        3.13420291318398        0.56508502603353
H            2.64309928269971        0.16056570954925        3.47787584678784
H            0.87613082601920       -3.90459071822644        3.94790988915088
H           -3.17716937039978       -4.56130283562369        3.00377540574533
O           -5.24577048548281        0.27340419516074       -3.17893885962049