      -----------------------------------------------------------      
     |                   =====================                   |     
     |                           x T B                           |     
     |                   =====================                   |     
     |                         S. Grimme                         |     
     |          Mulliken Center for Theoretical Chemistry        |     
     |                    University of Bonn                     |     
      -----------------------------------------------------------      

   * xtb version 6.6.1 (8d0f1dd) compiled by 'runner@Mac-1690902418499.local' on 2023-08-01

   xtb is free software: you can redistribute it and/or modify it under
   the terms of the GNU Lesser General Public License as published by
   the Free Software Foundation, either version 3 of the License, or
   (at your option) any later version.
   
   xtb is distributed in the hope that it will be useful,
   but WITHOUT ANY WARRANTY; without even the implied warranty of
   MERCHANTABILITY or FITNESS FOR A PARTICULAR PURPOSE.  See the
   GNU Lesser General Public License for more details.
   
   Cite this work as:
   * C. Bannwarth, E. Caldeweyher, S. Ehlert, A. Hansen, P. Pracht,
     J. Seibert, S. Spicher, S. Grimme, WIREs Comput. Mol. Sci., 2020, 11,
     e01493. DOI: 10.1002/wcms.1493
   
   for GFN2-xTB:
   * C. Bannwarth, S. Ehlert and S. Grimme., J. Chem. Theory Comput., 2019,
     15, 1652-1671. DOI: 10.1021/acs.jctc.8b01176
   for GFN1-xTB:
   * S. Grimme, C. Bannwarth, P. Shushkov, J. Chem. Theory Comput., 2017,
     13, 1989-2009. DOI: 10.1021/acs.jctc.7b00118
   for GFN0-xTB:
   * P. Pracht, E. Caldeweyher, S. Ehlert, S. Grimme, ChemRxiv, 2019, preprint.
     DOI: 10.26434/chemrxiv.8326202.v1
   for GFN-FF:
   * S. Spicher and S. Grimme, Angew. Chem. Int. Ed., 2020, 59, 15665-15673.
     DOI: 10.1002/anie.202004239
   
   for ALPB and GBSA implicit solvation:
   * S. Ehlert, M. Stahn, S. Spicher, S. Grimme, J. Chem. Theory Comput.,
     2021, 17, 4250-4261. DOI: 10.1021/acs.jctc.1c00471
   
   for DFT-D4:
   * E. Caldeweyher, C. Bannwarth and S. Grimme, J. Chem. Phys., 2017,
     147, 034112. DOI: 10.1063/1.4993215
   * E. Caldeweyher, S. Ehlert, A. Hansen, H. Neugebauer, S. Spicher,
     C. Bannwarth and S. Grimme, J. Chem. Phys., 2019, 150, 154122.
     DOI: 10.1063/1.5090222
   * E. Caldeweyher, J.-M. Mewes, S. Ehlert and S. Grimme, Phys. Chem. Chem. Phys.
     2020, 22, 8499-8512. DOI: 10.1039/D0CP00502A
   
   for sTDA-xTB:
   * S. Grimme and C. Bannwarth, J. Chem. Phys., 2016, 145, 054103.
     DOI: 10.1063/1.4959605
   
   in the mass-spec context:
   * V. Asgeirsson, C. Bauer and S. Grimme, Chem. Sci., 2017, 8, 4879.
     DOI: 10.1039/c7sc00601b
   * J. Koopman and S. Grimme, ACS Omega 2019, 4, 12, 15120-15133.
     DOI: 10.1021/acsomega.9b02011
   
   for metadynamics refer to:
   * S. Grimme, J. Chem. Theory Comput., 2019, 155, 2847-2862
     DOI: 10.1021/acs.jctc.9b00143
   
   for SPH calculations refer to:
   * S. Spicher and S. Grimme, J. Chem. Theory Comput., 2021, 17, 1701-1714
     DOI: 10.1021/acs.jctc.0c01306
   
   with help from (in alphabetical order)
   P. Atkinson, C. Bannwarth, F. Bohle, G. Brandenburg, E. Caldeweyher
   M. Checinski, S. Dohm, S. Ehlert, S. Ehrlich, I. Gerasimov, C. Hölzer
   A. Katbashev, J. Koopman, C. Lavigne, S. Lehtola, F. März, M. Müller,
   F. Musil, H. Neugebauer, J. Pisarek, C. Plett, P. Pracht, F. Pultar,
   J. Seibert, P. Shushkov, S. Spicher, M. Stahn, M. Steiner, T. Strunk,
   J. Stückrath, T. Rose, and J. Unsleber
   
 * started run on 2024/11/01 at 14:44:55.430     

           -------------------------------------------------
          |                Calculation Setup                |
           -------------------------------------------------

          program call               : xtb stacked_dimer_Blatter1.mol --opt --gfn2 --chrg -1 --uhf 0 --tight
          coordinate file            : stacked_dimer_Blatter1.mol
          omp threads                :                     8

   ID    Z sym.   atoms
    1    6 C      1-18, 28, 29, 31-34, 36, 40-45, 54-71, 81, 82, 84-87, 89,
                  93-98
    2    1 H      19-26, 38, 39, 46-53, 72-79, 91, 92, 99-106
    3    8 O      27, 80
    4    7 N      30, 35, 37, 83, 88, 90
########################################################################
[WARNING] Please study the warnings concerning your input carefully
-2- prog_main: Charge in sdf/mol input was overwritten
-1- prog_main_parseArguments: Unknown option '--tight' provided
########################################################################

           -------------------------------------------------
          |                 G F N 2 - x T B                 |
           -------------------------------------------------

        Reference                      10.1021/acs.jctc.8b01176
      * Hamiltonian:
        H0-scaling (s, p, d)           1.850000    2.230000    2.230000
        zeta-weighting                 0.500000
      * Dispersion:
        s8                             2.700000
        a1                             0.520000
        a2                             5.000000
        s9                             5.000000
      * Repulsion:
        kExp                           1.500000    1.000000
        rExp                           1.000000
      * Coulomb:
        alpha                          2.000000
        third order                    shell-resolved
        anisotropic                    true
        a3                             3.000000
        a5                             4.000000
        cn-shift                       1.200000
        cn-exp                         4.000000
        max-rad                        5.000000

q/qsh data taken from xtbrestart
CAMM data taken from xtbrestart

          ...................................................
          :                      SETUP                      :
          :.................................................:
          :  # basis functions                 316          :
          :  # atomic orbitals                 316          :
          :  # shells                          176          :
          :  # electrons                       327          :
          :  max. iterations                   250          :
          :  Hamiltonian                  GFN2-xTB          :
          :  restarted?                       true          :
          :  GBSA solvation                  false          :
          :  PC potential                    false          :
          :  electronic temp.          300.0000000     K    :
          :  accuracy                    1.0000000          :
          :  -> integral cutoff          0.2500000E+02      :
          :  -> integral neglect         0.1000000E-07      :
          :  -> SCF convergence          0.1000000E-05 Eh   :
          :  -> wf. convergence          0.1000000E-03 e    :
          :  Broyden damping             0.4000000          :
          ...................................................

 iter      E             dE          RMSdq      gap      omega  full diag
   1   -179.3071801 -0.179307E+03  0.158E+00    0.34       0.0  T
   2   -177.7859734  0.152121E+01  0.236E+00    0.54       1.0  T
   3   -179.6144368 -0.182846E+01  0.928E-01    0.23       1.0  T
   4   -179.3242257  0.290211E+00  0.116E+00    0.24       1.0  T
   5   -179.5926408 -0.268415E+00  0.647E-01    0.37       1.0  T
   6   -179.6520609 -0.594201E-01  0.383E-01    0.31       1.0  T
   7   -179.6731030 -0.210421E-01  0.214E-01    0.22       1.0  T
   8   -179.6756284 -0.252544E-02  0.177E-01    0.19       1.0  T
   9   -179.6815830 -0.595453E-02  0.774E-02    0.20       1.0  T
  10   -179.6825183 -0.935357E-03  0.555E-02    0.21       1.0  T
  11   -179.6826102 -0.918743E-04  0.338E-02    0.20       1.0  T
  12   -179.6829260 -0.315766E-03  0.784E-03    0.20       1.2  T
  13   -179.6829306 -0.459601E-05  0.446E-03    0.20       2.2  T
  14   -179.6829345 -0.396256E-05  0.200E-03    0.20       4.8  T
  15   -179.6829348 -0.293707E-06  0.139E-03    0.20       7.0  T
  16   -179.6829352 -0.353920E-06  0.354E-04    0.20      27.4  T
  17   -179.6829352 -0.556028E-08  0.221E-04    0.20      44.0  T

   *** convergence criteria satisfied after 17 iterations ***

         #    Occupation            Energy/Eh            Energy/eV
      -------------------------------------------------------------
         1        2.0000           -0.6366370             -17.3238
       ...           ...                  ...                  ...
       158        2.0000           -0.2549783              -6.9383
       159        2.0000           -0.2495155              -6.7897
       160        2.0000           -0.2422153              -6.5910
       161        2.0000           -0.2348796              -6.3914
       162        1.9999           -0.2026414              -5.5142
       163        1.8184           -0.1955244              -5.3205
       164        1.1611           -0.1926512              -5.2423 (HOMO)
       165        0.0206           -0.1852560              -5.0411 (LUMO)
       166                         -0.1676439              -4.5618
       167                         -0.1611068              -4.3839
       168                         -0.1567768              -4.2661
       169                         -0.1535057              -4.1771
       ...                                ...                  ...
       316                          0.8393563              22.8400
      -------------------------------------------------------------
                  HL-Gap            0.0073953 Eh            0.2012 eV
             Fermi-level           -0.1915089 Eh           -5.2112 eV

 SCC (total)                   0 d,  0 h,  0 min,  1.150 sec
 SCC setup                      ...        0 min,  0.000 sec (  0.028%)
 Dispersion                     ...        0 min,  0.001 sec (  0.109%)
 classical contributions        ...        0 min,  0.000 sec (  0.023%)
 integral evaluation            ...        0 min,  0.007 sec (  0.593%)
 iterations                     ...        0 min,  1.098 sec ( 95.475%)
 molecular gradient             ...        0 min,  0.036 sec (  3.152%)
 printout                       ...        0 min,  0.007 sec (  0.619%)

         :::::::::::::::::::::::::::::::::::::::::::::::::::::
         ::                     SUMMARY                     ::
         :::::::::::::::::::::::::::::::::::::::::::::::::::::
         :: total energy            -176.518280115059 Eh    ::
         :: gradient norm              0.409140883046 Eh/a0 ::
         :: HOMO-LUMO gap              0.201235044666 eV    ::
         ::.................................................::
         :: SCC energy              -179.682935166490 Eh    ::
         :: -> isotropic ES            0.144607976388 Eh    ::
         :: -> anisotropic ES          0.035194670285 Eh    ::
         :: -> anisotropic XC          0.096869670455 Eh    ::
         :: -> dispersion             -0.229717216511 Eh    ::
         :: repulsion energy           3.145676682356 Eh    ::
         :: add. restraining           0.000000000000 Eh    ::
         :: total charge              -1.000001238050 e     ::
         :::::::::::::::::::::::::::::::::::::::::::::::::::::

      ----------------------------------------------------------- 
     |                   =====================                   |
     |                        A N C O P T                        |
     |                   =====================                   |
     |               Approximate Normal Coordinate               |
     |                Rational Function Optimizer                |
      ----------------------------------------------------------- 

          ...................................................
          :                      SETUP                      :
          :.................................................:
          :   optimization level            normal          :
          :   max. optcycles                   318          :
          :   ANC micro-cycles                  20          :
          :   degrees of freedom               312          :
          :.................................................:
          :   RF solver                   davidson          :
          :   write xtbopt.log                true          :
          :   linear?                        false          :
          :   energy convergence         0.5000000E-05 Eh   :
          :   grad. convergence          0.1000000E-02 Eh/α :
          :   maxmium RF displ.          1.0000000          :
          :   Hlow (freq-cutoff)         0.1000000E-01      :
          :   Hmax (freq-cutoff)         5.0000000          :
          :   S6 in model hess.         20.0000000          :
          ...................................................

generating ANC from model Hessian ...
Using Lindh-Hessian (1995)
 Shifting diagonal of input Hessian by    9.7850755450878350E-003
 Lowest  eigenvalues of input Hessian
    0.000000    0.000000    0.000000    0.000000    0.000000    0.000000
    0.010000    0.010113    0.010262    0.010479    0.010539    0.010755
    0.010886    0.011272    0.011349    0.011667    0.011884    0.012008
 Highest eigenvalues
    2.189058    2.215949    2.287133    2.293192    2.315091    2.318508


........................................................................
.............................. CYCLE    1 ..............................
........................................................................

 iter      E             dE          RMSdq      gap      omega  full diag
   1   -179.6829352 -0.179683E+03  0.930E-05    0.20       0.0  T
   2   -179.6829352  0.191535E-07  0.272E-04    0.20      35.7  T
   3   -179.6829352 -0.171495E-07  0.113E-04    0.20      86.3  T
     SCC iter.                  ...        0 min,  0.201 sec
     gradient                   ...        0 min,  0.041 sec
 * total energy  :  -176.5182801 Eh     change       -0.7900638E-08 Eh
   gradient norm :     0.4091369 Eh/α   predicted     0.0000000E+00 (-100.00%)
   displ. norm   :     0.6998766 α      lambda       -0.2537269E+00
   maximum displ.:     0.2501710 α      in ANC's #140, #110, #69, ...

........................................................................
.............................. CYCLE    2 ..............................
........................................................................

 iter      E             dE          RMSdq      gap      omega  full diag
   1   -179.7090572 -0.179709E+03  0.648E-01    0.10       0.0  T
   2   -178.7546584  0.954399E+00  0.163E+00    0.18       1.0  T
   3   -179.7759688 -0.102131E+01  0.630E-01    0.33       1.0  T
   4   -179.7856789 -0.971015E-02  0.498E-01    0.17       1.0  T
   5   -179.8503060 -0.646271E-01  0.262E-01    0.23       1.0  T
   6   -179.8010214  0.492846E-01  0.448E-01    0.08       1.0  T
   7   -179.8545030 -0.534815E-01  0.160E-01    0.22       1.0  T
   8   -179.8582325 -0.372951E-02  0.937E-02    0.22       1.0  T
   9   -179.8595392 -0.130667E-02  0.641E-02    0.23       1.0  T
  10   -179.8597909 -0.251711E-03  0.443E-02    0.22       1.0  T
  11   -179.8600480 -0.257089E-03  0.246E-02    0.22       1.0  T
  12   -179.8601757 -0.127789E-03  0.796E-03    0.21       1.2  T
  13   -179.8601917 -0.159762E-04  0.350E-03    0.22       2.8  T
  14   -179.8601944 -0.262634E-05  0.120E-03    0.22       8.1  T
  15   -179.8601945 -0.130703E-06  0.661E-04    0.22      14.7  T
  16   -179.8601945 -0.586409E-07  0.243E-04    0.22      40.0  T
     SCC iter.                  ...        0 min,  1.112 sec
     gradient                   ...        0 min,  0.038 sec
 * total energy  :  -176.7285390 Eh     change       -0.2102589E+00 Eh
   gradient norm :     0.2844070 Eh/α   predicted    -0.1890219E+00 ( -10.10%)
   displ. norm   :     0.7561589 α      lambda       -0.2036560E+00
   maximum displ.:     0.2049263 α      in ANC's #140, #179, #189, ...

........................................................................
.............................. CYCLE    3 ..............................
........................................................................

 iter      E             dE          RMSdq      gap      omega  full diag
   1   -179.9318401 -0.179932E+03  0.598E-01    0.19       0.0  T
   2   -179.5438673  0.387973E+00  0.120E+00    0.06       1.0  T
   3   -180.0010015 -0.457134E+00  0.294E-01    0.32       1.0  T
   4   -179.9896870  0.113146E-01  0.350E-01    0.15       1.0  T
   5   -180.0035330 -0.138460E-01  0.209E-01    0.22       1.0  T
   6   -179.9989240  0.460900E-02  0.230E-01    0.10       1.0  T
   7   -180.0118048 -0.128808E-01  0.451E-02    0.18       1.0  T
   8   -180.0120747 -0.269815E-03  0.285E-02    0.19       1.0  T
   9   -180.0121550 -0.803321E-04  0.141E-02    0.19       1.0  T
  10   -180.0121893 -0.343188E-04  0.756E-03    0.19       1.3  T
  11   -180.0122026 -0.132734E-04  0.306E-03    0.19       3.2  T
  12   -180.0122048 -0.224657E-05  0.100E-03    0.19       9.7  T
  13   -180.0122049 -0.469194E-07  0.478E-04    0.19      20.3  T
  14   -180.0122049 -0.284189E-08  0.414E-04    0.19      23.5  T
     SCC iter.                  ...        0 min,  0.657 sec
     gradient                   ...        0 min,  0.038 sec
 * total energy  :  -176.8875267 Eh     change       -0.1589877E+00 Eh
   gradient norm :     0.1873739 Eh/α   predicted    -0.1600509E+00 (   0.67%)
   displ. norm   :     0.6945560 α      lambda       -0.1150895E+00
   maximum displ.:     0.1669801 α      in ANC's #140, #204, #69, ...

........................................................................
.............................. CYCLE    4 ..............................
........................................................................

 iter      E             dE          RMSdq      gap      omega  full diag
   1   -180.0826027 -0.180083E+03  0.336E-01    0.24       0.0  T
   2   -180.0417599  0.408428E-01  0.475E-01    0.29       1.0  T
   3   -180.0918688 -0.501089E-01  0.173E-01    0.21       1.0  T
   4   -180.0934385 -0.156964E-02  0.153E-01    0.29       1.0  T
   5   -180.0963076 -0.286909E-02  0.554E-02    0.24       1.0  T
   6   -180.0967253 -0.417729E-03  0.289E-02    0.24       1.0  T
   7   -180.0968437 -0.118423E-03  0.206E-02    0.26       1.0  T
   8   -180.0969047 -0.610008E-04  0.110E-02    0.26       1.0  T
   9   -180.0969335 -0.288169E-04  0.371E-03    0.25       2.6  T
  10   -180.0969361 -0.261680E-05  0.121E-03    0.25       8.1  T
  11   -180.0969364 -0.222435E-06  0.597E-04    0.25      16.3  T
  12   -180.0969364 -0.377950E-07  0.280E-04    0.25      34.7  T
     SCC iter.                  ...        0 min,  0.730 sec
     gradient                   ...        0 min,  0.037 sec
 * total energy  :  -176.9752589 Eh     change       -0.8773220E-01 Eh
   gradient norm :     0.1300877 Eh/α   predicted    -0.8530506E-01 (  -2.77%)
   displ. norm   :     0.6543851 α      lambda       -0.6411925E-01
   maximum displ.:     0.1540785 α      in ANC's #69, #204, #140, ...

........................................................................
.............................. CYCLE    5 ..............................
........................................................................

 iter      E             dE          RMSdq      gap      omega  full diag
   1   -180.1471586 -0.180147E+03  0.248E-01    0.37       0.0  T
   2   -180.1126128  0.345459E-01  0.408E-01    0.44       1.0  T
   3   -180.1508449 -0.382322E-01  0.132E-01    0.36       1.0  T
   4   -180.1529078 -0.206290E-02  0.862E-02    0.41       1.0  T
   5   -180.1532264 -0.318593E-03  0.498E-02    0.37       1.0  T
   6   -180.1538199 -0.593439E-03  0.138E-02    0.39       1.0  T
   7   -180.1538472 -0.273228E-04  0.669E-03    0.39       1.5  T
   8   -180.1538527 -0.548977E-05  0.360E-03    0.39       2.7  T
   9   -180.1538556 -0.288234E-05  0.102E-03    0.39       9.6  T
  10   -180.1538556 -0.345759E-07  0.579E-04    0.39      16.8  T
  11   -180.1538557 -0.559992E-07  0.253E-04    0.39      38.4  T
     SCC iter.                  ...        0 min,  0.656 sec
     gradient                   ...        0 min,  0.036 sec
 * total energy  :  -177.0274092 Eh     change       -0.5215034E-01 Eh
   gradient norm :     0.0943350 Eh/α   predicted    -0.4578819E-01 ( -12.20%)
   displ. norm   :     0.6741793 α      lambda       -0.4501471E-01
   maximum displ.:     0.1484484 α      in ANC's #69, #204, #109, ...

........................................................................
.............................. CYCLE    6 ..............................
........................................................................

 iter      E             dE          RMSdq      gap      omega  full diag
   1   -180.1931016 -0.180193E+03  0.238E-01    0.55       0.0  T
   2   -180.1545430  0.385586E-01  0.429E-01    0.55       1.0  T
   3   -180.1960362 -0.414932E-01  0.130E-01    0.54       1.0  T
   4   -180.1968928 -0.856601E-03  0.101E-01    0.59       1.0  T
   5   -180.1984186 -0.152586E-02  0.472E-02    0.54       1.0  T
   6   -180.1988463 -0.427716E-03  0.197E-02    0.56       1.0  T
   7   -180.1989445 -0.981612E-04  0.506E-03    0.56       1.9  T
   8   -180.1989441  0.425836E-06  0.384E-03    0.56       2.5  T
   9   -180.1989476 -0.350380E-05  0.967E-04    0.56      10.0  T
  10   -180.1989477 -0.148811E-06  0.422E-04    0.56      23.0  T
  11   -180.1989478 -0.300847E-07  0.161E-04    0.56      60.4  T
     SCC iter.                  ...        0 min,  0.653 sec
     gradient                   ...        0 min,  0.036 sec
 * total energy  :  -177.0629141 Eh     change       -0.3550491E-01 Eh
   gradient norm :     0.0641384 Eh/α   predicted    -0.3273735E-01 (  -7.79%)
   displ. norm   :     0.6591657 α      lambda       -0.2806100E-01
   maximum displ.:     0.1491279 α      in ANC's #13, #15, #69, ...

........................................................................
.............................. CYCLE    7 ..............................
........................................................................

 iter      E             dE          RMSdq      gap      omega  full diag
   1   -180.2265746 -0.180227E+03  0.181E-01    0.70       0.0  T
   2   -180.1980871  0.284875E-01  0.355E-01    0.68       1.0  T
   3   -180.2243176 -0.262305E-01  0.148E-01    0.67       1.0  T
   4   -180.2272432 -0.292567E-02  0.863E-02    0.72       1.0  T
   5   -180.2287361 -0.149285E-02  0.265E-02    0.69       1.0  T
   6   -180.2288445 -0.108372E-03  0.127E-02    0.70       1.0  T
   7   -180.2288858 -0.413714E-04  0.289E-03    0.70       3.4  T
   8   -180.2288851  0.697904E-06  0.250E-03    0.70       3.9  T
   9   -180.2288865 -0.135492E-05  0.910E-04    0.70      10.7  T
  10   -180.2288867 -0.192706E-06  0.303E-04    0.70      32.0  T
  11   -180.2288867 -0.162491E-07  0.123E-04    0.70      78.7  T
     SCC iter.                  ...        0 min,  0.534 sec
     gradient                   ...        0 min,  0.035 sec
 * total energy  :  -177.0852541 Eh     change       -0.2233998E-01 Eh
   gradient norm :     0.0587019 Eh/α   predicted    -0.2012678E-01 (  -9.91%)
   displ. norm   :     0.6478545 α      lambda       -0.1886429E-01
   maximum displ.:     0.1807347 α      in ANC's #15, #13, #19, ...

........................................................................
.............................. CYCLE    8 ..............................
........................................................................

 iter      E             dE          RMSdq      gap      omega  full diag
   1   -180.2429197 -0.180243E+03  0.130E-01    0.78       0.0  T
   2   -180.2348799  0.803974E-02  0.191E-01    0.78       1.0  T
   3   -180.2340111  0.868847E-03  0.196E-01    0.73       1.0  T
   4   -180.2430589 -0.904783E-02  0.388E-02    0.78       1.0  T
   5   -180.2432305 -0.171620E-03  0.165E-02    0.77       1.0  T
   6   -180.2432907 -0.602278E-04  0.415E-03    0.78       2.3  T
   7   -180.2432934 -0.260983E-05  0.209E-03    0.78       4.7  T
   8   -180.2432940 -0.619384E-06  0.697E-04    0.78      13.9  T
   9   -180.2432940 -0.407049E-07  0.308E-04    0.78      31.6  T
     SCC iter.                  ...        0 min,  0.447 sec
     gradient                   ...        0 min,  0.035 sec
 * total energy  :  -177.1002275 Eh     change       -0.1497339E-01 Eh
   gradient norm :     0.0519260 Eh/α   predicted    -0.1339103E-01 ( -10.57%)
   displ. norm   :     0.6250441 α      lambda       -0.1245746E-01
   maximum displ.:     0.2179470 α      in ANC's #15, #13, #19, ...

........................................................................
.............................. CYCLE    9 ..............................
........................................................................

 iter      E             dE          RMSdq      gap      omega  full diag
   1   -180.2486714 -0.180249E+03  0.102E-01    0.81       0.0  T
   2   -180.2475871  0.108427E-02  0.892E-02    0.80       1.0  T
   3   -180.2312553  0.163318E-01  0.256E-01    0.81       1.0  T
   4   -180.2486741 -0.174188E-01  0.253E-02    0.81       1.0  T
   5   -180.2487388 -0.647790E-04  0.795E-03    0.81       1.2  T
   6   -180.2487513 -0.124475E-04  0.219E-03    0.81       4.4  T
   7   -180.2487518 -0.492532E-06  0.119E-03    0.81       8.1  T
   8   -180.2487520 -0.187341E-06  0.474E-04    0.81      20.5  T
   9   -180.2487520 -0.215703E-07  0.223E-04    0.81      43.5  T
     SCC iter.                  ...        0 min,  0.503 sec
     gradient                   ...        0 min,  0.036 sec
 * total energy  :  -177.1099274 Eh     change       -0.9699884E-02 Eh
   gradient norm :     0.0346107 Eh/α   predicted    -0.8662259E-02 ( -10.70%)
   displ. norm   :     0.6045513 α      lambda       -0.7612553E-02
   maximum displ.:     0.2497327 α      in ANC's #15, #13, #19, ...

........................................................................
.............................. CYCLE   10 ..............................
........................................................................

 iter      E             dE          RMSdq      gap      omega  full diag
   1   -180.2527608 -0.180253E+03  0.925E-02    0.83       0.0  T
   2   -180.2464608  0.630000E-02  0.163E-01    0.80       1.0  T
   3   -180.2485508 -0.208997E-02  0.134E-01    0.84       1.0  T
   4   -180.2527391 -0.418835E-02  0.333E-02    0.82       1.0  T
   5   -180.2529061 -0.166972E-03  0.826E-03    0.83       1.2  T
   6   -180.2529211 -0.149743E-04  0.208E-03    0.83       4.7  T
   7   -180.2529217 -0.678410E-06  0.951E-04    0.83      10.2  T
   8   -180.2529218 -0.645740E-07  0.448E-04    0.83      21.7  T
     SCC iter.                  ...        0 min,  0.417 sec
     gradient                   ...        0 min,  0.037 sec
 * total energy  :  -177.1158497 Eh     change       -0.5922331E-02 Eh
   gradient norm :     0.0237609 Eh/α   predicted    -0.5197402E-02 ( -12.24%)
   displ. norm   :     0.5987193 α      lambda       -0.4985674E-02
   maximum displ.:     0.2655941 α      in ANC's #15, #13, #19, ...

........................................................................
.............................. CYCLE   11 ..............................
........................................................................

 iter      E             dE          RMSdq      gap      omega  full diag
   1   -180.2572603 -0.180257E+03  0.876E-02    0.84       0.0  T
   2   -180.2528000  0.446033E-02  0.139E-01    0.82       1.0  T
   3   -180.2511369  0.166310E-02  0.156E-01    0.85       1.0  T
   4   -180.2572037 -0.606679E-02  0.284E-02    0.83       1.0  T
   5   -180.2573442 -0.140518E-03  0.646E-03    0.84       1.5  T
   6   -180.2573535 -0.931422E-05  0.176E-03    0.84       5.5  T
   7   -180.2573539 -0.461785E-06  0.769E-04    0.84      12.6  T
   8   -180.2573540 -0.637962E-08  0.468E-04    0.84      20.8  T
     SCC iter.                  ...        0 min,  0.369 sec
     gradient                   ...        0 min,  0.037 sec
 * total energy  :  -177.1198274 Eh     change       -0.3977736E-02 Eh
   gradient norm :     0.0207777 Eh/α   predicted    -0.3386432E-02 ( -14.87%)
   displ. norm   :     0.6103494 α      lambda       -0.3793496E-02
   maximum displ.:     0.2686266 α      in ANC's #15, #13, #5, ...

........................................................................
.............................. CYCLE   12 ..............................
........................................................................

 iter      E             dE          RMSdq      gap      omega  full diag
   1   -180.2612661 -0.180261E+03  0.864E-02    0.85       0.0  T
   2   -180.2604134  0.852682E-03  0.754E-02    0.85       1.0  T
   3   -180.2435219  0.168915E-01  0.256E-01    0.86       1.0  T
   4   -180.2612361 -0.177142E-01  0.175E-02    0.85       1.0  T
   5   -180.2612806 -0.444805E-04  0.650E-03    0.86       1.5  T
   6   -180.2612898 -0.919477E-05  0.198E-03    0.86       4.9  T
   7   -180.2612901 -0.308797E-06  0.151E-03    0.86       6.5  T
   8   -180.2612906 -0.526559E-06  0.385E-04    0.86      25.2  T
   9   -180.2612906  0.160995E-07  0.344E-04    0.86      28.2  T
     SCC iter.                  ...        0 min,  0.570 sec
     gradient                   ...        0 min,  0.034 sec
 * total energy  :  -177.1228768 Eh     change       -0.3049392E-02 Eh
   gradient norm :     0.0170524 Eh/α   predicted    -0.2603343E-02 ( -14.63%)
   displ. norm   :     0.6049171 α      lambda       -0.2837321E-02
   maximum displ.:     0.2504101 α      in ANC's #15, #13, #2, ...

........................................................................
.............................. CYCLE   13 ..............................
........................................................................

 iter      E             dE          RMSdq      gap      omega  full diag
   1   -180.2636049 -0.180264E+03  0.851E-02    0.87       0.0  T
   2   -180.2635986  0.638076E-05  0.507E-02    0.88       1.0  T
   3   -180.2592298  0.436873E-02  0.126E-01    0.85       1.0  T
   4   -180.2632153 -0.398552E-02  0.391E-02    0.87       1.0  T
   5   -180.2636059 -0.390588E-03  0.722E-03    0.87       1.3  T
   6   -180.2636188 -0.129119E-04  0.184E-03    0.87       5.3  T
   7   -180.2636194 -0.535071E-06  0.783E-04    0.87      12.4  T
   8   -180.2636194 -0.716109E-07  0.357E-04    0.87      27.2  T
     SCC iter.                  ...        0 min,  0.400 sec
     gradient                   ...        0 min,  0.035 sec
 * total energy  :  -177.1250868 Eh     change       -0.2209970E-02 Eh
   gradient norm :     0.0116231 Eh/α   predicted    -0.1937794E-02 ( -12.32%)
   displ. norm   :     0.5620472 α      lambda       -0.1736973E-02
   maximum displ.:     0.2078431 α      in ANC's #15, #13, #2, ...

........................................................................
.............................. CYCLE   14 ..............................
........................................................................

 iter      E             dE          RMSdq      gap      omega  full diag
   1   -180.2641330 -0.180264E+03  0.760E-02    0.88       0.0  T
   2   -180.2635364  0.596608E-03  0.654E-02    0.89       1.0  T
   3   -180.2507389  0.127975E-01  0.221E-01    0.83       1.0  T
   4   -180.2640088 -0.132699E-01  0.245E-02    0.88       1.0  T
   5   -180.2641038 -0.949907E-04  0.132E-02    0.89       1.0  T
   6   -180.2641525 -0.487410E-04  0.195E-03    0.89       5.0  T
   7   -180.2641526 -0.228032E-07  0.169E-03    0.89       5.8  T
   8   -180.2641533 -0.757646E-06  0.405E-04    0.89      24.0  T
   9   -180.2641533 -0.142612E-07  0.268E-04    0.89      36.2  T
     SCC iter.                  ...        0 min,  0.537 sec
     gradient                   ...        0 min,  0.036 sec
 * total energy  :  -177.1263885 Eh     change       -0.1301724E-02 Eh
   gradient norm :     0.0094944 Eh/α   predicted    -0.1142847E-02 ( -12.21%)
   displ. norm   :     0.5006143 α      lambda       -0.9739784E-03
   maximum displ.:     0.1818999 α      in ANC's #2, #4, #5, ...

........................................................................
.............................. CYCLE   15 ..............................
........................................................................

 iter      E             dE          RMSdq      gap      omega  full diag
   1   -180.2642495 -0.180264E+03  0.624E-02    0.89       0.0  T
   2   -180.2634988  0.750698E-03  0.646E-02    0.90       1.0  T
   3   -180.2566084  0.689040E-02  0.167E-01    0.87       1.0  T
   4   -180.2642120 -0.760354E-02  0.161E-02    0.89       1.0  T
   5   -180.2642422 -0.301905E-04  0.946E-03    0.90       1.0  T
   6   -180.2642660 -0.238521E-04  0.215E-03    0.90       4.5  T
   7   -180.2642666 -0.643522E-06  0.136E-03    0.90       7.1  T
   8   -180.2642672 -0.509038E-06  0.258E-04    0.90      37.7  T
   9   -180.2642672  0.175319E-08  0.207E-04    0.90      46.9  T
     SCC iter.                  ...        0 min,  0.571 sec
     gradient                   ...        0 min,  0.035 sec
 * total energy  :  -177.1271361 Eh     change       -0.7476005E-03 Eh
   gradient norm :     0.0091513 Eh/α   predicted    -0.6090412E-03 ( -18.53%)
   displ. norm   :     0.4892932 α      lambda       -0.7332289E-03
   maximum displ.:     0.1989016 α      in ANC's #2, #4, #5, ...

........................................................................
.............................. CYCLE   16 ..............................
........................................................................

 iter      E             dE          RMSdq      gap      omega  full diag
   1   -180.2648039 -0.180265E+03  0.584E-02    0.90       0.0  T
   2   -180.2642122  0.591680E-03  0.583E-02    0.91       1.0  T
   3   -180.2574410  0.677114E-02  0.163E-01    0.87       1.0  T
   4   -180.2647716 -0.733060E-02  0.148E-02    0.90       1.0  T
   5   -180.2648007 -0.290570E-04  0.783E-03    0.90       1.2  T
   6   -180.2648166 -0.159548E-04  0.198E-03    0.90       4.9  T
   7   -180.2648172 -0.564999E-06  0.125E-03    0.90       7.8  T
   8   -180.2648176 -0.433891E-06  0.224E-04    0.90      43.4  T
   9   -180.2648176  0.411677E-08  0.199E-04    0.90      48.8  T
     SCC iter.                  ...        0 min,  0.461 sec
     gradient                   ...        0 min,  0.035 sec
 * total energy  :  -177.1277218 Eh     change       -0.5856424E-03 Eh
   gradient norm :     0.0080000 Eh/α   predicted    -0.4543861E-03 ( -22.41%)
   displ. norm   :     0.4979128 α      lambda       -0.6630664E-03
   maximum displ.:     0.2222491 α      in ANC's #4, #2, #5, ...

........................................................................
.............................. CYCLE   17 ..............................
........................................................................

 iter      E             dE          RMSdq      gap      omega  full diag
   1   -180.2656627 -0.180266E+03  0.615E-02    0.91       0.0  T
   2   -180.2650025  0.660218E-03  0.612E-02    0.91       1.0  T
   3   -180.2575624  0.744009E-02  0.171E-01    0.87       1.0  T
   4   -180.2656328 -0.807047E-02  0.145E-02    0.90       1.0  T
   5   -180.2656608 -0.279579E-04  0.756E-03    0.91       1.3  T
   6   -180.2656756 -0.147574E-04  0.198E-03    0.91       4.9  T
   7   -180.2656762 -0.674402E-06  0.112E-03    0.91       8.7  T
   8   -180.2656766 -0.335408E-06  0.212E-04    0.91      45.8  T
   9   -180.2656766  0.656024E-08  0.206E-04    0.91      47.2  T
     SCC iter.                  ...        0 min,  0.509 sec
     gradient                   ...        0 min,  0.036 sec
 * total energy  :  -177.1282562 Eh     change       -0.5344765E-03 Eh
   gradient norm :     0.0070840 Eh/α   predicted    -0.4137307E-03 ( -22.59%)
   displ. norm   :     0.4997393 α      lambda       -0.5785826E-03
   maximum displ.:     0.2429355 α      in ANC's #4, #2, #5, ...

........................................................................
.............................. CYCLE   18 ..............................
........................................................................

 iter      E             dE          RMSdq      gap      omega  full diag
   1   -180.2661961 -0.180266E+03  0.661E-02    0.91       0.0  T
   2   -180.2652766  0.919527E-03  0.695E-02    0.91       1.0  T
   3   -180.2578909  0.738568E-02  0.174E-01    0.87       1.0  T
   4   -180.2661751 -0.828421E-02  0.138E-02    0.90       1.0  T
   5   -180.2661964 -0.212486E-04  0.766E-03    0.91       1.3  T
   6   -180.2662116 -0.152090E-04  0.202E-03    0.91       4.8  T
   7   -180.2662124 -0.854912E-06  0.913E-04    0.91      10.6  T
   8   -180.2662126 -0.194788E-06  0.255E-04    0.91      38.1  T
     SCC iter.                  ...        0 min,  0.401 sec
     gradient                   ...        0 min,  0.045 sec
 * total energy  :  -177.1287160 Eh     change       -0.4597185E-03 Eh
   gradient norm :     0.0070041 Eh/α   predicted    -0.3615466E-03 ( -21.35%)
   displ. norm   :     0.4776415 α      lambda       -0.4524432E-03
   maximum displ.:     0.2452109 α      in ANC's #4, #2, #5, ...

........................................................................
.............................. CYCLE   19 ..............................
........................................................................

 iter      E             dE          RMSdq      gap      omega  full diag
   1   -180.2662257 -0.180266E+03  0.666E-02    0.90       0.0  T
   2   -180.2648303  0.139547E-02  0.807E-02    0.91       1.0  T
   3   -180.2596453  0.518492E-02  0.156E-01    0.87       1.0  T
   4   -180.2662137 -0.656832E-02  0.130E-02    0.90       1.0  T
   5   -180.2662358 -0.221161E-04  0.665E-03    0.90       1.5  T
   6   -180.2662471 -0.113511E-04  0.186E-03    0.90       5.2  T
   7   -180.2662479 -0.825476E-06  0.600E-04    0.90      16.2  T
   8   -180.2662480 -0.520252E-07  0.244E-04    0.90      39.8  T
     SCC iter.                  ...        0 min,  0.426 sec
     gradient                   ...        0 min,  0.037 sec
 * total energy  :  -177.1290738 Eh     change       -0.3578227E-03 Eh
   gradient norm :     0.0064999 Eh/α   predicted    -0.2778380E-03 ( -22.35%)
   displ. norm   :     0.4421026 α      lambda       -0.3535252E-03
   maximum displ.:     0.2345237 α      in ANC's #4, #2, #5, ...

........................................................................
.............................. CYCLE   20 ..............................
........................................................................

 iter      E             dE          RMSdq      gap      omega  full diag
   1   -180.2662200 -0.180266E+03  0.642E-02    0.90       0.0  T
   2   -180.2643659  0.185413E-02  0.894E-02    0.91       1.0  T
   3   -180.2615563  0.280958E-02  0.132E-01    0.88       1.0  T
   4   -180.2662135 -0.465717E-02  0.128E-02    0.90       1.0  T
   5   -180.2662405 -0.269918E-04  0.547E-03    0.90       1.8  T
   6   -180.2662483 -0.782295E-05  0.146E-03    0.90       6.6  T
   7   -180.2662488 -0.513015E-06  0.423E-04    0.90      23.0  T
   8   -180.2662488 -0.493560E-08  0.218E-04    0.90      44.5  T
     SCC iter.                  ...        0 min,  0.445 sec
     gradient                   ...        0 min,  0.036 sec
 * total energy  :  -177.1293577 Eh     change       -0.2838928E-03 Eh
   gradient norm :     0.0055211 Eh/α   predicted    -0.2113142E-03 ( -25.57%)
   displ. norm   :     0.4240584 α      lambda       -0.3093124E-03
   maximum displ.:     0.2284230 α      in ANC's #4, #2, #5, ...
 * RMSD in coord.:     0.9064418 α      energy gain  -0.6110776E+00 Eh

generating ANC from model Hessian ...
Using Lindh-Hessian (1995)
 Shifting diagonal of input Hessian by    9.9628157700453572E-003
 Lowest  eigenvalues of input Hessian
    0.000000    0.000000    0.000000    0.000000    0.000000    0.000000
    0.010000    0.010116    0.010122    0.010209    0.010460    0.010582
    0.010782    0.010950    0.011044    0.011204    0.011379    0.011762
 Highest eigenvalues
    2.176737    2.180141    2.261016    2.266700    2.294967    2.302773


........................................................................
.............................. CYCLE   21 ..............................
........................................................................

 iter      E             dE          RMSdq      gap      omega  full diag
   1   -180.2663647 -0.180266E+03  0.641E-02    0.90       0.0  T
   2   -180.2641327  0.223205E-02  0.965E-02    0.91       1.0  T
   3   -180.2625943  0.153835E-02  0.120E-01    0.88       1.0  T
   4   -180.2663516 -0.375732E-02  0.144E-02    0.89       1.0  T
   5   -180.2663911 -0.394947E-04  0.562E-03    0.90       1.7  T
   6   -180.2663998 -0.863027E-05  0.129E-03    0.90       7.5  T
   7   -180.2664001 -0.373231E-06  0.422E-04    0.90      23.0  T
   8   -180.2664001 -0.605408E-08  0.217E-04    0.90      44.8  T
     SCC iter.                  ...        0 min,  0.374 sec
     gradient                   ...        0 min,  0.035 sec
 * total energy  :  -177.1296086 Eh     change       -0.2508795E-03 Eh
   gradient norm :     0.0050742 Eh/α   predicted     0.0000000E+00 (-100.00%)
   displ. norm   :     0.0871646 α      lambda       -0.2155017E-03
   maximum displ.:     0.0316452 α      in ANC's #16, #12, #5, ...

........................................................................
.............................. CYCLE   22 ..............................
........................................................................

 iter      E             dE          RMSdq      gap      omega  full diag
   1   -180.2668934 -0.180267E+03  0.257E-02    0.90       0.0  T
   2   -180.2668424  0.510274E-04  0.205E-02    0.90       1.0  T
   3   -180.2644865  0.235591E-02  0.921E-02    0.88       1.0  T
   4   -180.2668871 -0.240062E-02  0.532E-03    0.90       1.8  T
   5   -180.2668941 -0.701741E-05  0.145E-03    0.90       6.7  T
   6   -180.2668947 -0.556312E-06  0.269E-04    0.90      36.1  T
   7   -180.2668947 -0.333773E-08  0.154E-04    0.90      62.9  T
     SCC iter.                  ...        0 min,  0.360 sec
     gradient                   ...        0 min,  0.037 sec
 * total energy  :  -177.1297598 Eh     change       -0.1512796E-03 Eh
   gradient norm :     0.0020922 Eh/α   predicted    -0.1090194E-03 ( -27.94%)
   displ. norm   :     0.1485509 α      lambda       -0.1502522E-03
   maximum displ.:     0.0594659 α      in ANC's #16, #12, #5, ...

........................................................................
.............................. CYCLE   23 ..............................
........................................................................

 iter      E             dE          RMSdq      gap      omega  full diag
   1   -180.2672614 -0.180267E+03  0.294E-02    0.90       0.0  T
   2   -180.2669449  0.316551E-03  0.379E-02    0.90       1.0  T
   3   -180.2661679  0.776979E-03  0.635E-02    0.89       1.0  T
   4   -180.2672547 -0.108685E-02  0.682E-03    0.90       1.4  T
   5   -180.2672657 -0.109561E-04  0.204E-03    0.90       4.8  T
   6   -180.2672668 -0.109711E-05  0.394E-04    0.90      24.6  T
   7   -180.2672668 -0.179655E-07  0.200E-04    0.90      48.6  T
   8   -180.2672668 -0.193438E-08  0.930E-05    0.90     104.4  T
     SCC iter.                  ...        0 min,  0.337 sec
     gradient                   ...        0 min,  0.036 sec
 * total energy  :  -177.1298708 Eh     change       -0.1109881E-03 Eh
   gradient norm :     0.0019674 Eh/α   predicted    -0.7679284E-04 ( -30.81%)
   displ. norm   :     0.3400978 α      lambda       -0.1469122E-03
   maximum displ.:     0.1342799 α      in ANC's #16, #12, #5, ...

........................................................................
.............................. CYCLE   24 ..............................
........................................................................

 iter      E             dE          RMSdq      gap      omega  full diag
   1   -180.2672238 -0.180267E+03  0.590E-02    0.89       0.0  T
   2   -180.2654440  0.177982E-02  0.871E-02    0.91       1.0  T
   3   -180.2642200  0.122398E-02  0.107E-01    0.88       1.0  T
   4   -180.2671956 -0.297556E-02  0.148E-02    0.89       1.0  T
   5   -180.2672455 -0.499760E-04  0.512E-03    0.90       1.9  T
   6   -180.2672525 -0.697075E-05  0.118E-03    0.90       8.2  T
   7   -180.2672528 -0.277439E-06  0.424E-04    0.90      22.9  T
   8   -180.2672528 -0.424188E-08  0.220E-04    0.90      44.2  T
     SCC iter.                  ...        0 min,  0.336 sec
     gradient                   ...        0 min,  0.035 sec
 * total energy  :  -177.1300112 Eh     change       -0.1403851E-03 Eh
   gradient norm :     0.0038308 Eh/α   predicted    -0.7724054E-04 ( -44.98%)
   displ. norm   :     0.1788878 α      lambda       -0.1041833E-03
   maximum displ.:     0.0755229 α      in ANC's #5, #12, #2, ...

........................................................................
.............................. CYCLE   25 ..............................
........................................................................

 iter      E             dE          RMSdq      gap      omega  full diag
   1   -180.2674574 -0.180267E+03  0.294E-02    0.89       0.0  T
   2   -180.2670261  0.431291E-03  0.428E-02    0.90       1.0  T
   3   -180.2665789  0.447257E-03  0.575E-02    0.89       1.0  T
   4   -180.2674600 -0.881118E-03  0.445E-03    0.89       2.2  T
   5   -180.2674639 -0.391045E-05  0.112E-03    0.90       8.7  T
   6   -180.2674642 -0.284875E-06  0.326E-04    0.90      29.8  T
   7   -180.2674642 -0.943615E-08  0.175E-04    0.90      55.4  T
     SCC iter.                  ...        0 min,  0.297 sec
     gradient                   ...        0 min,  0.037 sec
 * total energy  :  -177.1301024 Eh     change       -0.9121016E-04 Eh
   gradient norm :     0.0030805 Eh/α   predicted    -0.5376034E-04 ( -41.06%)
   displ. norm   :     0.3878560 α      lambda       -0.2100492E-03
   maximum displ.:     0.1677181 α      in ANC's #5, #2, #12, ...

........................................................................
.............................. CYCLE   26 ..............................
........................................................................

 iter      E             dE          RMSdq      gap      omega  full diag
   1   -180.2673721 -0.180267E+03  0.631E-02    0.89       0.0  T
   2   -180.2655445  0.182758E-02  0.888E-02    0.90       1.0  T
   3   -180.2634252  0.211930E-02  0.122E-01    0.87       1.0  T
   4   -180.2673657 -0.394047E-02  0.120E-02    0.89       1.0  T
   5   -180.2673954 -0.297591E-04  0.447E-03    0.89       2.2  T
   6   -180.2674006 -0.513009E-05  0.126E-03    0.89       7.7  T
   7   -180.2674009 -0.342154E-06  0.409E-04    0.89      23.7  T
   8   -180.2674009 -0.888591E-08  0.193E-04    0.89      50.4  T
     SCC iter.                  ...        0 min,  0.378 sec
     gradient                   ...        0 min,  0.035 sec
 * total energy  :  -177.1302587 Eh     change       -0.1562714E-03 Eh
   gradient norm :     0.0020877 Eh/α   predicted    -0.1208422E-03 ( -22.67%)
   displ. norm   :     0.3478594 α      lambda       -0.1257698E-03
   maximum displ.:     0.1557318 α      in ANC's #5, #2, #6, ...

........................................................................
.............................. CYCLE   27 ..............................
........................................................................

 iter      E             dE          RMSdq      gap      omega  full diag
   1   -180.2672405 -0.180267E+03  0.545E-02    0.89       0.0  T
   2   -180.2660755  0.116502E-02  0.719E-02    0.90       1.0  T
   3   -180.2637749  0.230055E-02  0.114E-01    0.87       1.0  T
   4   -180.2672354 -0.346051E-02  0.967E-03    0.89       1.0  T
   5   -180.2672554 -0.199325E-04  0.356E-03    0.89       2.7  T
   6   -180.2672587 -0.336364E-05  0.859E-04    0.89      11.3  T
   7   -180.2672589 -0.143048E-06  0.328E-04    0.89      29.6  T
   8   -180.2672589 -0.694160E-08  0.154E-04    0.89      62.9  T
     SCC iter.                  ...        0 min,  0.327 sec
     gradient                   ...        0 min,  0.035 sec
 * total energy  :  -177.1303552 Eh     change       -0.9648595E-04 Eh
   gradient norm :     0.0024197 Eh/α   predicted    -0.7049881E-04 ( -26.93%)
   displ. norm   :     0.3113959 α      lambda       -0.1045116E-03
   maximum displ.:     0.1427394 α      in ANC's #5, #2, #1, ...

........................................................................
.............................. CYCLE   28 ..............................
........................................................................

 iter      E             dE          RMSdq      gap      omega  full diag
   1   -180.2677452 -0.180268E+03  0.466E-02    0.89       0.0  T
   2   -180.2671603  0.584938E-03  0.533E-02    0.90       1.0  T
   3   -180.2642500  0.291025E-02  0.113E-01    0.87       1.0  T
   4   -180.2677383 -0.348822E-02  0.807E-03    0.89       1.2  T
   5   -180.2677521 -0.138670E-04  0.304E-03    0.89       3.2  T
   6   -180.2677547 -0.255642E-05  0.599E-04    0.89      16.2  T
   7   -180.2677547 -0.577338E-07  0.280E-04    0.89      34.7  T
   8   -180.2677547 -0.840831E-08  0.119E-04    0.89      81.8  T
     SCC iter.                  ...        0 min,  0.335 sec
     gradient                   ...        0 min,  0.037 sec
 * total energy  :  -177.1304407 Eh     change       -0.8548146E-04 Eh
   gradient norm :     0.0023463 Eh/α   predicted    -0.5734419E-04 ( -32.92%)
   displ. norm   :     0.3532948 α      lambda       -0.1209469E-03
   maximum displ.:     0.1626607 α      in ANC's #5, #2, #1, ...

........................................................................
.............................. CYCLE   29 ..............................
........................................................................

 iter      E             dE          RMSdq      gap      omega  full diag
   1   -180.2684307 -0.180268E+03  0.504E-02    0.89       0.0  T
   2   -180.2680784  0.352253E-03  0.463E-02    0.90       1.0  T
   3   -180.2624205  0.565791E-02  0.147E-01    0.86       1.0  T
   4   -180.2684072 -0.598672E-02  0.108E-02    0.89       1.0  T
   5   -180.2684313 -0.240167E-04  0.453E-03    0.89       2.1  T
   6   -180.2684371 -0.586534E-05  0.698E-04    0.89      13.9  T
   7   -180.2684372 -0.704475E-07  0.378E-04    0.89      25.7  T
   8   -180.2684372 -0.233687E-07  0.149E-04    0.89      65.3  T
     SCC iter.                  ...        0 min,  0.354 sec
     gradient                   ...        0 min,  0.036 sec
 * total energy  :  -177.1305369 Eh     change       -0.9624031E-04 Eh
   gradient norm :     0.0020890 Eh/α   predicted    -0.6802355E-04 ( -29.32%)
   displ. norm   :     0.3783019 α      lambda       -0.1106201E-03
   maximum displ.:     0.1727603 α      in ANC's #5, #2, #1, ...

........................................................................
.............................. CYCLE   30 ..............................
........................................................................

 iter      E             dE          RMSdq      gap      omega  full diag
   1   -180.2685285 -0.180269E+03  0.516E-02    0.89       0.0  T
   2   -180.2683721  0.156337E-03  0.386E-02    0.89       1.0  T
   3   -180.2602630  0.810911E-02  0.171E-01    0.85       1.0  T
   4   -180.2685029 -0.823986E-02  0.110E-02    0.89       1.0  T
   5   -180.2685254 -0.225107E-04  0.500E-03    0.89       1.9  T
   6   -180.2685327 -0.725586E-05  0.570E-04    0.89      17.0  T
   7   -180.2685327  0.376758E-08  0.477E-04    0.89      20.4  T
   8   -180.2685327 -0.468651E-07  0.178E-04    0.89      54.6  T
     SCC iter.                  ...        0 min,  0.322 sec
     gradient                   ...        0 min,  0.035 sec
 * total energy  :  -177.1306229 Eh     change       -0.8604746E-04 Eh
   gradient norm :     0.0020800 Eh/α   predicted    -0.6322889E-04 ( -26.52%)
   displ. norm   :     0.3743177 α      lambda       -0.9174254E-04
   maximum displ.:     0.1679827 α      in ANC's #5, #1, #2, ...

........................................................................
.............................. CYCLE   31 ..............................
........................................................................

 iter      E             dE          RMSdq      gap      omega  full diag
   1   -180.2683434 -0.180268E+03  0.491E-02    0.89       0.0  T
   2   -180.2683187  0.247523E-04  0.305E-02    0.89       1.0  T
   3   -180.2628092  0.550945E-02  0.140E-01    0.86       1.0  T
   4   -180.2683308 -0.552157E-02  0.847E-03    0.89       1.1  T
   5   -180.2683431 -0.123193E-04  0.326E-03    0.89       3.0  T
   6   -180.2683461 -0.300246E-05  0.471E-04    0.89      20.6  T
   7   -180.2683461  0.112279E-07  0.394E-04    0.89      24.6  T
   8   -180.2683461 -0.332579E-07  0.116E-04    0.89      83.4  T
     SCC iter.                  ...        0 min,  0.444 sec
     gradient                   ...        0 min,  0.034 sec
 * total energy  :  -177.1306950 Eh     change       -0.7207905E-04 Eh
   gradient norm :     0.0020609 Eh/α   predicted    -0.5229875E-04 ( -27.44%)
   displ. norm   :     0.3756565 α      lambda       -0.8450207E-04
   maximum displ.:     0.1633106 α      in ANC's #5, #1, #2, ...

........................................................................
.............................. CYCLE   32 ..............................
........................................................................

 iter      E             dE          RMSdq      gap      omega  full diag
   1   -180.2682235 -0.180268E+03  0.481E-02    0.89       0.0  T
   2   -180.2682131  0.103518E-04  0.289E-02    0.89       1.0  T
   3   -180.2646396  0.357356E-02  0.112E-01    0.90       1.0  T
   4   -180.2681580 -0.351845E-02  0.163E-02    0.89       1.0  T
   5   -180.2682252 -0.672119E-04  0.215E-03    0.89       4.5  T
   6   -180.2682264 -0.116219E-05  0.467E-04    0.89      20.8  T
   7   -180.2682264 -0.811195E-08  0.272E-04    0.89      35.7  T
   8   -180.2682264 -0.627747E-08  0.131E-04    0.89      74.2  T
     SCC iter.                  ...        0 min,  0.381 sec
     gradient                   ...        0 min,  0.035 sec
 * total energy  :  -177.1307604 Eh     change       -0.6538504E-04 Eh
   gradient norm :     0.0018555 Eh/α   predicted    -0.4821890E-04 ( -26.25%)
   displ. norm   :     0.4964883 α      lambda       -0.6795171E-04
   maximum displ.:     0.2132544 α      in ANC's #1, #5, #2, ...

........................................................................
.............................. CYCLE   33 ..............................
........................................................................

 iter      E             dE          RMSdq      gap      omega  full diag
   1   -180.2681355 -0.180268E+03  0.638E-02    0.89       0.0  T
   2   -180.2679919  0.143659E-03  0.435E-02    0.89       1.0  T
   3   -180.2538572  0.141347E-01  0.224E-01    0.90       1.0  T
   4   -180.2681065 -0.142493E-01  0.133E-02    0.89       1.0  T
   5   -180.2681424 -0.358734E-04  0.210E-03    0.89       4.6  T
   6   -180.2681429 -0.536842E-06  0.855E-04    0.89      11.4  T
   7   -180.2681430 -0.842712E-07  0.483E-04    0.89      20.1  T
     SCC iter.                  ...        0 min,  0.381 sec
     gradient                   ...        0 min,  0.035 sec
 * total energy  :  -177.1308216 Eh     change       -0.6121708E-04 Eh
   gradient norm :     0.0017661 Eh/α   predicted    -0.3769934E-04 ( -38.42%)
   displ. norm   :     0.1253093 α      lambda       -0.1879826E-04
   maximum displ.:     0.0623807 α      in ANC's #1, #2, #5, ...

........................................................................
.............................. CYCLE   34 ..............................
........................................................................

 iter      E             dE          RMSdq      gap      omega  full diag
   1   -180.2687896 -0.180269E+03  0.178E-02    0.89       0.0  T
   2   -180.2687836  0.601045E-05  0.115E-02    0.89       1.0  T
   3   -180.2676715  0.111213E-02  0.624E-02    0.88       1.0  T
   4   -180.2687874 -0.111596E-02  0.352E-03    0.89       2.8  T
   5   -180.2687899 -0.251010E-05  0.765E-04    0.89      12.7  T
   6   -180.2687901 -0.121246E-06  0.245E-04    0.89      39.6  T
   7   -180.2687901 -0.449737E-08  0.119E-04    0.89      81.3  T
     SCC iter.                  ...        0 min,  0.293 sec
     gradient                   ...        0 min,  0.037 sec
 * total energy  :  -177.1308430 Eh     change       -0.2136865E-04 Eh
   gradient norm :     0.0010138 Eh/α   predicted    -0.9467450E-05 ( -55.69%)
   displ. norm   :     0.1215920 α      lambda       -0.1704905E-04
   maximum displ.:     0.0652205 α      in ANC's #1, #2, #8, ...

........................................................................
.............................. CYCLE   35 ..............................
........................................................................

 iter      E             dE          RMSdq      gap      omega  full diag
   1   -180.2686573 -0.180269E+03  0.193E-02    0.89       0.0  T
   2   -180.2686572  0.107369E-06  0.114E-02    0.89       1.0  T
   3   -180.2685442  0.112971E-03  0.199E-02    0.89       1.0  T
   4   -180.2686390 -0.947907E-04  0.821E-03    0.89       1.2  T
   5   -180.2686576 -0.185753E-04  0.633E-04    0.89      15.3  T
   6   -180.2686576 -0.719900E-07  0.234E-04    0.89      41.5  T
   7   -180.2686576 -0.370144E-08  0.112E-04    0.89      87.0  T
     SCC iter.                  ...        0 min,  0.347 sec
     gradient                   ...        0 min,  0.035 sec
 * total energy  :  -177.1308607 Eh     change       -0.1771986E-04 Eh
   gradient norm :     0.0007654 Eh/α   predicted    -0.8581859E-05 ( -51.57%)
   displ. norm   :     0.0947332 α      lambda       -0.1012469E-04
   maximum displ.:     0.0537660 α      in ANC's #1, #2, #13, ...

........................................................................
.............................. CYCLE   36 ..............................
........................................................................

 iter      E             dE          RMSdq      gap      omega  full diag
   1   -180.2692291 -0.180269E+03  0.146E-02    0.89       0.0  T
   2   -180.2692176  0.115719E-04  0.107E-02    0.89       1.0  T
   3   -180.2683231  0.894499E-03  0.562E-02    0.88       1.0  T
   4   -180.2692289 -0.905866E-03  0.180E-03    0.89       5.4  T
   5   -180.2692294 -0.511069E-06  0.332E-04    0.89      29.2  T
   6   -180.2692295 -0.183494E-07  0.139E-04    0.89      70.0  T
     SCC iter.                  ...        0 min,  0.237 sec
     gradient                   ...        0 min,  0.037 sec
 * total energy  :  -177.1308722 Eh     change       -0.1145444E-04 Eh
   gradient norm :     0.0009528 Eh/α   predicted    -0.5086475E-05 ( -55.59%)
   displ. norm   :     0.1197610 α      lambda       -0.1195858E-04
   maximum displ.:     0.0689417 α      in ANC's #1, #2, #13, ...

........................................................................
.............................. CYCLE   37 ..............................
........................................................................

 iter      E             dE          RMSdq      gap      omega  full diag
   1   -180.2686396 -0.180269E+03  0.188E-02    0.89       0.0  T
   2   -180.2686203  0.193161E-04  0.138E-02    0.89       1.0  T
   3   -180.2671558  0.146457E-02  0.719E-02    0.88       1.0  T
   4   -180.2686386 -0.148285E-02  0.279E-03    0.89       3.5  T
   5   -180.2686401 -0.150957E-05  0.472E-04    0.89      20.6  T
   6   -180.2686402 -0.446526E-07  0.170E-04    0.89      57.2  T
   7   -180.2686402 -0.136976E-08  0.978E-05    0.89      99.3  T
     SCC iter.                  ...        0 min,  0.297 sec
     gradient                   ...        0 min,  0.036 sec
 * total energy  :  -177.1308856 Eh     change       -0.1347190E-04 Eh
   gradient norm :     0.0010477 Eh/α   predicted    -0.6022126E-05 ( -55.30%)
   displ. norm   :     0.1335289 α      lambda       -0.1233062E-04
   maximum displ.:     0.0787979 α      in ANC's #1, #2, #13, ...

........................................................................
.............................. CYCLE   38 ..............................
........................................................................

 iter      E             dE          RMSdq      gap      omega  full diag
   1   -180.2689764 -0.180269E+03  0.193E-02    0.89       0.0  T
   2   -180.2689600  0.163972E-04  0.137E-02    0.89       1.0  T
   3   -180.2673733  0.158672E-02  0.748E-02    0.90       1.0  T
   4   -180.2689698 -0.159648E-02  0.517E-03    0.89       1.9  T
   5   -180.2689769 -0.716145E-05  0.501E-04    0.89      19.4  T
   6   -180.2689770 -0.508982E-07  0.194E-04    0.89      50.0  T
   7   -180.2689770 -0.262028E-08  0.107E-04    0.89      90.6  T
     SCC iter.                  ...        0 min,  0.392 sec
     gradient                   ...        0 min,  0.035 sec
 * total energy  :  -177.1308992 Eh     change       -0.1355311E-04 Eh
   gradient norm :     0.0008892 Eh/α   predicted    -0.6216979E-05 ( -54.13%)
   displ. norm   :     0.1147124 α      lambda       -0.9190492E-05
   maximum displ.:     0.0723459 α      in ANC's #1, #2, #8, ...

........................................................................
.............................. CYCLE   39 ..............................
........................................................................

 iter      E             dE          RMSdq      gap      omega  full diag
   1   -180.2687646 -0.180269E+03  0.156E-02    0.89       0.0  T
   2   -180.2687363  0.283056E-04  0.136E-02    0.89       1.0  T
   3   -180.2679322  0.804115E-03  0.541E-02    0.90       1.0  T
   4   -180.2687600 -0.827844E-03  0.429E-03    0.89       2.3  T
   5   -180.2687652 -0.516593E-05  0.402E-04    0.89      24.1  T
   6   -180.2687652 -0.299549E-07  0.163E-04    0.89      59.7  T
   7   -180.2687652 -0.154770E-08  0.879E-05    0.89     110.4  T
     SCC iter.                  ...        0 min,  0.360 sec
     gradient                   ...        0 min,  0.036 sec
 * total energy  :  -177.1309097 Eh     change       -0.1045736E-04 Eh
   gradient norm :     0.0007055 Eh/α   predicted    -0.4624803E-05 ( -55.77%)
   displ. norm   :     0.1023176 α      lambda       -0.7991933E-05
   maximum displ.:     0.0668087 α      in ANC's #1, #2, #8, ...

........................................................................
.............................. CYCLE   40 ..............................
........................................................................

 iter      E             dE          RMSdq      gap      omega  full diag
   1   -180.2686593 -0.180269E+03  0.128E-02    0.89       0.0  T
   2   -180.2686290  0.302645E-04  0.128E-02    0.89       1.0  T
   3   -180.2682226  0.406448E-03  0.393E-02    0.89       1.0  T
   4   -180.2686562 -0.433619E-03  0.355E-03    0.89       2.7  T
   5   -180.2686598 -0.365074E-05  0.318E-04    0.89      30.5  T
   6   -180.2686598 -0.145878E-07  0.151E-04    0.89      64.2  T
   7   -180.2686598 -0.132900E-08  0.770E-05    0.89     126.2  T
     SCC iter.                  ...        0 min,  0.381 sec
     gradient                   ...        0 min,  0.035 sec
 * total energy  :  -177.1309186 Eh     change       -0.8985859E-05 Eh
   gradient norm :     0.0007150 Eh/α   predicted    -0.4015900E-05 ( -55.31%)
   displ. norm   :     0.1002378 α      lambda       -0.7850651E-05
   maximum displ.:     0.0664837 α      in ANC's #1, #2, #8, ...

........................................................................
.............................. CYCLE   41 ..............................
........................................................................

 iter      E             dE          RMSdq      gap      omega  full diag
   1   -180.2689157 -0.180269E+03  0.117E-02    0.89       0.0  T
   2   -180.2688986  0.170962E-04  0.104E-02    0.89       1.0  T
   3   -180.2684615  0.437113E-03  0.400E-02    0.89       1.0  T
   4   -180.2689134 -0.451887E-03  0.307E-03    0.89       3.2  T
   5   -180.2689161 -0.269014E-05  0.308E-04    0.89      31.5  T
   6   -180.2689161 -0.122667E-07  0.148E-04    0.89      65.7  T
   7   -180.2689161 -0.169686E-08  0.691E-05    0.89     140.6  T
     SCC iter.                  ...        0 min,  0.360 sec
     gradient                   ...        0 min,  0.035 sec
 * total energy  :  -177.1309274 Eh     change       -0.8742543E-05 Eh
   gradient norm :     0.0008030 Eh/α   predicted    -0.3946537E-05 ( -54.86%)
   displ. norm   :     0.0954014 α      lambda       -0.6815444E-05
   maximum displ.:     0.0636535 α      in ANC's #1, #2, #8, ...

........................................................................
.............................. CYCLE   42 ..............................
........................................................................

 iter      E             dE          RMSdq      gap      omega  full diag
   1   -180.2688979 -0.180269E+03  0.102E-02    0.89       0.0  T
   2   -180.2688947  0.317873E-05  0.689E-03    0.89       1.4  T
   3   -180.2684317  0.463040E-03  0.402E-02    0.88       1.0  T
   4   -180.2688976 -0.465930E-03  0.156E-03    0.89       6.2  T
   5   -180.2688981 -0.445926E-06  0.250E-04    0.89      38.8  T
   6   -180.2688981 -0.645068E-08  0.126E-04    0.89      77.0  T
     SCC iter.                  ...        0 min,  0.381 sec
     gradient                   ...        0 min,  0.036 sec
 * total energy  :  -177.1309356 Eh     change       -0.8196920E-05 Eh
   gradient norm :     0.0007126 Eh/α   predicted    -0.3425378E-05 ( -58.21%)
   displ. norm   :     0.1010027 α      lambda       -0.6857654E-05
   maximum displ.:     0.0679317 α      in ANC's #1, #2, #8, ...
 * RMSD in coord.:     0.3926828 α      energy gain  -0.1577901E-02 Eh

generating ANC from model Hessian ...
Using Lindh-Hessian (1995)
 Shifting diagonal of input Hessian by    9.9570936488288415E-003
 Lowest  eigenvalues of input Hessian
    0.000000    0.000000    0.000000    0.000000    0.000000    0.000000
    0.010000    0.010108    0.010132    0.010204    0.010454    0.010594
    0.010777    0.010877    0.011034    0.011213    0.011385    0.011758
 Highest eigenvalues
    2.178302    2.179745    2.263189    2.267067    2.298702    2.305193


........................................................................
.............................. CYCLE   43 ..............................
........................................................................

 iter      E             dE          RMSdq      gap      omega  full diag
   1   -180.2690165 -0.180269E+03  0.103E-02    0.89       0.0  T
   2   -180.2689906  0.259464E-04  0.113E-02    0.89       1.0  T
   3   -180.2687890  0.201552E-03  0.285E-02    0.89       1.0  T
   4   -180.2690165 -0.227472E-03  0.167E-03    0.89       5.8  T
   5   -180.2690170 -0.513843E-06  0.240E-04    0.89      40.4  T
   6   -180.2690170 -0.509692E-08  0.125E-04    0.89      77.5  T
     SCC iter.                  ...        0 min,  0.247 sec
     gradient                   ...        0 min,  0.035 sec
 * total energy  :  -177.1309437 Eh     change       -0.8153005E-05 Eh
   gradient norm :     0.0006339 Eh/α   predicted     0.0000000E+00 (-100.00%)
   displ. norm   :     0.0199346 α      lambda       -0.2266742E-05
   maximum displ.:     0.0120498 α      in ANC's #1, #9, #16, ...

........................................................................
.............................. CYCLE   44 ..............................
........................................................................

 iter      E             dE          RMSdq      gap      omega  full diag
   1   -180.2689492 -0.180269E+03  0.412E-03    0.89       0.0  T
   2   -180.2689445  0.474202E-05  0.477E-03    0.89       2.0  T
   3   -180.2689172  0.272564E-04  0.107E-02    0.89       1.0  T
   4   -180.2689492 -0.320273E-04  0.532E-04    0.89      18.3  T
   5   -180.2689493 -0.494868E-07  0.984E-05    0.89      98.7  T
   6   -180.2689493 -0.102108E-08  0.512E-05    0.89     189.6  T
     SCC iter.                  ...        0 min,  0.278 sec
     gradient                   ...        0 min,  0.037 sec
 * total energy  :  -177.1309470 Eh     change       -0.3306107E-05 Eh
   gradient norm :     0.0002901 Eh/α   predicted    -0.1318564E-05 ( -60.12%)
   displ. norm   :     0.0594974 α      lambda       -0.4571160E-05
   maximum displ.:     0.0333396 α      in ANC's #1, #9, #16, ...

   *** GEOMETRY OPTIMIZATION CONVERGED AFTER 44 ITERATIONS ***

------------------------------------------------------------------------
 total energy gain   :        -0.6126669 Eh     -384.4543 kcal/mol
 total RMSD          :         1.0943284 a0        0.5791 Å
 total power (kW/mol):       -36.5581089 (step)  -75.2202 (real)
------------------------------------------------------------------------

 ANCopt (total)                0 d,  0 h,  0 min, 21.385 sec
 optimizer setup                ...        0 min,  0.000 sec (  0.001%)
 model hessian                  ...        0 min,  0.211 sec (  0.986%)
 ANC generation                 ...        0 min,  0.104 sec (  0.488%)
 coordinate transformation      ...        0 min,  0.002 sec (  0.009%)
 single point calculation       ...        0 min, 21.045 sec ( 98.410%)
 optimization log               ...        0 min,  0.010 sec (  0.047%)
 hessian update                 ...        0 min,  0.003 sec (  0.015%)
 rational function              ...        0 min,  0.007 sec (  0.035%)

================
 final structure:
================
 xtb: 6.6.1 (8d0f1dd)
          11012414453D

106120  0     0  0            999 V2000
   -2.4890   -0.8104    2.8070 C   0  0  0  0  0  0  0  0  0  0  0  0
   -1.9451    0.4908    2.5273 C   0  0  0  0  0  0  0  0  0  0  0  0
   -1.7174   -2.0135    2.8027 C   0  0  0  0  0  0  0  0  0  0  0  0
   -3.8511   -0.8913    3.1582 C   0  0  0  0  0  0  0  0  0  0  0  0
   -2.8266    1.5661    2.2587 C   0  0  0  0  0  0  0  0  0  0  0  0
   -2.1958   -3.1346    3.5370 C   0  0  0  0  0  0  0  0  0  0  0  0
   -4.7006    0.2234    2.9520 C   0  0  0  0  0  0  0  0  0  0  0  0
   -4.3608   -2.0862    3.7279 C   0  0  0  0  0  0  0  0  0  0  0  0
   -4.2200    1.3872    2.4448 C   0  0  0  0  0  0  0  0  0  0  0  0
   -3.5410   -3.1338    3.9900 C   0  0  0  0  0  0  0  0  0  0  0  0
   -0.5700    0.7777    2.5972 C   0  0  0  0  0  0  0  0  0  0  0  0
   -0.5092   -2.1909    2.0680 C   0  0  0  0  0  0  0  0  0  0  0  0
   -2.2983    2.8061    1.8613 C   0  0  0  0  0  0  0  0  0  0  0  0
   -1.3529   -4.2244    3.7792 C   0  0  0  0  0  0  0  0  0  0  0  0
   -0.0784    2.0023    2.2331 C   0  0  0  0  0  0  0  0  0  0  0  0
    0.3421   -3.2576    2.3970 C   0  0  0  0  0  0  0  0  0  0  0  0
   -0.9467    3.0109    1.8080 C   0  0  0  0  0  0  0  0  0  0  0  0
   -0.0702   -4.2481    3.2738 C   0  0  0  0  0  0  0  0  0  0  0  0
   -5.7501    0.1129    3.1905 H   0  0  0  0  0  0  0  0  0  0  0  0
   -5.4060   -2.1188    4.0038 H   0  0  0  0  0  0  0  0  0  0  0  0
   -4.8797    2.2168    2.2304 H   0  0  0  0  0  0  0  0  0  0  0  0
   -3.9038   -4.0066    4.5135 H   0  0  0  0  0  0  0  0  0  0  0  0
   -2.9855    3.6012    1.6049 H   0  0  0  0  0  0  0  0  0  0  0  0
   -1.7168   -5.0469    4.3749 H   0  0  0  0  0  0  0  0  0  0  0  0
   -0.5474    3.9602    1.4804 H   0  0  0  0  0  0  0  0  0  0  0  0
    0.6127   -5.0521    3.4959 H   0  0  0  0  0  0  0  0  0  0  0  0
    1.5988   -3.4041    1.8451 O   0  0  0  0  0  0  0  0  0  0  0  0
    2.0133   -2.4216    0.9797 C   0  0  0  0  0  0  0  0  0  0  0  0
    1.1263   -1.4756    0.4983 C   0  0  0  0  0  0  0  0  0  0  0  0
   -0.1885   -1.4447    0.9625 N   0  0  0  0  0  0  0  0  0  0  0  0
    1.5080   -0.5038   -0.4510 C   0  0  0  0  0  0  0  0  0  0  0  0
    3.3347   -2.4000    0.5509 C   0  0  0  0  0  0  0  0  0  0  0  0
    3.7313   -1.4368   -0.3652 C   0  0  0  0  0  0  0  0  0  0  0  0
    2.8431   -0.5070   -0.8711 C   0  0  0  0  0  0  0  0  0  0  0  0
    0.6030    0.3793   -0.9466 N   0  0  0  0  0  0  0  0  0  0  0  0
   -0.6550    0.2100   -0.5317 C   0  0  0  0  0  0  0  0  0  0  0  0
   -1.0975   -0.6445    0.3646 N   0  0  0  0  0  0  0  0  0  0  0  0
    0.9845    2.1909    2.2756 H   0  0  0  0  0  0  0  0  0  0  0  0
    0.1030    0.0228    2.9722 H   0  0  0  0  0  0  0  0  0  0  0  0
   -1.6807    1.0942   -1.0990 C   0  0  0  0  0  0  0  0  0  0  0  0
   -1.3030    2.1889   -1.8710 C   0  0  0  0  0  0  0  0  0  0  0  0
   -2.2593    3.0503   -2.3729 C   0  0  0  0  0  0  0  0  0  0  0  0
   -3.6019    2.8292   -2.1111 C   0  0  0  0  0  0  0  0  0  0  0  0
   -3.9837    1.7376   -1.3472 C   0  0  0  0  0  0  0  0  0  0  0  0
   -3.0319    0.8726   -0.8441 C   0  0  0  0  0  0  0  0  0  0  0  0
   -3.3150    0.0225   -0.2442 H   0  0  0  0  0  0  0  0  0  0  0  0
   -5.0309    1.5635   -1.1405 H   0  0  0  0  0  0  0  0  0  0  0  0
   -4.3495    3.5068   -2.5017 H   0  0  0  0  0  0  0  0  0  0  0  0
   -1.9604    3.9021   -2.9694 H   0  0  0  0  0  0  0  0  0  0  0  0
   -0.2518    2.3443   -2.0567 H   0  0  0  0  0  0  0  0  0  0  0  0
    3.1539    0.2279   -1.5964 H   0  0  0  0  0  0  0  0  0  0  0  0
    4.7607   -1.4215   -0.6958 H   0  0  0  0  0  0  0  0  0  0  0  0
    4.0231   -3.1331    0.9388 H   0  0  0  0  0  0  0  0  0  0  0  0
    0.5827    2.0862    5.8230 C   0  0  0  0  0  0  0  0  0  0  0  0
    1.1285    1.1270    6.7452 C   0  0  0  0  0  0  0  0  0  0  0  0
   -0.8120    2.2349    5.5677 C   0  0  0  0  0  0  0  0  0  0  0  0
    1.4803    2.9724    5.1962 C   0  0  0  0  0  0  0  0  0  0  0  0
    2.5134    0.8308    6.6953 C   0  0  0  0  0  0  0  0  0  0  0  0
   -1.2875    3.4894    5.0917 C   0  0  0  0  0  0  0  0  0  0  0  0
    2.8662    2.6829    5.1983 C   0  0  0  0  0  0  0  0  0  0  0  0
    0.9794    4.1500    4.5827 C   0  0  0  0  0  0  0  0  0  0  0  0
    3.3569    1.5956    5.8504 C   0  0  0  0  0  0  0  0  0  0  0  0
   -0.3439    4.4408    4.6195 C   0  0  0  0  0  0  0  0  0  0  0  0
    0.3757    0.5590    7.7893 C   0  0  0  0  0  0  0  0  0  0  0  0
   -1.7641    1.1882    5.7297 C   0  0  0  0  0  0  0  0  0  0  0  0
    3.0335   -0.1690    7.5360 C   0  0  0  0  0  0  0  0  0  0  0  0
   -2.6585    3.7502    5.0680 C   0  0  0  0  0  0  0  0  0  0  0  0
    0.9153   -0.3813    8.6275 C   0  0  0  0  0  0  0  0  0  0  0  0
   -3.1295    1.5137    5.7877 C   0  0  0  0  0  0  0  0  0  0  0  0
    2.2435   -0.7870    8.4674 C   0  0  0  0  0  0  0  0  0  0  0  0
   -3.5638    2.7929    5.4874 C   0  0  0  0  0  0  0  0  0  0  0  0
    3.5249    3.3359    4.6408 H   0  0  0  0  0  0  0  0  0  0  0  0
    1.6860    4.8359    4.1341 H   0  0  0  0  0  0  0  0  0  0  0  0
    4.4055    1.3375    5.7951 H   0  0  0  0  0  0  0  0  0  0  0  0
   -0.7174    5.3813    4.2382 H   0  0  0  0  0  0  0  0  0  0  0  0
    4.0793   -0.4299    7.4439 H   0  0  0  0  0  0  0  0  0  0  0  0
   -3.0101    4.7093    4.7187 H   0  0  0  0  0  0  0  0  0  0  0  0
    2.6482   -1.5614    9.1038 H   0  0  0  0  0  0  0  0  0  0  0  0
   -4.6229    2.9949    5.5212 H   0  0  0  0  0  0  0  0  0  0  0  0
   -4.0990    0.5925    6.1314 O   0  0  0  0  0  0  0  0  0  0  0  0
   -3.6587   -0.6628    6.4819 C   0  0  0  0  0  0  0  0  0  0  0  0
   -2.3520   -1.0497    6.2514 C   0  0  0  0  0  0  0  0  0  0  0  0
   -1.4268   -0.1379    5.7434 N   0  0  0  0  0  0  0  0  0  0  0  0
   -1.8904   -2.3451    6.5608 C   0  0  0  0  0  0  0  0  0  0  0  0
   -4.5442   -1.5551    7.0722 C   0  0  0  0  0  0  0  0  0  0  0  0
   -4.0990   -2.8256    7.4063 C   0  0  0  0  0  0  0  0  0  0  0  0
   -2.8020   -3.2266    7.1542 C   0  0  0  0  0  0  0  0  0  0  0  0
   -0.6174   -2.7175    6.2775 N   0  0  0  0  0  0  0  0  0  0  0  0
    0.1223   -1.8067    5.6388 C   0  0  0  0  0  0  0  0  0  0  0  0
   -0.2013   -0.5630    5.3646 N   0  0  0  0  0  0  0  0  0  0  0  0
    0.3123   -0.8154    9.4128 H   0  0  0  0  0  0  0  0  0  0  0  0
   -0.6439    0.8849    7.9432 H   0  0  0  0  0  0  0  0  0  0  0  0
    1.4725   -2.2072    5.2238 C   0  0  0  0  0  0  0  0  0  0  0  0
    1.9824   -3.4372    5.6288 C   0  0  0  0  0  0  0  0  0  0  0  0
    3.2523   -3.8250    5.2490 C   0  0  0  0  0  0  0  0  0  0  0  0
    4.0284   -2.9921    4.4594 C   0  0  0  0  0  0  0  0  0  0  0  0
    3.5292   -1.7644    4.0564 C   0  0  0  0  0  0  0  0  0  0  0  0
    2.2616   -1.3714    4.4377 C   0  0  0  0  0  0  0  0  0  0  0  0
    1.8715   -0.4129    4.1345 H   0  0  0  0  0  0  0  0  0  0  0  0
    4.1288   -1.1130    3.4355 H   0  0  0  0  0  0  0  0  0  0  0  0
    5.0204   -3.3000    4.1569 H   0  0  0  0  0  0  0  0  0  0  0  0
    3.6417   -4.7840    5.5647 H   0  0  0  0  0  0  0  0  0  0  0  0
    1.3568   -4.0709    6.2376 H   0  0  0  0  0  0  0  0  0  0  0  0
   -2.4651   -4.2211    7.4001 H   0  0  0  0  0  0  0  0  0  0  0  0
   -4.7902   -3.5174    7.8680 H   0  0  0  0  0  0  0  0  0  0  0  0
   -5.5603   -1.2445    7.2564 H   0  0  0  0  0  0  0  0  0  0  0  0
  1  2  1  0  0  0  0
  1  3  1  0  0  0  0
  1  4  2  0  0  0  0
  2  5  1  0  0  0  0
  2 11  2  0  0  0  0
  3  6  1  0  0  0  0
  3 12  2  0  0  0  0
  4  7  1  0  0  0  0
  4  8  1  0  0  0  0
  5  9  1  0  0  0  0
  5 13  2  0  0  0  0
  6 10  1  0  0  0  0
  6 14  2  0  0  0  0
  7  9  2  0  0  0  0
  7 19  1  0  0  0  0
  8 10  2  0  0  0  0
  8 20  1  0  0  0  0
  9 21  1  0  0  0  0
 10 22  1  0  0  0  0
 11 15  1  0  0  0  0
 11 39  1  0  0  0  0
 12 16  1  0  0  0  0
 13 17  1  0  0  0  0
 13 23  1  0  0  0  0
 14 18  1  0  0  0  0
 14 24  1  0  0  0  0
 15 17  2  0  0  0  0
 15 38  1  0  0  0  0
 16 18  2  0  0  0  0
 16 27  1  0  0  0  0
 17 25  1  0  0  0  0
 18 26  1  0  0  0  0
 27 28  1  0  0  0  0
 28 29  2  0  0  0  0
 28 32  1  0  0  0  0
 29 30  1  0  0  0  0
 29 31  1  0  0  0  0
 30 12  1  0  0  0  0
 31 35  1  0  0  0  0
 32 33  2  0  0  0  0
 32 53  1  0  0  0  0
 33 34  1  0  0  0  0
 33 52  1  0  0  0  0
 34 31  2  0  0  0  0
 34 51  1  0  0  0  0
 35 36  1  0  0  0  0
 36 37  2  0  0  0  0
 36 40  1  0  0  0  0
 37 30  1  0  0  0  0
 40 41  2  0  0  0  0
 41 42  1  0  0  0  0
 41 50  1  0  0  0  0
 42 43  2  0  0  0  0
 42 49  1  0  0  0  0
 43 44  1  0  0  0  0
 43 48  1  0  0  0  0
 44 45  2  0  0  0  0
 44 47  1  0  0  0  0
 45 40  1  0  0  0  0
 45 46  1  0  0  0  0
 54 55  1  0  0  0  0
 54 56  1  0  0  0  0
 54 57  2  0  0  0  0
 55 58  1  0  0  0  0
 55 64  2  0  0  0  0
 56 59  1  0  0  0  0
 56 65  2  0  0  0  0
 57 60  1  0  0  0  0
 57 61  1  0  0  0  0
 58 62  1  0  0  0  0
 58 66  2  0  0  0  0
 59 63  1  0  0  0  0
 59 67  2  0  0  0  0
 60 62  2  0  0  0  0
 60 72  1  0  0  0  0
 61 63  2  0  0  0  0
 61 73  1  0  0  0  0
 62 74  1  0  0  0  0
 63 75  1  0  0  0  0
 64 68  1  0  0  0  0
 64 92  1  0  0  0  0
 65 69  1  0  0  0  0
 66 70  1  0  0  0  0
 66 76  1  0  0  0  0
 67 71  1  0  0  0  0
 67 77  1  0  0  0  0
 68 70  2  0  0  0  0
 68 91  1  0  0  0  0
 69 71  2  0  0  0  0
 69 80  1  0  0  0  0
 70 78  1  0  0  0  0
 71 79  1  0  0  0  0
[...]
   102   1 H        0.925     0.017     2.784     2.609
   103   1 H        0.926     0.050     2.316     2.380
   104   1 H        0.926     0.034     2.530     2.487
   105   1 H        0.925     0.020     2.728     2.583
   106   1 H        0.926     0.031     2.576     2.510

 Mol. C6AA /au·bohr⁶  :     181846.774516
 Mol. C8AA /au·bohr⁸  :    4638089.139660
 Mol. α(0) /au        :        688.093550


Wiberg/Mayer (AO) data.
largest (>0.10) Wiberg bond orders for each atom

 ---------------------------------------------------------------------------
     #   Z sym  total        # sym  WBO       # sym  WBO       # sym  WBO
 ---------------------------------------------------------------------------
     1   6 C    3.984 --     4 C    1.316     3 C    1.229     2 C    1.184
     2   6 C    3.986 --    11 C    1.306     5 C    1.268     1 C    1.184
     3   6 C    3.968 --     6 C    1.248     1 C    1.229    12 C    1.221
     4   6 C    3.981 --     1 C    1.316     7 C    1.240     8 C    1.232
     5   6 C    3.985 --    13 C    1.300     2 C    1.268     9 C    1.231
     6   6 C    3.981 --    14 C    1.324     3 C    1.248    10 C    1.226
     7   6 C    3.979 --     9 C    1.601     4 C    1.240    19 H    0.968
     8   6 C    3.979 --    10 C    1.610     4 C    1.232    20 H    0.968
     9   6 C    3.973 --     7 C    1.601     5 C    1.231    21 H    0.968
    10   6 C    3.978 --     8 C    1.610     6 C    1.226    22 H    0.967
    11   6 C    3.990 --    15 C    1.526     2 C    1.306    39 H    0.957
                            13 C    0.110
    12   6 C    3.960 --    16 C    1.301     3 C    1.221    30 N    1.141
    13   6 C    3.983 --    17 C    1.529     5 C    1.300    23 H    0.969
                            11 C    0.110
    14   6 C    3.938 --    18 C    1.443     6 C    1.324    24 H    0.968
    15   6 C    3.986 --    11 C    1.526    17 C    1.343    38 H    0.970
    16   6 C    3.896 --    18 C    1.372    12 C    1.301    27 O    1.015
    17   6 C    3.983 --    13 C    1.529    15 C    1.343    25 H    0.971
    18   6 C    3.965 --    14 C    1.443    16 C    1.372    26 H    0.967
    19   1 H    0.999 --     7 C    0.968
    20   1 H    0.998 --     8 C    0.968
    21   1 H    0.998 --     9 C    0.968
    22   1 H    0.998 --    10 C    0.967
    23   1 H    0.999 --    13 C    0.969
    24   1 H    0.998 --    14 C    0.968
    25   1 H    0.999 --    17 C    0.971
    26   1 H    0.997 --    18 C    0.967
    27   8 O    2.268 --    28 C    1.020    16 C    1.015
    28   6 C    3.911 --    32 C    1.360    29 C    1.347    27 O    1.020
    29   6 C    3.932 --    28 C    1.347    31 C    1.250    30 N    1.065
    30   7 N    3.579 --    12 C    1.141    37 N    1.108    29 C    1.065
    31   6 C    3.974 --    34 C    1.316    29 C    1.250    35 N    1.236
    32   6 C    3.962 --    33 C    1.418    28 C    1.360    53 H    0.970
    33   6 C    3.973 --    34 C    1.458    32 C    1.418    52 H    0.971
    34   6 C    3.961 --    33 C    1.458    31 C    1.316    51 H    0.970
    35   7 N    2.882 --    36 C    1.334    31 C    1.236
    36   6 C    3.959 --    37 N    1.433    35 N    1.334    40 C    1.041
    37   7 N    2.920 --    36 C    1.433    30 N    1.108
    38   1 H    0.999 --    15 C    0.970
    39   1 H    0.998 --    11 C    0.957
    40   6 C    3.984 --    41 C    1.385    45 C    1.381    36 C    1.041
                            43 C    0.103
    41   6 C    3.983 --    42 C    1.455    40 C    1.385    50 H    0.966
                            44 C    0.105
    42   6 C    3.991 --    41 C    1.455    43 C    1.432    49 H    0.971
                            45 C    0.107
    43   6 C    3.982 --    42 C    1.432    44 C    1.429    48 H    0.972
                            40 C    0.103
    44   6 C    3.991 --    45 C    1.458    43 C    1.429    47 H    0.971
                            41 C    0.105
    45   6 C    3.984 --    44 C    1.458    40 C    1.381    46 H    0.966
                            42 C    0.107
    46   1 H    0.998 --    45 C    0.966
    47   1 H    0.999 --    44 C    0.971
    48   1 H    0.999 --    43 C    0.972
    49   1 H    0.999 --    42 C    0.971
    50   1 H    0.997 --    41 C    0.966
    51   1 H    0.998 --    34 C    0.970
    52   1 H    0.998 --    33 C    0.971
    53   1 H    0.998 --    32 C    0.970
    54   6 C    3.981 --    57 C    1.311    56 C    1.235    55 C    1.178
    55   6 C    3.985 --    64 C    1.310    58 C    1.266    54 C    1.178
    56   6 C    3.957 --    59 C    1.239    54 C    1.235    65 C    1.221
    57   6 C    3.974 --    54 C    1.311    60 C    1.245    61 C    1.227
    58   6 C    3.985 --    66 C    1.301    55 C    1.266    62 C    1.231
    59   6 C    3.979 --    67 C    1.339    56 C    1.239    63 C    1.219
    60   6 C    3.976 --    62 C    1.594    57 C    1.245    72 H    0.968
    61   6 C    3.979 --    63 C    1.618    57 C    1.227    73 H    0.968
    62   6 C    3.965 --    60 C    1.594    58 C    1.231    74 H    0.969
    63   6 C    3.974 --    61 C    1.618    59 C    1.219    75 H    0.968
    64   6 C    3.992 --    68 C    1.524    55 C    1.310    92 H    0.967
                            66 C    0.110
    65   6 C    3.961 --    69 C    1.294    56 C    1.221    83 N    1.150
    66   6 C    3.983 --    70 C    1.529    58 C    1.301    76 H    0.969
                            64 C    0.110
    67   6 C    3.919 --    71 C    1.424    59 C    1.339    77 H    0.969
    68   6 C    3.983 --    64 C    1.524    70 C    1.343    91 H    0.971
    69   6 C    3.890 --    71 C    1.384    65 C    1.294    80 O    1.014
    70   6 C    3.983 --    66 C    1.529    68 C    1.343    78 H    0.972
    71   6 C    3.959 --    67 C    1.424    69 C    1.384    79 H    0.968
    72   1 H    0.999 --    60 C    0.968
    73   1 H    0.998 --    61 C    0.968
    74   1 H    0.998 --    62 C    0.969
    75   1 H    0.998 --    63 C    0.968
    76   1 H    0.999 --    66 C    0.969
    77   1 H    0.998 --    67 C    0.969
    78   1 H    0.999 --    70 C    0.972
    79   1 H    0.997 --    71 C    0.968
    80   8 O    2.261 --    81 C    1.015    69 C    1.014
    81   6 C    3.912 --    85 C    1.362    82 C    1.349    80 O    1.015
    82   6 C    3.933 --    81 C    1.349    84 C    1.251    83 N    1.061
    83   7 N    3.592 --    65 C    1.150    90 N    1.101    82 C    1.061
    84   6 C    3.974 --    87 C    1.310    82 C    1.251    88 N    1.239
    85   6 C    3.959 --    86 C    1.415    81 C    1.362   106 H    0.970
    86   6 C    3.974 --    87 C    1.461    85 C    1.415   105 H    0.971
    87   6 C    3.961 --    86 C    1.461    84 C    1.310   104 H    0.970
    88   7 N    2.899 --    89 C    1.329    84 C    1.239
    89   6 C    3.962 --    90 N    1.436    88 N    1.329    93 C    1.041
    90   7 N    2.950 --    89 C    1.436    83 N    1.101
    91   1 H    0.999 --    68 C    0.971
    92   1 H    0.999 --    64 C    0.967
    93   6 C    3.985 --    98 C    1.383    94 C    1.382    89 C    1.041
                            96 C    0.103
    94   6 C    3.983 --    95 C    1.456    93 C    1.382   103 H    0.966
                            97 C    0.106
    95   6 C    3.991 --    94 C    1.456    96 C    1.430   102 H    0.971
                            98 C    0.106
    96   6 C    3.982 --    97 C    1.431    95 C    1.430   101 H    0.972
                            93 C    0.103
    97   6 C    3.991 --    98 C    1.456    96 C    1.431   100 H    0.971
                            94 C    0.106
    98   6 C    3.985 --    97 C    1.456    93 C    1.383    99 H    0.962
                            95 C    0.106
    99   1 H    0.998 --    98 C    0.962
   100   1 H    0.999 --    97 C    0.971
   101   1 H    0.999 --    96 C    0.972
   102   1 H    0.999 --    95 C    0.971
   103   1 H    0.997 --    94 C    0.966
   104   1 H    0.998 --    87 C    0.970
   105   1 H    0.999 --    86 C    0.971
   106   1 H    0.998 --    85 C    0.970
 ---------------------------------------------------------------------------

Topologies differ in bond orders
Writing corrected topology to xtbtopo.mol

molecular dipole:
                 x           y           z       tot (Debye)
 q only:        1.062       0.975      -6.267
   full:        0.970       0.868      -6.034      15.691
molecular quadrupole (traceless):
                xx          xy          yy          xz          yz          zz
 q only:       27.250       4.789      31.962      17.564      13.625     -59.212
  q+dip:       41.523      -0.343      33.601       7.700      -0.252     -75.124
   full:       31.552       3.160      29.839      13.012      13.287     -61.391

           -------------------------------------------------
          |                Geometry Summary                 |
           -------------------------------------------------

      molecular mass/u    :      896.9905219
   center of mass at/Å    :       -0.5908527      -0.2026018       3.5889489
  moments of inertia/u·Å² :        0.9716299E+04   0.1156632E+05   0.1329499E+05
rotational constants/cm⁻¹ :        0.1734985E-02   0.1457475E-02   0.1267969E-02

 * 116 selected distances

     #   Z          #   Z                                           value/Å
     1   6 C        3   6 C                                       1.4292298 (max)
     1   6 C        4   6 C                                       1.4089702
     2   6 C        5   6 C                                       1.4161582
     3   6 C        6   6 C                                       1.4230091
     4   6 C        7   6 C                                       1.4166048
     4   6 C        8   6 C                                       1.4184540
     5   6 C        9   6 C                                       1.4171446
     7   6 C        9   6 C                                       1.3574524
     6   6 C       10   6 C                                       1.4194174
     8   6 C       10   6 C                                       1.3558218
     2   6 C       11   6 C                                       1.4064509
     3   6 C       12   6 C                                       1.4250906
     5   6 C       13   6 C                                       1.4052141
     6   6 C       14   6 C                                       1.3989090
    11   6 C       15   6 C                                       1.3689487
    12   6 C       16   6 C                                       1.4038608
    13   6 C       17   6 C                                       1.3681388
    15   6 C       17   6 C                                       1.3971189
    14   6 C       18   6 C                                       1.3789592
    16   6 C       18   6 C                                       1.3856157
     7   6 C       19   1 H                                       1.0818820
     8   6 C       20   1 H                                       1.0814968
     9   6 C       21   1 H                                       1.0813953
    10   6 C       22   1 H                                       1.0805200
    13   6 C       23   1 H                                       1.0816899
    14   6 C       24   1 H                                       1.0787240
    17   6 C       25   1 H                                       1.0806356
    18   6 C       26   1 H                                       1.0779976
    16   6 C       27   8 O                                       1.3803625
    27   8 O       28   6 C                                       1.3732859
    28   6 C       29   6 C                                       1.3833040
    12   6 C       30   7 N                                       1.3718132
    29   6 C       30   7 N                                       1.3947142
    29   6 C       31   6 C                                       1.4111372
    28   6 C       32   6 C                                       1.3893447
    32   6 C       33   6 C                                       1.3872077
    31   6 C       34   6 C                                       1.3995887
    33   6 C       34   6 C                                       1.3818004
    31   6 C       35   7 N                                       1.3580908
    35   7 N       36   6 C                                       1.3354927
    30   7 N       37   7 N                                       1.3505275
    36   6 C       37   7 N                                       1.3150241
    15   6 C       38   1 H                                       1.0803806
    11   6 C       39   1 H                                       1.0786201
    40   6 C       41   6 C                                       1.3918194
    41   6 C       42   6 C                                       1.3814424
    42   6 C       43   6 C                                       1.3856585
    43   6 C       44   6 C                                       1.3859849
    40   6 C       45   6 C                                       1.3928118
    44   6 C       45   6 C                                       1.3809457
    45   6 C       46   1 H                                       1.0782976
    44   6 C       47   1 H                                       1.0814750
    43   6 C       48   1 H                                       1.0819702
    42   6 C       49   1 H                                       1.0819611
    41   6 C       50   1 H                                       1.0787272
    34   6 C       51   1 H                                       1.0783874
    33   6 C       52   1 H                                       1.0812632
    32   6 C       53   1 H                                       1.0778485 (min)
    54   6 C       56   6 C                                       1.4256632
    54   6 C       57   6 C                                       1.4085801
    55   6 C       58   6 C                                       1.4170788
    56   6 C       59   6 C                                       1.4235267
    57   6 C       60   6 C                                       1.4157903
    57   6 C       61   6 C                                       1.4192021
    58   6 C       62   6 C                                       1.4178246
    60   6 C       62   6 C                                       1.3594552
    59   6 C       63   6 C                                       1.4207747
    61   6 C       63   6 C                                       1.3552995
    55   6 C       64   6 C                                       1.4069889
    56   6 C       65   6 C                                       1.4241992
    58   6 C       66   6 C                                       1.4059779
    59   6 C       67   6 C                                       1.3957854
    64   6 C       68   6 C                                       1.3703245
    65   6 C       69   6 C                                       1.4048567
    66   6 C       70   6 C                                       1.3687521
    68   6 C       70   6 C                                       1.3980063
    67   6 C       71   6 C                                       1.3826732
    69   6 C       71   6 C                                       1.3839596
    60   6 C       72   1 H                                       1.0823093
    61   6 C       73   1 H                                       1.0820829
    62   6 C       74   1 H                                       1.0813413
    63   6 C       75   1 H                                       1.0814107
    66   6 C       76   1 H                                       1.0817913
    67   6 C       77   1 H                                       1.0796224
    70   6 C       78   1 H                                       1.0808775
    71   6 C       79   1 H                                       1.0786927
    69   6 C       80   8 O                                       1.3807731
    80   8 O       81   6 C                                       1.3756518
    81   6 C       82   6 C                                       1.3821058
    65   6 C       83   7 N                                       1.3684320
    82   6 C       83   7 N                                       1.3947968
Note: The following floating-point exceptions are signalling: IEEE_UNDERFLOW_FLAG
normal termination of xtb
    82   6 C       84   6 C                                       1.4095616
    81   6 C       85   6 C                                       1.3888432
    85   6 C       86   6 C                                       1.3871270
    84   6 C       87   6 C                                       1.4000648
    86   6 C       87   6 C                                       1.3808205
    84   6 C       88   7 N                                       1.3562693
    88   7 N       89   6 C                                       1.3358722
    83   7 N       90   7 N                                       1.3513240
    89   6 C       90   7 N                                       1.3140437
    68   6 C       91   1 H                                       1.0810527
    64   6 C       92   1 H                                       1.0814832
    93   6 C       94   6 C                                       1.3918092
    94   6 C       95   6 C                                       1.3809511
    95   6 C       96   6 C                                       1.3855048
    96   6 C       97   6 C                                       1.3851290
    93   6 C       98   6 C                                       1.3924834
    97   6 C       98   6 C                                       1.3808561
    98   6 C       99   1 H                                       1.0783186
    97   6 C      100   1 H                                       1.0813990
    96   6 C      101   1 H                                       1.0818398
    95   6 C      102   1 H                                       1.0821862
    94   6 C      103   1 H                                       1.0786736
    87   6 C      104   1 H                                       1.0784116
    86   6 C      105   1 H                                       1.0813756
    85   6 C      106   1 H                                       1.0782944

 * 5 distinct bonds (by element types)

   Z      Z             #   av. dist./Å        max./Å        min./Å
   1 H    6 C          36     1.0804010     1.0823093     1.0778485
   6 C    6 C          64     1.3959623     1.4292298     1.3552995
   6 C    7 N          10     1.3544549     1.3947968     1.3140437
   7 N    7 N           2     1.3509257     1.3513240     1.3505275
   6 C    8 O           4     1.3775183     1.3807731     1.3732859


optimized geometry written to: xtbopt.mol


           -------------------------------------------------
          | TOTAL ENERGY             -177.130947039812 Eh   |
          | GRADIENT NORM               0.000290210048 Eh/α |
          | HOMO-LUMO GAP               0.889995650936 eV   |
           -------------------------------------------------
########################################################################
[WARNING] Runtime exception occurred
-1- restart_readRestart: Number of electron missmatch in restart file.
########################################################################

------------------------------------------------------------------------
 * finished run on 2024/11/01 at 14:45:18.189     
------------------------------------------------------------------------
 total:
 * wall-time:     0 d,  0 h,  0 min, 22.758 sec
 *  cpu-time:     0 d,  0 h,  1 min, 12.523 sec
 * ratio c/w:     3.187 speedup
 SCF:
 * wall-time:     0 d,  0 h,  0 min,  1.150 sec
 *  cpu-time:     0 d,  0 h,  0 min,  4.048 sec
 * ratio c/w:     3.519 speedup
 ANC optimizer:
 * wall-time:     0 d,  0 h,  0 min, 21.587 sec
 *  cpu-time:     0 d,  0 h,  1 min,  8.442 sec
 * ratio c/w:     3.171 speedup

