      -----------------------------------------------------------      
     |                   =====================                   |     
     |                           x T B                           |     
     |                   =====================                   |     
     |                         S. Grimme                         |     
     |          Mulliken Center for Theoretical Chemistry        |     
     |                    University of Bonn                     |     
      -----------------------------------------------------------      

   * xtb version 6.6.1 (8d0f1dd) compiled by 'runner@Mac-1690902418499.local' on 2023-08-01

   xtb is free software: you can redistribute it and/or modify it under
   the terms of the GNU Lesser General Public License as published by
   the Free Software Foundation, either version 3 of the License, or
   (at your option) any later version.
   
   xtb is distributed in the hope that it will be useful,
   but WITHOUT ANY WARRANTY; without even the implied warranty of
   MERCHANTABILITY or FITNESS FOR A PARTICULAR PURPOSE.  See the
   GNU Lesser General Public License for more details.
   
   Cite this work as:
   * C. Bannwarth, E. Caldeweyher, S. Ehlert, A. Hansen, P. Pracht,
     J. Seibert, S. Spicher, S. Grimme, WIREs Comput. Mol. Sci., 2020, 11,
     e01493. DOI: 10.1002/wcms.1493
   
   for GFN2-xTB:
   * C. Bannwarth, S. Ehlert and S. Grimme., J. Chem. Theory Comput., 2019,
     15, 1652-1671. DOI: 10.1021/acs.jctc.8b01176
   for GFN1-xTB:
   * S. Grimme, C. Bannwarth, P. Shushkov, J. Chem. Theory Comput., 2017,
     13, 1989-2009. DOI: 10.1021/acs.jctc.7b00118
   for GFN0-xTB:
   * P. Pracht, E. Caldeweyher, S. Ehlert, S. Grimme, ChemRxiv, 2019, preprint.
     DOI: 10.26434/chemrxiv.8326202.v1
   for GFN-FF:
   * S. Spicher and S. Grimme, Angew. Chem. Int. Ed., 2020, 59, 15665-15673.
     DOI: 10.1002/anie.202004239
   
   for ALPB and GBSA implicit solvation:
   * S. Ehlert, M. Stahn, S. Spicher, S. Grimme, J. Chem. Theory Comput.,
     2021, 17, 4250-4261. DOI: 10.1021/acs.jctc.1c00471
   
   for DFT-D4:
   * E. Caldeweyher, C. Bannwarth and S. Grimme, J. Chem. Phys., 2017,
     147, 034112. DOI: 10.1063/1.4993215
   * E. Caldeweyher, S. Ehlert, A. Hansen, H. Neugebauer, S. Spicher,
     C. Bannwarth and S. Grimme, J. Chem. Phys., 2019, 150, 154122.
     DOI: 10.1063/1.5090222
   * E. Caldeweyher, J.-M. Mewes, S. Ehlert and S. Grimme, Phys. Chem. Chem. Phys.
     2020, 22, 8499-8512. DOI: 10.1039/D0CP00502A
   
   for sTDA-xTB:
   * S. Grimme and C. Bannwarth, J. Chem. Phys., 2016, 145, 054103.
     DOI: 10.1063/1.4959605
   
   in the mass-spec context:
   * V. Asgeirsson, C. Bauer and S. Grimme, Chem. Sci., 2017, 8, 4879.
     DOI: 10.1039/c7sc00601b
   * J. Koopman and S. Grimme, ACS Omega 2019, 4, 12, 15120-15133.
     DOI: 10.1021/acsomega.9b02011
   
   for metadynamics refer to:
   * S. Grimme, J. Chem. Theory Comput., 2019, 155, 2847-2862
     DOI: 10.1021/acs.jctc.9b00143
   
   for SPH calculations refer to:
   * S. Spicher and S. Grimme, J. Chem. Theory Comput., 2021, 17, 1701-1714
     DOI: 10.1021/acs.jctc.0c01306
   
   with help from (in alphabetical order)
   P. Atkinson, C. Bannwarth, F. Bohle, G. Brandenburg, E. Caldeweyher
   M. Checinski, S. Dohm, S. Ehlert, S. Ehrlich, I. Gerasimov, C. Hölzer
   A. Katbashev, J. Koopman, C. Lavigne, S. Lehtola, F. März, M. Müller,
   F. Musil, H. Neugebauer, J. Pisarek, C. Plett, P. Pracht, F. Pultar,
   J. Seibert, P. Shushkov, S. Spicher, M. Stahn, M. Steiner, T. Strunk,
   J. Stückrath, T. Rose, and J. Unsleber
   
 * started run on 2024/11/01 at 14:02:03.193     

           -------------------------------------------------
          |                Calculation Setup                |
           -------------------------------------------------

          program call               : xtb opt_radical_Blatter1.mol --gfn2 --sp --chrg -1 --uhf 1
          coordinate file            : opt_radical_Blatter1.mol
          omp threads                :                     8

   ID    Z sym.   atoms
    1    6 C      1-18, 28, 29, 31-34, 36, 40-45
    2    1 H      19-26, 38, 39, 46-53
    3    8 O      27
    4    7 N      30, 35, 37

           -------------------------------------------------
          |                 G F N 2 - x T B                 |
           -------------------------------------------------

        Reference                      10.1021/acs.jctc.8b01176
      * Hamiltonian:
        H0-scaling (s, p, d)           1.850000    2.230000    2.230000
        zeta-weighting                 0.500000
      * Dispersion:
        s8                             2.700000
        a1                             0.520000
        a2                             5.000000
        s9                             5.000000
      * Repulsion:
        kExp                           1.500000    1.000000
        rExp                           1.000000
      * Coulomb:
        alpha                          2.000000
        third order                    shell-resolved
        anisotropic                    true
        a3                             3.000000
        a5                             4.000000
        cn-shift                       1.200000
        cn-exp                         4.000000
        max-rad                        5.000000

q/qsh data taken from xtbrestart
CAMM data taken from xtbrestart

          ...................................................
          :                      SETUP                      :
          :.................................................:
          :  # basis functions                 158          :
          :  # atomic orbitals                 158          :
          :  # shells                           88          :
          :  # electrons                       164          :
          :  max. iterations                   250          :
          :  Hamiltonian                  GFN2-xTB          :
          :  restarted?                       true          :
          :  GBSA solvation                  false          :
          :  PC potential                    false          :
          :  electronic temp.          300.0000000     K    :
          :  accuracy                    1.0000000          :
          :  -> integral cutoff          0.2500000E+02      :
          :  -> integral neglect         0.1000000E-07      :
          :  -> SCF convergence          0.1000000E-05 Eh   :
          :  -> wf. convergence          0.1000000E-03 e    :
          :  Broyden damping             0.4000000          :
          ...................................................

 iter      E             dE          RMSdq      gap      omega  full diag
   1    -90.1945716 -0.901946E+02  0.671E-01    1.17       0.0  T
   2    -90.2016321 -0.706052E-02  0.609E-01    0.62       1.0  T
   3    -90.2211060 -0.194739E-01  0.316E-01    0.82       1.0  T
   4    -90.2223144 -0.120836E-02  0.228E-01    0.70       1.0  T
   5    -90.2228145 -0.500124E-03  0.147E-01    0.73       1.0  T
   6    -90.2236750 -0.860560E-03  0.381E-02    0.73       1.0  T
   7    -90.2237637 -0.886411E-04  0.130E-02    0.74       1.1  T
   8    -90.2237748 -0.111392E-04  0.444E-03    0.73       3.1  T
   9    -90.2237752 -0.345685E-06  0.234E-03    0.73       5.9  T
  10    -90.2237752 -0.476552E-07  0.922E-04    0.73      14.9  T
  11    -90.2237753 -0.380219E-07  0.351E-04    0.73      39.1  T

   *** convergence criteria satisfied after 11 iterations ***

         #    Occupation            Energy/Eh            Energy/eV
      -------------------------------------------------------------
         1        2.0000           -0.6077157             -16.5368
       ...           ...                  ...                  ...
        76        2.0000           -0.2757983              -7.5049
        77        2.0000           -0.2644711              -7.1966
        78        2.0000           -0.2602607              -7.0821
        79        2.0000           -0.2542374              -6.9182
        80        2.0000           -0.2378716              -6.4728
        81        2.0000           -0.2162244              -5.8838
        82        2.0000           -0.1741773              -4.7396 (HOMO)
        83        0.0000           -0.1472311              -4.0064 (LUMO)
        84                         -0.1405923              -3.8257
        85                         -0.1350252              -3.6742
        86                         -0.1131390              -3.0787
        87                         -0.1092416              -2.9726
       ...                                ...                  ...
       158                          0.8334201              22.6785
      -------------------------------------------------------------
                  HL-Gap            0.0269462 Eh            0.7332 eV
             Fermi-level           -0.1607046 Eh           -4.3730 eV

 SCC (total)                   0 d,  0 h,  0 min,  0.210 sec
 SCC setup                      ...        0 min,  0.000 sec (  0.061%)
 Dispersion                     ...        0 min,  0.000 sec (  0.156%)
 classical contributions        ...        0 min,  0.000 sec (  0.043%)
 integral evaluation            ...        0 min,  0.002 sec (  0.937%)
 iterations                     ...        0 min,  0.195 sec ( 92.747%)
 molecular gradient             ...        0 min,  0.009 sec (  4.289%)
 printout                       ...        0 min,  0.004 sec (  1.761%)

         :::::::::::::::::::::::::::::::::::::::::::::::::::::
         ::                     SUMMARY                     ::
         :::::::::::::::::::::::::::::::::::::::::::::::::::::
         :: total energy             -88.659668847228 Eh    ::
         :: gradient norm              0.074543732504 Eh/a0 ::
         :: HOMO-LUMO gap              0.733242936484 eV    ::
         ::.................................................::
         :: SCC energy               -90.223775253885 Eh    ::
         :: -> isotropic ES            0.107598458416 Eh    ::
         :: -> anisotropic ES          0.023087368646 Eh    ::
         :: -> anisotropic XC          0.046442156262 Eh    ::
         :: -> dispersion             -0.089068089241 Eh    ::
         :: repulsion energy           1.562040248931 Eh    ::
         :: add. restraining           0.000000000000 Eh    ::
         :: total charge              -1.000059883012 e     ::
         :::::::::::::::::::::::::::::::::::::::::::::::::::::

           -------------------------------------------------
          |                Property Printout                |
           -------------------------------------------------

    * Orbital Energies and Occupations

         #    Occupation            Energy/Eh            Energy/eV
      -------------------------------------------------------------
         1        2.0000           -0.6077157             -16.5368
       ...           ...                  ...                  ...
        70        2.0000           -0.3006494              -8.1811
        71        2.0000           -0.2998237              -8.1586
        72        2.0000           -0.2965005              -8.0682
        73        2.0000           -0.2957641              -8.0482
        74        2.0000           -0.2904348              -7.9031
        75        2.0000           -0.2823151              -7.6822
        76        2.0000           -0.2757983              -7.5049
        77        2.0000           -0.2644711              -7.1966
        78        2.0000           -0.2602607              -7.0821
        79        2.0000           -0.2542374              -6.9182
        80        2.0000           -0.2378716              -6.4728
        81        2.0000           -0.2162244              -5.8838
        82        2.0000           -0.1741773              -4.7396 (HOMO)
        83        0.0000           -0.1472311              -4.0064 (LUMO)
        84                         -0.1405923              -3.8257
        85                         -0.1350252              -3.6742
        86                         -0.1131390              -3.0787
        87                         -0.1092416              -2.9726
        88                         -0.0986850              -2.6854
        89                         -0.0914800              -2.4893
        90                         -0.0802248              -2.1830
        91                         -0.0621320              -1.6907
        92                         -0.0483996              -1.3170
        93                         -0.0298511              -0.8123
       ...                                ...                  ...
       158                          0.8334201              22.6785
      -------------------------------------------------------------
                  HL-Gap            0.0269462 Eh            0.7332 eV
             Fermi-level           -0.1607046 Eh           -4.3730 eV

     #   Z          covCN         q      C6AA      α(0)
     1   6 C        2.981     0.007    27.852     8.657
     2   6 C        2.984     0.018    27.599     8.618
     3   6 C        2.983    -0.018    28.453     8.750
     4   6 C        2.988    -0.005    28.134     8.701
     5   6 C        2.989     0.009    27.806     8.650
     6   6 C        2.987    -0.007    28.191     8.710
     7   6 C        2.916    -0.046    29.139     8.852
     8   6 C        2.916    -0.046    29.149     8.853
     9   6 C        2.915    -0.050    29.232     8.866
    10   6 C        2.916    -0.046    29.154     8.854
    11   6 C        2.920    -0.026    28.642     8.776
    12   6 C        2.930     0.015    27.668     8.626
    13   6 C        2.922    -0.040    28.999     8.831
    14   6 C        2.921    -0.072    29.797     8.951
    15   6 C        2.917    -0.036    28.901     8.816
    16   6 C        2.884     0.107    25.627     8.299
    17   6 C        2.917    -0.034    28.856     8.809
    18   6 C        2.913    -0.074    29.839     8.957
    19   1 H        0.926     0.004     2.992     2.705
    20   1 H        0.926     0.004     2.995     2.706
    21   1 H        0.926     0.004     2.992     2.705
    22   1 H        0.926     0.005     2.973     2.696
    23   1 H        0.926     0.009     2.907     2.666
    24   1 H        0.926     0.003     3.011     2.713
    25   1 H        0.926     0.008     2.920     2.672
    26   1 H        0.926     0.016     2.797     2.615
    27   8 O        1.708    -0.282    18.675     5.835
    28   6 C        2.879     0.108    25.616     8.297
    29   6 C        2.944    -0.004    28.124     8.698
    30   7 N        2.857     0.064    20.125     6.663
    31   6 C        2.969     0.089    26.007     8.365
    32   6 C        2.917    -0.080    30.004     8.982
    33   6 C        2.919    -0.048    29.190     8.860
    34   6 C        2.919    -0.076    29.910     8.968
    35   7 N        1.841    -0.379    30.763     8.220
    36   6 C        2.913     0.167    24.395     8.099
    37   7 N        1.929    -0.295    28.481     7.913
    38   1 H        0.926     0.011     2.876     2.652
    39   1 H        0.925     0.018     2.770     2.603
    40   6 C        2.989     0.006    27.872     8.660
    41   6 C        2.924    -0.031    28.784     8.798
    42   6 C        2.919    -0.036    28.904     8.816
    43   6 C        2.920    -0.040    28.995     8.830
    44   6 C        2.919    -0.033    28.822     8.804
    45   6 C        2.924    -0.029    28.723     8.789
    46   1 H        0.926     0.046     2.375     2.410
    47   1 H        0.926     0.013     2.845     2.638
    48   1 H        0.926     0.006     2.962     2.691
    49   1 H        0.926     0.009     2.905     2.665
    50   1 H        0.926     0.046     2.371     2.408
    51   1 H        0.926     0.021     2.722     2.580
    52   1 H        0.926     0.006     2.960     2.690
    53   1 H        0.926     0.016     2.790     2.612

 Mol. C6AA /au·bohr⁶  :      46155.425225
 Mol. C8AA /au·bohr⁸  :    1174137.601704
 Mol. α(0) /au        :        346.602522


Wiberg/Mayer (AO) data.
largest (>0.10) Wiberg bond orders for each atom

 ---------------------------------------------------------------------------
     #   Z sym  total        # sym  WBO       # sym  WBO       # sym  WBO
 ---------------------------------------------------------------------------
     1   6 C    3.979 --     4 C    1.299     3 C    1.249     2 C    1.171
     2   6 C    3.986 --    11 C    1.314     5 C    1.265     1 C    1.171
     3   6 C    3.973 --     1 C    1.249     6 C    1.232    12 C    1.208
     4   6 C    3.973 --     1 C    1.299     7 C    1.250     8 C    1.227
     5   6 C    3.984 --    13 C    1.300     2 C    1.265     9 C    1.231
     6   6 C    3.981 --    14 C    1.344     3 C    1.232    10 C    1.218
     7   6 C    3.966 --     9 C    1.579     4 C    1.250    19 H    0.968
     8   6 C    3.979 --    10 C    1.616     4 C    1.227    20 H    0.969
     9   6 C    3.955 --     7 C    1.579     5 C    1.231    21 H    0.969
    10   6 C    3.973 --     8 C    1.616     6 C    1.218    22 H    0.969
    11   6 C    3.992 --    15 C    1.517     2 C    1.314    39 H    0.967
                            13 C    0.107
    12   6 C    3.961 --    16 C    1.293     3 C    1.208    30 N    1.153
    13   6 C    3.982 --    17 C    1.526     5 C    1.300    23 H    0.969
                            11 C    0.107
    14   6 C    3.922 --    18 C    1.403     6 C    1.344    24 H    0.970
    15   6 C    3.984 --    11 C    1.517    17 C    1.345    38 H    0.972
    16   6 C    3.906 --    18 C    1.390    12 C    1.293    27 O    1.009
    17   6 C    3.983 --    13 C    1.526    15 C    1.345    25 H    0.972
    18   6 C    3.956 --    14 C    1.403    16 C    1.390    26 H    0.970
    19   1 H    0.999 --     7 C    0.968
    20   1 H    0.999 --     8 C    0.969
    21   1 H    0.999 --     9 C    0.969
    22   1 H    0.999 --    10 C    0.969
    23   1 H    0.999 --    13 C    0.969
    24   1 H    0.999 --    14 C    0.970
    25   1 H    0.999 --    17 C    0.972
    26   1 H    0.998 --    18 C    0.970
    27   8 O    2.251 --    16 C    1.009    28 C    1.006
    28   6 C    3.916 --    29 C    1.359    32 C    1.356    27 O    1.006
    29   6 C    3.955 --    28 C    1.359    31 C    1.257    30 N    1.050
    30   7 N    3.626 --    12 C    1.153    37 N    1.092    29 C    1.050
    31   6 C    3.978 --    34 C    1.313    29 C    1.257    35 N    1.232
    32   6 C    3.963 --    33 C    1.415    28 C    1.356    53 H    0.971
    33   6 C    3.973 --    34 C    1.452    32 C    1.415    52 H    0.972
    34   6 C    3.962 --    33 C    1.452    31 C    1.313    51 H    0.971
    35   7 N    2.917 --    36 C    1.323    31 C    1.232    37 N    0.115
    36   6 C    3.965 --    37 N    1.434    35 N    1.323    40 C    1.046
    37   7 N    2.979 --    36 C    1.434    30 N    1.092    35 N    0.115
    38   1 H    0.999 --    15 C    0.972
    39   1 H    0.999 --    11 C    0.967
    40   6 C    3.982 --    41 C    1.380    45 C    1.378    36 C    1.046
                            43 C    0.101
    41   6 C    3.983 --    42 C    1.456    40 C    1.380    50 H    0.967
                            44 C    0.104
    42   6 C    3.991 --    41 C    1.456    43 C    1.429    49 H    0.972
                            45 C    0.106
    43   6 C    3.978 --    42 C    1.429    44 C    1.427    48 H    0.973
                            40 C    0.101
    44   6 C    3.990 --    45 C    1.459    43 C    1.427    47 H    0.972
                            41 C    0.104
    45   6 C    3.984 --    44 C    1.459    40 C    1.378    46 H    0.966
                            42 C    0.106
    46   1 H    0.998 --    45 C    0.966
    47   1 H    0.999 --    44 C    0.972
    48   1 H    1.000 --    43 C    0.973
    49   1 H    0.999 --    42 C    0.972
    50   1 H    0.998 --    41 C    0.967
    51   1 H    0.999 --    34 C    0.971
    52   1 H    0.999 --    33 C    0.972
    53   1 H    0.999 --    32 C    0.971
 ---------------------------------------------------------------------------

Topologies differ in bond orders
Writing corrected topology to xtbtopo.mol

molecular dipole:
                 x           y           z       tot (Debye)
 q only:        1.221       0.836       0.703
   full:        0.955       0.906       0.748       3.849
molecular quadrupole (traceless):
Note: The following floating-point exceptions are signalling: IEEE_UNDERFLOW_FLAG
normal termination of xtb
                xx          xy          yy          xz          yz          zz
 q only:      -13.260      -0.563      -5.241      -1.273       9.438      18.501
  q+dip:       -3.600      -2.204     -10.976      -3.090       0.444      14.575
   full:       -8.744      -0.351      -9.862      -1.449       7.874      18.606


           -------------------------------------------------
          | TOTAL ENERGY              -88.659668847228 Eh   |
          | GRADIENT NORM               0.074543732504 Eh/α |
          | HOMO-LUMO GAP               0.733242936484 eV   |
           -------------------------------------------------
########################################################################
[WARNING] Runtime exception occurred
-1- restart_readRestart: Number of electron missmatch in restart file.
########################################################################

------------------------------------------------------------------------
 * finished run on 2024/11/01 at 14:02:03.411     
------------------------------------------------------------------------
 total:
 * wall-time:     0 d,  0 h,  0 min,  0.218 sec
 *  cpu-time:     0 d,  0 h,  0 min,  0.633 sec
 * ratio c/w:     2.909 speedup
 SCF:
 * wall-time:     0 d,  0 h,  0 min,  0.210 sec
 *  cpu-time:     0 d,  0 h,  0 min,  0.621 sec
 * ratio c/w:     2.950 speedup

