      -----------------------------------------------------------      
     |                   =====================                   |     
     |                           x T B                           |     
     |                   =====================                   |     
     |                         S. Grimme                         |     
     |          Mulliken Center for Theoretical Chemistry        |     
     |                    University of Bonn                     |     
      -----------------------------------------------------------      

   * xtb version 6.6.1 (8d0f1dd) compiled by 'runner@Mac-1690902418499.local' on 2023-08-01

   xtb is free software: you can redistribute it and/or modify it under
   the terms of the GNU Lesser General Public License as published by
   the Free Software Foundation, either version 3 of the License, or
   (at your option) any later version.
   
   xtb is distributed in the hope that it will be useful,
   but WITHOUT ANY WARRANTY; without even the implied warranty of
   MERCHANTABILITY or FITNESS FOR A PARTICULAR PURPOSE.  See the
   GNU Lesser General Public License for more details.
   
   Cite this work as:
   * C. Bannwarth, E. Caldeweyher, S. Ehlert, A. Hansen, P. Pracht,
     J. Seibert, S. Spicher, S. Grimme, WIREs Comput. Mol. Sci., 2020, 11,
     e01493. DOI: 10.1002/wcms.1493
   
   for GFN2-xTB:
   * C. Bannwarth, S. Ehlert and S. Grimme., J. Chem. Theory Comput., 2019,
     15, 1652-1671. DOI: 10.1021/acs.jctc.8b01176
   for GFN1-xTB:
   * S. Grimme, C. Bannwarth, P. Shushkov, J. Chem. Theory Comput., 2017,
     13, 1989-2009. DOI: 10.1021/acs.jctc.7b00118
   for GFN0-xTB:
   * P. Pracht, E. Caldeweyher, S. Ehlert, S. Grimme, ChemRxiv, 2019, preprint.
     DOI: 10.26434/chemrxiv.8326202.v1
   for GFN-FF:
   * S. Spicher and S. Grimme, Angew. Chem. Int. Ed., 2020, 59, 15665-15673.
     DOI: 10.1002/anie.202004239
   
   for ALPB and GBSA implicit solvation:
   * S. Ehlert, M. Stahn, S. Spicher, S. Grimme, J. Chem. Theory Comput.,
     2021, 17, 4250-4261. DOI: 10.1021/acs.jctc.1c00471
   
   for DFT-D4:
   * E. Caldeweyher, C. Bannwarth and S. Grimme, J. Chem. Phys., 2017,
     147, 034112. DOI: 10.1063/1.4993215
   * E. Caldeweyher, S. Ehlert, A. Hansen, H. Neugebauer, S. Spicher,
     C. Bannwarth and S. Grimme, J. Chem. Phys., 2019, 150, 154122.
     DOI: 10.1063/1.5090222
   * E. Caldeweyher, J.-M. Mewes, S. Ehlert and S. Grimme, Phys. Chem. Chem. Phys.
     2020, 22, 8499-8512. DOI: 10.1039/D0CP00502A
   
   for sTDA-xTB:
   * S. Grimme and C. Bannwarth, J. Chem. Phys., 2016, 145, 054103.
     DOI: 10.1063/1.4959605
   
   in the mass-spec context:
   * V. Asgeirsson, C. Bauer and S. Grimme, Chem. Sci., 2017, 8, 4879.
     DOI: 10.1039/c7sc00601b
   * J. Koopman and S. Grimme, ACS Omega 2019, 4, 12, 15120-15133.
     DOI: 10.1021/acsomega.9b02011
   
   for metadynamics refer to:
   * S. Grimme, J. Chem. Theory Comput., 2019, 155, 2847-2862
     DOI: 10.1021/acs.jctc.9b00143
   
   for SPH calculations refer to:
   * S. Spicher and S. Grimme, J. Chem. Theory Comput., 2021, 17, 1701-1714
     DOI: 10.1021/acs.jctc.0c01306
   
   with help from (in alphabetical order)
   P. Atkinson, C. Bannwarth, F. Bohle, G. Brandenburg, E. Caldeweyher
   M. Checinski, S. Dohm, S. Ehlert, S. Ehrlich, I. Gerasimov, C. Hölzer
   A. Katbashev, J. Koopman, C. Lavigne, S. Lehtola, F. März, M. Müller,
   F. Musil, H. Neugebauer, J. Pisarek, C. Plett, P. Pracht, F. Pultar,
   J. Seibert, P. Shushkov, S. Spicher, M. Stahn, M. Steiner, T. Strunk,
   J. Stückrath, T. Rose, and J. Unsleber
   
 * started run on 2024/11/01 at 14:02:02.681     

           -------------------------------------------------
          |                Calculation Setup                |
           -------------------------------------------------

          program call               : xtb opt_anion_Blatter1.mol --gfn2 --sp --chrg -1 --uhf 0
          coordinate file            : opt_anion_Blatter1.mol
          omp threads                :                     8

   ID    Z sym.   atoms
    1    6 C      1-18, 28, 29, 31-34, 36, 40-45
    2    1 H      19-26, 38, 39, 46-53
    3    8 O      27
    4    7 N      30, 35, 37
########################################################################
[WARNING] Please study the warnings concerning your input carefully
-1- prog_main: Charge in sdf/mol input was overwritten
########################################################################

           -------------------------------------------------
          |                 G F N 2 - x T B                 |
           -------------------------------------------------

        Reference                      10.1021/acs.jctc.8b01176
      * Hamiltonian:
        H0-scaling (s, p, d)           1.850000    2.230000    2.230000
        zeta-weighting                 0.500000
      * Dispersion:
        s8                             2.700000
        a1                             0.520000
        a2                             5.000000
        s9                             5.000000
      * Repulsion:
        kExp                           1.500000    1.000000
        rExp                           1.000000
      * Coulomb:
        alpha                          2.000000
        third order                    shell-resolved
        anisotropic                    true
        a3                             3.000000
        a5                             4.000000
        cn-shift                       1.200000
        cn-exp                         4.000000
        max-rad                        5.000000

q/qsh data taken from xtbrestart
CAMM data taken from xtbrestart

          ...................................................
          :                      SETUP                      :
          :.................................................:
          :  # basis functions                 158          :
          :  # atomic orbitals                 158          :
          :  # shells                           88          :
          :  # electrons                       164          :
          :  max. iterations                   250          :
          :  Hamiltonian                  GFN2-xTB          :
          :  restarted?                       true          :
          :  GBSA solvation                  false          :
          :  PC potential                    false          :
          :  electronic temp.          300.0000000     K    :
          :  accuracy                    1.0000000          :
          :  -> integral cutoff          0.2500000E+02      :
          :  -> integral neglect         0.1000000E-07      :
          :  -> SCF convergence          0.1000000E-05 Eh   :
          :  -> wf. convergence          0.1000000E-03 e    :
          :  Broyden damping             0.4000000          :
          ...................................................

 iter      E             dE          RMSdq      gap      omega  full diag
   1    -90.1849185 -0.901849E+02  0.675E-01    1.40       0.0  T
   2    -90.1975101 -0.125916E-01  0.612E-01    0.80       1.0  T
   3    -90.2162283 -0.187182E-01  0.281E-01    0.97       1.0  T
   4    -90.2162246  0.375172E-05  0.234E-01    0.88       1.0  T
   5    -90.2171386 -0.914065E-03  0.120E-01    0.90       1.0  T
   6    -90.2175958 -0.457206E-03  0.331E-02    0.91       1.0  T
   7    -90.2176542 -0.583513E-04  0.125E-02    0.91       1.1  T
   8    -90.2176642 -0.100459E-04  0.424E-03    0.91       3.2  T
   9    -90.2176646 -0.332878E-06  0.231E-03    0.91       5.9  T
  10    -90.2176646 -0.861610E-07  0.818E-04    0.91      16.8  T
  11    -90.2176647 -0.292776E-07  0.329E-04    0.91      41.8  T

   *** convergence criteria satisfied after 11 iterations ***

         #    Occupation            Energy/Eh            Energy/eV
      -------------------------------------------------------------
         1        2.0000           -0.6034938             -16.4219
       ...           ...                  ...                  ...
        76        2.0000           -0.2757277              -7.5029
        77        2.0000           -0.2650007              -7.2110
        78        2.0000           -0.2613026              -7.1104
        79        2.0000           -0.2538257              -6.9069
        80        2.0000           -0.2375771              -6.4648
        81        2.0000           -0.2189863              -5.9589
        82        2.0000           -0.1812255              -4.9314 (HOMO)
        83                         -0.1478357              -4.0228 (LUMO)
        84                         -0.1406630              -3.8276
        85                         -0.1349124              -3.6712
        86                         -0.1138000              -3.0967
        87                         -0.1093272              -2.9749
       ...                                ...                  ...
       158                          0.8354997              22.7351
      -------------------------------------------------------------
                  HL-Gap            0.0333898 Eh            0.9086 eV
             Fermi-level           -0.1645308 Eh           -4.4771 eV

 SCC (total)                   0 d,  0 h,  0 min,  0.175 sec
 SCC setup                      ...        0 min,  0.000 sec (  0.077%)
 Dispersion                     ...        0 min,  0.000 sec (  0.223%)
 classical contributions        ...        0 min,  0.000 sec (  0.055%)
 integral evaluation            ...        0 min,  0.002 sec (  1.165%)
 iterations                     ...        0 min,  0.164 sec ( 93.634%)
 molecular gradient             ...        0 min,  0.008 sec (  4.459%)
 printout                       ...        0 min,  0.001 sec (  0.383%)

         :::::::::::::::::::::::::::::::::::::::::::::::::::::
         ::                     SUMMARY                     ::
         :::::::::::::::::::::::::::::::::::::::::::::::::::::
         :: total energy             -88.663334384484 Eh    ::
         :: gradient norm              0.000373087095 Eh/a0 ::
         :: HOMO-LUMO gap              0.908582584196 eV    ::
         ::.................................................::
         :: SCC energy               -90.217664675392 Eh    ::
         :: -> isotropic ES            0.108508163889 Eh    ::
         :: -> anisotropic ES          0.022905363943 Eh    ::
         :: -> anisotropic XC          0.046716307934 Eh    ::
         :: -> dispersion             -0.089134029640 Eh    ::
         :: repulsion energy           1.552290640486 Eh    ::
         :: add. restraining           0.000000000000 Eh    ::
         :: total charge              -1.000062312152 e     ::
         :::::::::::::::::::::::::::::::::::::::::::::::::::::

           -------------------------------------------------
          |                Property Printout                |
           -------------------------------------------------

    * Orbital Energies and Occupations

         #    Occupation            Energy/Eh            Energy/eV
      -------------------------------------------------------------
         1        2.0000           -0.6034938             -16.4219
       ...           ...                  ...                  ...
        70        2.0000           -0.3014755              -8.2036
        71        2.0000           -0.2999660              -8.1625
        72        2.0000           -0.2972447              -8.0884
        73        2.0000           -0.2965349              -8.0691
        74        2.0000           -0.2911793              -7.9234
        75        2.0000           -0.2825417              -7.6884
        76        2.0000           -0.2757277              -7.5029
        77        2.0000           -0.2650007              -7.2110
        78        2.0000           -0.2613026              -7.1104
        79        2.0000           -0.2538257              -6.9069
        80        2.0000           -0.2375771              -6.4648
        81        2.0000           -0.2189863              -5.9589
        82        2.0000           -0.1812255              -4.9314 (HOMO)
        83                         -0.1478357              -4.0228 (LUMO)
        84                         -0.1406630              -3.8276
        85                         -0.1349124              -3.6712
        86                         -0.1138000              -3.0967
        87                         -0.1093272              -2.9749
        88                         -0.0992040              -2.6995
        89                         -0.0925116              -2.5174
        90                         -0.0813623              -2.2140
        91                         -0.0625688              -1.7026
        92                         -0.0490360              -1.3343
        93                         -0.0310743              -0.8456
       ...                                ...                  ...
       158                          0.8354997              22.7351
      -------------------------------------------------------------
                  HL-Gap            0.0333898 Eh            0.9086 eV
             Fermi-level           -0.1645308 Eh           -4.4771 eV

     #   Z          covCN         q      C6AA      α(0)
     1   6 C        2.979     0.009    27.819     8.652
     2   6 C        2.984     0.019    27.584     8.615
     3   6 C        2.982    -0.020    28.511     8.759
     4   6 C        2.986    -0.005    28.142     8.702
     5   6 C        2.988     0.009    27.800     8.649
     6   6 C        2.984    -0.006    28.153     8.704
     7   6 C        2.917    -0.045    29.114     8.848
     8   6 C        2.914    -0.046    29.130     8.850
     9   6 C        2.915    -0.050    29.235     8.866
    10   6 C        2.915    -0.046    29.152     8.854
    11   6 C        2.920    -0.025    28.618     8.773
    12   6 C        2.925     0.024    27.465     8.594
    13   6 C        2.922    -0.040    29.001     8.831
    14   6 C        2.920    -0.074    29.840     8.958
    15   6 C        2.917    -0.037    28.914     8.818
    16   6 C        2.876     0.104    25.702     8.311
    17   6 C        2.916    -0.034    28.851     8.808
    18   6 C        2.913    -0.071    29.767     8.947
    19   1 H        0.925     0.004     2.997     2.707
    20   1 H        0.925     0.003     3.003     2.710
    21   1 H        0.925     0.004     2.993     2.705
    22   1 H        0.925     0.004     2.983     2.701
    23   1 H        0.925     0.008     2.915     2.670
    24   1 H        0.926     0.003     3.012     2.714
    25   1 H        0.925     0.008     2.929     2.676
    26   1 H        0.926     0.017     2.783     2.609
    27   8 O        1.706    -0.292    18.861     5.864
    28   6 C        2.874     0.111    25.546     8.286
    29   6 C        2.939    -0.002    28.081     8.691
    30   7 N        2.850     0.049    20.381     6.705
    31   6 C        2.967     0.090    25.996     8.363
    32   6 C        2.918    -0.079    29.970     8.977
    33   6 C        2.918    -0.046    29.148     8.853
    34   6 C        2.922    -0.076    29.897     8.967
    35   7 N        1.840    -0.381    30.806     8.225
    36   6 C        2.908     0.171    24.330     8.088
    37   7 N        1.923    -0.295    28.494     7.915
    38   1 H        0.925     0.011     2.877     2.652
    39   1 H        0.925     0.018     2.769     2.602
    40   6 C        2.991     0.007    27.862     8.659
    41   6 C        2.925    -0.031    28.771     8.796
    42   6 C        2.919    -0.036    28.890     8.814
    43   6 C        2.920    -0.039    28.972     8.827
    44   6 C        2.919    -0.032    28.810     8.802
    45   6 C        2.924    -0.029    28.714     8.788
    46   1 H        0.926     0.046     2.371     2.408
    47   1 H        0.925     0.013     2.843     2.637
    48   1 H        0.925     0.006     2.956     2.689
    49   1 H        0.925     0.009     2.903     2.664
    50   1 H        0.926     0.047     2.355     2.400
    51   1 H        0.926     0.021     2.720     2.579
    52   1 H        0.925     0.006     2.957     2.689
    53   1 H        0.926     0.017     2.774     2.605

 Mol. C6AA /au·bohr⁶  :      46151.334932
 Mol. C8AA /au·bohr⁸  :    1173967.577941
 Mol. α(0) /au        :        346.574742


Wiberg/Mayer (AO) data.
largest (>0.10) Wiberg bond orders for each atom

 ---------------------------------------------------------------------------
     #   Z sym  total        # sym  WBO       # sym  WBO       # sym  WBO
 ---------------------------------------------------------------------------
     1   6 C    3.981 --     4 C    1.292     3 C    1.262     2 C    1.170
     2   6 C    3.986 --    11 C    1.315     5 C    1.262     1 C    1.170
     3   6 C    3.974 --     1 C    1.262     6 C    1.219    12 C    1.203
     4   6 C    3.975 --     1 C    1.292     7 C    1.261     8 C    1.223
     5   6 C    3.985 --    13 C    1.297     2 C    1.262     9 C    1.239
     6   6 C    3.982 --    14 C    1.370     3 C    1.219    10 C    1.211
     7   6 C    3.968 --     9 C    1.570     4 C    1.261    19 H    0.968
     8   6 C    3.980 --    10 C    1.623     4 C    1.223    20 H    0.968
     9   6 C    3.957 --     7 C    1.570     5 C    1.239    21 H    0.969
    10   6 C    3.974 --     8 C    1.623     6 C    1.211    22 H    0.968
    11   6 C    3.992 --    15 C    1.517     2 C    1.315    39 H    0.966
                            13 C    0.108
    12   6 C    3.964 --    16 C    1.267     3 C    1.203    30 N    1.192
    13   6 C    3.982 --    17 C    1.528     5 C    1.297    23 H    0.969
                            11 C    0.108
    14   6 C    3.926 --    18 C    1.372     6 C    1.370    24 H    0.970
    15   6 C    3.985 --    11 C    1.517    17 C    1.344    38 H    0.972
    16   6 C    3.906 --    18 C    1.428    12 C    1.267    27 O    0.994
    17   6 C    3.984 --    13 C    1.528    15 C    1.344    25 H    0.972
    18   6 C    3.960 --    16 C    1.428    14 C    1.372    26 H    0.969
    19   1 H    0.999 --     7 C    0.968
    20   1 H    0.999 --     8 C    0.968
    21   1 H    0.999 --     9 C    0.969
    22   1 H    0.999 --    10 C    0.968
    23   1 H    0.999 --    13 C    0.969
    24   1 H    0.999 --    14 C    0.970
    25   1 H    0.999 --    17 C    0.972
    26   1 H    0.999 --    18 C    0.969
    27   8 O    2.236 --    28 C    1.007    16 C    0.994
    28   6 C    3.920 --    29 C    1.379    32 C    1.345    27 O    1.007
    29   6 C    3.953 --    28 C    1.379    31 C    1.257    30 N    1.030
    30   7 N    3.615 --    12 C    1.192    37 N    1.063    29 C    1.030
    31   6 C    3.979 --    34 C    1.314    29 C    1.257    35 N    1.235
    32   6 C    3.964 --    33 C    1.426    28 C    1.345    53 H    0.971
    33   6 C    3.977 --    34 C    1.451    32 C    1.426    52 H    0.972
    34   6 C    3.965 --    33 C    1.451    31 C    1.314    51 H    0.971
    35   7 N    2.917 --    36 C    1.316    31 C    1.235    37 N    0.120
    36   6 C    3.966 --    37 N    1.461    35 N    1.316    40 C    1.037
    37   7 N    2.971 --    36 C    1.461    30 N    1.063    35 N    0.120
    38   1 H    0.999 --    15 C    0.972
    39   1 H    0.999 --    11 C    0.966
    40   6 C    3.982 --    41 C    1.385    45 C    1.381    36 C    1.037
                            43 C    0.103
    41   6 C    3.984 --    42 C    1.455    40 C    1.385    50 H    0.966
                            44 C    0.104
    42   6 C    3.991 --    41 C    1.455    43 C    1.431    49 H    0.972
                            45 C    0.106
    43   6 C    3.981 --    42 C    1.431    44 C    1.428    48 H    0.972
                            40 C    0.103
    44   6 C    3.991 --    45 C    1.458    43 C    1.428    47 H    0.971
                            41 C    0.104
    45   6 C    3.985 --    44 C    1.458    40 C    1.381    46 H    0.966
                            42 C    0.106
    46   1 H    0.998 --    45 C    0.966
    47   1 H    0.999 --    44 C    0.971
    48   1 H    1.000 --    43 C    0.972
    49   1 H    0.999 --    42 C    0.972
    50   1 H    0.998 --    41 C    0.966
    51   1 H    0.999 --    34 C    0.971
    52   1 H    0.999 --    33 C    0.972
    53   1 H    0.999 --    32 C    0.971
 ---------------------------------------------------------------------------
Note: The following floating-point exceptions are signalling: IEEE_UNDERFLOW_FLAG
normal termination of xtb

Topologies differ in bond orders
Writing corrected topology to xtbtopo.mol

molecular dipole:
                 x           y           z       tot (Debye)
 q only:        1.276       0.805       0.721
   full:        1.011       0.884       0.790       3.960
molecular quadrupole (traceless):
                xx          xy          yy          xz          yz          zz
 q only:      -13.353      -0.419      -5.371      -1.316       9.207      18.724
  q+dip:       -3.487      -1.946     -11.138      -3.221      -0.022      14.625
   full:       -8.717      -0.121     -10.105      -1.539       7.438      18.823


           -------------------------------------------------
          | TOTAL ENERGY              -88.663334384484 Eh   |
          | GRADIENT NORM               0.000373087095 Eh/α |
          | HOMO-LUMO GAP               0.908582584196 eV   |
           -------------------------------------------------
########################################################################
[WARNING] Runtime exception occurred
-2- restart_readRestart: Multiplicity missmatch in restart file.
-1- restart_readRestart: Number of electron missmatch in restart file.
########################################################################

------------------------------------------------------------------------
 * finished run on 2024/11/01 at 14:02:02.865     
------------------------------------------------------------------------
 total:
 * wall-time:     0 d,  0 h,  0 min,  0.183 sec
 *  cpu-time:     0 d,  0 h,  0 min,  0.462 sec
 * ratio c/w:     2.518 speedup
 SCF:
 * wall-time:     0 d,  0 h,  0 min,  0.175 sec
 *  cpu-time:     0 d,  0 h,  0 min,  0.449 sec
 * ratio c/w:     2.568 speedup

