      -----------------------------------------------------------      
     |                   =====================                   |     
     |                           x T B                           |     
     |                   =====================                   |     
     |                         S. Grimme                         |     
     |          Mulliken Center for Theoretical Chemistry        |     
     |                    University of Bonn                     |     
      -----------------------------------------------------------      

   * xtb version 6.6.1 (8d0f1dd) compiled by 'runner@Mac-1690902418499.local' on 2023-08-01

   xtb is free software: you can redistribute it and/or modify it under
   the terms of the GNU Lesser General Public License as published by
   the Free Software Foundation, either version 3 of the License, or
   (at your option) any later version.
   
   xtb is distributed in the hope that it will be useful,
   but WITHOUT ANY WARRANTY; without even the implied warranty of
   MERCHANTABILITY or FITNESS FOR A PARTICULAR PURPOSE.  See the
   GNU Lesser General Public License for more details.
   
   Cite this work as:
   * C. Bannwarth, E. Caldeweyher, S. Ehlert, A. Hansen, P. Pracht,
     J. Seibert, S. Spicher, S. Grimme, WIREs Comput. Mol. Sci., 2020, 11,
     e01493. DOI: 10.1002/wcms.1493
   
   for GFN2-xTB:
   * C. Bannwarth, S. Ehlert and S. Grimme., J. Chem. Theory Comput., 2019,
     15, 1652-1671. DOI: 10.1021/acs.jctc.8b01176
   for GFN1-xTB:
   * S. Grimme, C. Bannwarth, P. Shushkov, J. Chem. Theory Comput., 2017,
     13, 1989-2009. DOI: 10.1021/acs.jctc.7b00118
   for GFN0-xTB:
   * P. Pracht, E. Caldeweyher, S. Ehlert, S. Grimme, ChemRxiv, 2019, preprint.
     DOI: 10.26434/chemrxiv.8326202.v1
   for GFN-FF:
   * S. Spicher and S. Grimme, Angew. Chem. Int. Ed., 2020, 59, 15665-15673.
     DOI: 10.1002/anie.202004239
   
   for ALPB and GBSA implicit solvation:
   * S. Ehlert, M. Stahn, S. Spicher, S. Grimme, J. Chem. Theory Comput.,
     2021, 17, 4250-4261. DOI: 10.1021/acs.jctc.1c00471
   
   for DFT-D4:
   * E. Caldeweyher, C. Bannwarth and S. Grimme, J. Chem. Phys., 2017,
     147, 034112. DOI: 10.1063/1.4993215
   * E. Caldeweyher, S. Ehlert, A. Hansen, H. Neugebauer, S. Spicher,
     C. Bannwarth and S. Grimme, J. Chem. Phys., 2019, 150, 154122.
     DOI: 10.1063/1.5090222
   * E. Caldeweyher, J.-M. Mewes, S. Ehlert and S. Grimme, Phys. Chem. Chem. Phys.
     2020, 22, 8499-8512. DOI: 10.1039/D0CP00502A
   
   for sTDA-xTB:
   * S. Grimme and C. Bannwarth, J. Chem. Phys., 2016, 145, 054103.
     DOI: 10.1063/1.4959605
   
   in the mass-spec context:
   * V. Asgeirsson, C. Bauer and S. Grimme, Chem. Sci., 2017, 8, 4879.
     DOI: 10.1039/c7sc00601b
   * J. Koopman and S. Grimme, ACS Omega 2019, 4, 12, 15120-15133.
     DOI: 10.1021/acsomega.9b02011
   
   for metadynamics refer to:
   * S. Grimme, J. Chem. Theory Comput., 2019, 155, 2847-2862
     DOI: 10.1021/acs.jctc.9b00143
   
   for SPH calculations refer to:
   * S. Spicher and S. Grimme, J. Chem. Theory Comput., 2021, 17, 1701-1714
     DOI: 10.1021/acs.jctc.0c01306
   
   with help from (in alphabetical order)
   P. Atkinson, C. Bannwarth, F. Bohle, G. Brandenburg, E. Caldeweyher
   M. Checinski, S. Dohm, S. Ehlert, S. Ehrlich, I. Gerasimov, C. Hölzer
   A. Katbashev, J. Koopman, C. Lavigne, S. Lehtola, F. März, M. Müller,
   F. Musil, H. Neugebauer, J. Pisarek, C. Plett, P. Pracht, F. Pultar,
   J. Seibert, P. Shushkov, S. Spicher, M. Stahn, M. Steiner, T. Strunk,
   J. Stückrath, T. Rose, and J. Unsleber
   
 * started run on 2024/11/01 at 14:00:57.823     

           -------------------------------------------------
          |                Calculation Setup                |
           -------------------------------------------------

          program call               : xtb Blatter1.mol --opt --gfn2 --chrg -1 --uhf 0 --tight
          coordinate file            : Blatter1.mol
          omp threads                :                     8

   ID    Z sym.   atoms
    1    6 C      1-18, 28, 29, 31-34, 36, 40-45
    2    1 H      19-26, 38, 39, 46-53
    3    8 O      27
    4    7 N      30, 35, 37
########################################################################
[WARNING] Please study the warnings concerning your input carefully
-1- prog_main_parseArguments: Unknown option '--tight' provided
########################################################################

           -------------------------------------------------
          |                 G F N 2 - x T B                 |
           -------------------------------------------------

        Reference                      10.1021/acs.jctc.8b01176
      * Hamiltonian:
        H0-scaling (s, p, d)           1.850000    2.230000    2.230000
        zeta-weighting                 0.500000
      * Dispersion:
        s8                             2.700000
        a1                             0.520000
        a2                             5.000000
        s9                             5.000000
      * Repulsion:
        kExp                           1.500000    1.000000
        rExp                           1.000000
      * Coulomb:
        alpha                          2.000000
        third order                    shell-resolved
        anisotropic                    true
        a3                             3.000000
        a5                             4.000000
        cn-shift                       1.200000
        cn-exp                         4.000000
        max-rad                        5.000000

q/qsh data taken from xtbrestart
CAMM data taken from xtbrestart

          ...................................................
          :                      SETUP                      :
          :.................................................:
          :  # basis functions                 158          :
          :  # atomic orbitals                 158          :
          :  # shells                           88          :
          :  # electrons                       164          :
          :  max. iterations                   250          :
          :  Hamiltonian                  GFN2-xTB          :
          :  restarted?                       true          :
          :  GBSA solvation                  false          :
          :  PC potential                    false          :
          :  electronic temp.          300.0000000     K    :
          :  accuracy                    1.0000000          :
          :  -> integral cutoff          0.2500000E+02      :
          :  -> integral neglect         0.1000000E-07      :
          :  -> SCF convergence          0.1000000E-05 Eh   :
          :  -> wf. convergence          0.1000000E-03 e    :
          :  Broyden damping             0.4000000          :
          ...................................................

 iter      E             dE          RMSdq      gap      omega  full diag
   1    -87.6194766 -0.876195E+02  0.298E+00    1.22       0.0  T
   2    -87.3385027  0.280974E+00  0.263E+00    0.19       1.0  T
   3    -87.5857720 -0.247269E+00  0.181E+00    1.02       1.0  T
   4    -87.7234827 -0.137711E+00  0.108E+00    0.74       1.0  T
   5    -87.7689344 -0.454517E-01  0.456E-01    0.68       1.0  T
   6    -87.7778903 -0.895588E-02  0.262E-01    0.56       1.0  T
   7    -87.7798754 -0.198514E-02  0.137E-01    0.58       1.0  T
   8    -87.7802721 -0.396687E-03  0.748E-02    0.57       1.0  T
   9    -87.7804919 -0.219766E-03  0.417E-02    0.57       1.0  T
  10    -87.7805804 -0.885578E-04  0.122E-02    0.57       1.1  T
  11    -87.7805807 -0.254980E-06  0.899E-03    0.57       1.5  T
  12    -87.7805851 -0.436144E-05  0.459E-03    0.57       3.0  T
  13    -87.7805863 -0.122834E-05  0.233E-03    0.57       5.9  T
  14    -87.7805865 -0.252587E-06  0.110E-03    0.57      12.4  T
  15    -87.7805866 -0.393533E-07  0.625E-04    0.57      22.0  T
  16    -87.7805866 -0.192670E-07  0.316E-04    0.57      43.5  T

   *** convergence criteria satisfied after 16 iterations ***

         #    Occupation            Energy/Eh            Energy/eV
      -------------------------------------------------------------
         1        2.0000           -0.5585672             -15.1994
       ...           ...                  ...                  ...
        76        2.0000           -0.2771715              -7.5422
        77        2.0000           -0.2667283              -7.2580
        78        2.0000           -0.2613442              -7.1115
        79        2.0000           -0.2539310              -6.9098
        80        2.0000           -0.2476468              -6.7388
        81        2.0000           -0.2382081              -6.4820
        82        2.0000           -0.2101229              -5.7177 (HOMO)
        83        0.0000           -0.1892974              -5.1510 (LUMO)
        84        0.0000           -0.1848865              -5.0310
        85                         -0.1756304              -4.7791
        86                         -0.1673137              -4.5528
        87                         -0.1588979              -4.3238
       ...                                ...                  ...
       158                          0.3974593              10.8154
      -------------------------------------------------------------
                  HL-Gap            0.0208255 Eh            0.5667 eV
             Fermi-level           -0.1997147 Eh           -5.4345 eV

 SCC (total)                   0 d,  0 h,  0 min,  0.493 sec
 SCC setup                      ...        0 min,  0.000 sec (  0.045%)
 Dispersion                     ...        0 min,  0.001 sec (  0.123%)
 classical contributions        ...        0 min,  0.000 sec (  0.046%)
 integral evaluation            ...        0 min,  0.004 sec (  0.761%)
 iterations                     ...        0 min,  0.457 sec ( 92.727%)
 molecular gradient             ...        0 min,  0.019 sec (  3.834%)
 printout                       ...        0 min,  0.012 sec (  2.461%)

         :::::::::::::::::::::::::::::::::::::::::::::::::::::
         ::                     SUMMARY                     ::
         :::::::::::::::::::::::::::::::::::::::::::::::::::::
         :: total energy             -87.337108218833 Eh    ::
         :: gradient norm              0.427436665511 Eh/a0 ::
         :: HOMO-LUMO gap              0.566689442506 eV    ::
         ::.................................................::
         :: SCC energy               -87.780586600655 Eh    ::
         :: -> isotropic ES            0.100742770336 Eh    ::
         :: -> anisotropic ES          0.031787371910 Eh    ::
         :: -> anisotropic XC          0.095947426253 Eh    ::
         :: -> dispersion             -0.075417950014 Eh    ::
         :: repulsion energy           0.442267456065 Eh    ::
         :: add. restraining           0.000000000000 Eh    ::
         :: total charge              -0.999999765248 e     ::
         :::::::::::::::::::::::::::::::::::::::::::::::::::::

      ----------------------------------------------------------- 
     |                   =====================                   |
     |                        A N C O P T                        |
     |                   =====================                   |
     |               Approximate Normal Coordinate               |
     |                Rational Function Optimizer                |
      ----------------------------------------------------------- 

          ...................................................
          :                      SETUP                      :
          :.................................................:
          :   optimization level            normal          :
          :   max. optcycles                   200          :
          :   ANC micro-cycles                  20          :
          :   degrees of freedom               153          :
          :.................................................:
          :   RF solver                   davidson          :
          :   write xtbopt.log                true          :
          :   linear?                        false          :
          :   energy convergence         0.5000000E-05 Eh   :
          :   grad. convergence          0.1000000E-02 Eh/α :
          :   maxmium RF displ.          1.0000000          :
          :   Hlow (freq-cutoff)         0.1000000E-01      :
          :   Hmax (freq-cutoff)         5.0000000          :
          :   S6 in model hess.         20.0000000          :
          ...................................................

generating ANC from model Hessian ...
Using Lindh-Hessian (1995)
 Shifting diagonal of input Hessian by    1.0666936238287295E-002
 Lowest  eigenvalues of input Hessian
    0.010000    0.010636    0.010644    0.000000    0.000000    0.000000
    0.000000    0.000000    0.000000    0.010683    0.010734    0.010911
    0.010993    0.011151    0.011296    0.011349    0.011793    0.011977
 Highest eigenvalues
    1.042491    1.045795    1.062004    1.093966    1.111144    1.172688


........................................................................
.............................. CYCLE    1 ..............................
........................................................................

 iter      E             dE          RMSdq      gap      omega  full diag
   1    -87.7805866 -0.877806E+02  0.188E-04    0.57       0.0  T
   2    -87.7805866  0.315478E-08  0.267E-04    0.57      51.5  T
   3    -87.7805866 -0.451345E-08  0.785E-05    0.57     175.0  T
     SCC iter.                  ...        0 min,  0.094 sec
     gradient                   ...        0 min,  0.007 sec
 * total energy  :   -87.3371082 Eh     change       -0.4489337E-08 Eh
   gradient norm :     0.4274363 Eh/α   predicted     0.0000000E+00 (-100.00%)
   displ. norm   :     0.8637575 α      lambda       -0.3578238E+00
   maximum displ.:     0.4904845 α      in ANC's #86, #97, #82, ...

........................................................................
.............................. CYCLE    2 ..............................
........................................................................

 iter      E             dE          RMSdq      gap      omega  full diag
   1    -88.2193062 -0.882193E+02  0.468E-01    0.63       0.0  T
   2    -88.2185997  0.706558E-03  0.325E-01    0.63       1.0  T
   3    -88.2179578  0.641875E-03  0.251E-01    0.63       1.0  T
   4    -88.2203481 -0.239034E-02  0.864E-02    0.64       1.0  T
   5    -88.2208212 -0.473023E-03  0.228E-02    0.63       1.0  T
   6    -88.2208460 -0.247911E-04  0.124E-02    0.63       1.1  T
   7    -88.2208504 -0.445742E-05  0.587E-03    0.63       2.3  T
   8    -88.2208515 -0.108627E-05  0.283E-03    0.63       4.9  T
   9    -88.2208517 -0.242262E-06  0.164E-03    0.63       8.4  T
  10    -88.2208519 -0.182800E-06  0.719E-04    0.63      19.1  T
  11    -88.2208519 -0.235835E-07  0.407E-04    0.63      33.7  T
     SCC iter.                  ...        0 min,  0.206 sec
     gradient                   ...        0 min,  0.007 sec
 * total energy  :   -87.6687354 Eh     change       -0.3316272E+00 Eh
   gradient norm :     0.3595468 Eh/α   predicted    -0.3123942E+00 (  -5.80%)
   displ. norm   :     0.9165853 α      lambda       -0.3238069E+00
   maximum displ.:     0.5042415 α      in ANC's #86, #82, #97, ...

........................................................................
.............................. CYCLE    3 ..............................
........................................................................

 iter      E             dE          RMSdq      gap      omega  full diag
   1    -88.6618582 -0.886619E+02  0.448E-01    0.74       0.0  T
   2    -88.6614427  0.415439E-03  0.320E-01    0.71       1.0  T
   3    -88.6619887 -0.545916E-03  0.215E-01    0.73       1.0  T
   4    -88.6631992 -0.121052E-02  0.811E-02    0.73       1.0  T
   5    -88.6636354 -0.436187E-03  0.157E-02    0.72       1.0  T
   6    -88.6636446 -0.925333E-05  0.101E-02    0.72       1.4  T
   7    -88.6636477 -0.304575E-05  0.470E-03    0.72       2.9  T
   8    -88.6636486 -0.964375E-06  0.229E-03    0.72       6.0  T
   9    -88.6636489 -0.312126E-06  0.102E-03    0.72      13.5  T
  10    -88.6636490 -0.673882E-07  0.359E-04    0.72      38.3  T
  11    -88.6636490 -0.345381E-08  0.190E-04    0.72      72.2  T
     SCC iter.                  ...        0 min,  0.324 sec
     gradient                   ...        0 min,  0.007 sec
 * total energy  :   -87.9602183 Eh     change       -0.2914829E+00 Eh
   gradient norm :     0.2827640 Eh/α   predicted    -0.2979292E+00 (   2.21%)
   displ. norm   :     0.8933257 α      lambda       -0.2497099E+00
   maximum displ.:     0.4985927 α      in ANC's #86, #82, #97, ...

........................................................................
.............................. CYCLE    4 ..............................
........................................................................

 iter      E             dE          RMSdq      gap      omega  full diag
   1    -89.0559191 -0.890559E+02  0.425E-01    0.80       0.0  T
   2    -89.0557216  0.197523E-03  0.288E-01    0.83       1.0  T
   3    -89.0555198  0.201742E-03  0.208E-01    0.76       1.0  T
   4    -89.0568811 -0.136125E-02  0.778E-02    0.84       1.0  T
   5    -89.0573815 -0.500372E-03  0.175E-02    0.80       1.0  T
   6    -89.0573969 -0.154048E-04  0.731E-03    0.80       1.9  T
   7    -89.0573973 -0.443325E-06  0.477E-03    0.80       2.9  T
   8    -89.0573984 -0.112856E-05  0.157E-03    0.80       8.8  T
   9    -89.0573986 -0.126579E-06  0.601E-04    0.80      22.9  T
  10    -89.0573986 -0.148934E-07  0.320E-04    0.80      42.9  T
     SCC iter.                  ...        0 min,  0.151 sec
     gradient                   ...        0 min,  0.007 sec
 * total energy  :   -88.1803417 Eh     change       -0.2201233E+00 Eh
   gradient norm :     0.2155514 Eh/α   predicted    -0.2244934E+00 (   1.99%)
   displ. norm   :     0.8707634 α      lambda       -0.1844088E+00
   maximum displ.:     0.4658845 α      in ANC's #86, #82, #44, ...

........................................................................
.............................. CYCLE    5 ..............................
........................................................................

 iter      E             dE          RMSdq      gap      omega  full diag
   1    -89.3850819 -0.893851E+02  0.410E-01    0.83       0.0  T
   2    -89.3845051  0.576846E-03  0.285E-01    0.93       1.0  T
   3    -89.3842630  0.242066E-03  0.221E-01    0.81       1.0  T
   4    -89.3863917 -0.212868E-02  0.746E-02    0.90       1.0  T
   5    -89.3868606 -0.468896E-03  0.185E-02    0.86       1.0  T
   6    -89.3868764 -0.158701E-04  0.707E-03    0.86       1.9  T
   7    -89.3868775 -0.103441E-05  0.414E-03    0.86       3.3  T
   8    -89.3868779 -0.452229E-06  0.154E-03    0.86       8.9  T
   9    -89.3868780 -0.106871E-06  0.576E-04    0.86      23.9  T
  10    -89.3868780 -0.144870E-07  0.246E-04    0.86      55.9  T
     SCC iter.                  ...        0 min,  0.139 sec
     gradient                   ...        0 min,  0.009 sec
 * total energy  :   -88.3397110 Eh     change       -0.1593693E+00 Eh
   gradient norm :     0.1563096 Eh/α   predicted    -0.1621167E+00 (   1.72%)
   displ. norm   :     0.8492218 α      lambda       -0.1292272E+00
   maximum displ.:     0.3941835 α      in ANC's #86, #82, #44, ...

........................................................................
.............................. CYCLE    6 ..............................
........................................................................

 iter      E             dE          RMSdq      gap      omega  full diag
   1    -89.6483046 -0.896483E+02  0.379E-01    0.85       0.0  T
   2    -89.6474635  0.841089E-03  0.277E-01    0.99       1.0  T
   3    -89.6488767 -0.141322E-02  0.195E-01    0.86       1.0  T
   4    -89.6503407 -0.146393E-02  0.625E-02    0.92       1.0  T
   5    -89.6506190 -0.278305E-03  0.158E-02    0.90       1.0  T
   6    -89.6506311 -0.121941E-04  0.539E-03    0.90       2.5  T
   7    -89.6506314 -0.264651E-06  0.303E-03    0.90       4.5  T
   8    -89.6506318 -0.335908E-06  0.103E-03    0.90      13.4  T
   9    -89.6506318 -0.240077E-07  0.450E-04    0.90      30.5  T
  10    -89.6506318 -0.894872E-08  0.180E-04    0.90      76.3  T
     SCC iter.                  ...        0 min,  0.216 sec
     gradient                   ...        0 min,  0.007 sec
 * total energy  :   -88.4494917 Eh     change       -0.1097807E+00 Eh
   gradient norm :     0.1107429 Eh/α   predicted    -0.1112121E+00 (   1.30%)
   displ. norm   :     0.8309355 α      lambda       -0.8752342E-01
   maximum displ.:     0.3066092 α      in ANC's #44, #86, #42, ...

........................................................................
.............................. CYCLE    7 ..............................
........................................................................

 iter      E             dE          RMSdq      gap      omega  full diag
   1    -89.8436960 -0.898437E+02  0.346E-01    0.88       0.0  T
   2    -89.8432048  0.491295E-03  0.256E-01    1.02       1.0  T
   3    -89.8451435 -0.193873E-02  0.164E-01    0.91       1.0  T
   4    -89.8459153 -0.771860E-03  0.629E-02    0.95       1.0  T
   5    -89.8461539 -0.238535E-03  0.161E-02    0.94       1.0  T
   6    -89.8461674 -0.135605E-04  0.593E-03    0.94       2.3  T
   7    -89.8461683 -0.900430E-06  0.313E-03    0.94       4.4  T
   8    -89.8461687 -0.361020E-06  0.116E-03    0.94      11.8  T
   9    -89.8461687 -0.270298E-07  0.541E-04    0.94      25.4  T
  10    -89.8461687 -0.123169E-07  0.215E-04    0.94      63.9  T
     SCC iter.                  ...        0 min,  0.237 sec
     gradient                   ...        0 min,  0.009 sec
 * total energy  :   -88.5226571 Eh     change       -0.7316549E-01 Eh
   gradient norm :     0.0779790 Eh/α   predicted    -0.7397719E-01 (   1.11%)
   displ. norm   :     0.8139240 α      lambda       -0.5790220E-01
   maximum displ.:     0.3117338 α      in ANC's #44, #42, #25, ...

........................................................................
.............................. CYCLE    8 ..............................
........................................................................

 iter      E             dE          RMSdq      gap      omega  full diag
   1    -89.9867265 -0.899867E+02  0.291E-01    0.91       0.0  T
   2    -89.9867765 -0.500037E-04  0.199E-01    0.99       1.0  T
   3    -89.9872170 -0.440518E-03  0.139E-01    0.92       1.0  T
   4    -89.9878473 -0.630232E-03  0.517E-02    0.96       1.0  T
   5    -89.9880265 -0.179236E-03  0.152E-02    0.94       1.0  T
   6    -89.9880405 -0.140154E-04  0.439E-03    0.95       3.1  T
   7    -89.9880411 -0.552973E-06  0.243E-03    0.94       5.7  T
   8    -89.9880412 -0.168869E-06  0.812E-04    0.94      16.9  T
   9    -89.9880413 -0.119446E-07  0.388E-04    0.94      35.4  T
     SCC iter.                  ...        0 min,  0.173 sec
     gradient                   ...        0 min,  0.009 sec
 * total energy  :   -88.5706743 Eh     change       -0.4801719E-01 Eh
   gradient norm :     0.0643482 Eh/α   predicted    -0.4813042E-01 (   0.24%)
   displ. norm   :     0.8287939 α      lambda       -0.4293127E-01
   maximum displ.:     0.3008644 α      in ANC's #25, #44, #28, ...

........................................................................
.............................. CYCLE    9 ..............................
........................................................................

 iter      E             dE          RMSdq      gap      omega  full diag
   1    -90.0763623 -0.900764E+02  0.268E-01    0.90       0.0  T
   2    -90.0766110 -0.248706E-03  0.181E-01    0.95       1.0  T
   3    -90.0766733 -0.622915E-04  0.118E-01    0.91       1.0  T
   4    -90.0770394 -0.366081E-03  0.438E-02    0.94       1.0  T
   5    -90.0771903 -0.150951E-03  0.135E-02    0.92       1.0  T
   6    -90.0772016 -0.113190E-04  0.454E-03    0.93       3.0  T
   7    -90.0772022 -0.595031E-06  0.235E-03    0.93       5.8  T
   8    -90.0772023 -0.108194E-06  0.911E-04    0.93      15.1  T
   9    -90.0772024 -0.386222E-07  0.391E-04    0.93      35.2  T
     SCC iter.                  ...        0 min,  0.165 sec
     gradient                   ...        0 min,  0.009 sec
 * total energy  :   -88.6050645 Eh     change       -0.3439019E-01 Eh
   gradient norm :     0.0632418 Eh/α   predicted    -0.3621040E-01 (   5.29%)
   displ. norm   :     0.8416284 α      lambda       -0.3757517E-01
   maximum displ.:     0.3495788 α      in ANC's #25, #28, #44, ...

........................................................................
.............................. CYCLE   10 ..............................
........................................................................

 iter      E             dE          RMSdq      gap      omega  full diag
   1    -90.1513733 -0.901514E+02  0.273E-01    0.89       0.0  T
   2    -90.1515758 -0.202545E-03  0.180E-01    0.88       1.0  T
   3    -90.1514248  0.151037E-03  0.991E-02    0.89       1.0  T
   4    -90.1517701 -0.345257E-03  0.166E-02    0.88       1.0  T
   5    -90.1517825 -0.124881E-04  0.795E-03    0.88       1.7  T
   6    -90.1517865 -0.398479E-05  0.336E-03    0.88       4.1  T
   7    -90.1517869 -0.360169E-06  0.179E-03    0.88       7.7  T
   8    -90.1517870 -0.106659E-06  0.562E-04    0.88      24.4  T
   9    -90.1517870 -0.141348E-07  0.256E-04    0.88      53.6  T
     SCC iter.                  ...        0 min,  0.193 sec
     gradient                   ...        0 min,  0.008 sec
 * total energy  :   -88.6317775 Eh     change       -0.2671301E-01 Eh
   gradient norm :     0.0408853 Eh/α   predicted    -0.3209560E-01 (  20.15%)
   displ. norm   :     0.7854075 α      lambda       -0.2356361E-01
   maximum displ.:     0.4040705 α      in ANC's #25, #28, #23, ...

........................................................................
.............................. CYCLE   11 ..............................
........................................................................

 iter      E             dE          RMSdq      gap      omega  full diag
   1    -90.1927872 -0.901928E+02  0.256E-01    0.83       0.0  T
   2    -90.1928203 -0.330738E-04  0.167E-01    0.85       1.0  T
   3    -90.1919345  0.885768E-03  0.105E-01    0.81       1.0  T
   4    -90.1929054 -0.970839E-03  0.278E-02    0.85       1.0  T
   5    -90.1929715 -0.661017E-04  0.482E-03    0.84       2.9  T
   6    -90.1929718 -0.337977E-06  0.248E-03    0.84       5.5  T
   7    -90.1929719 -0.109690E-06  0.107E-03    0.84      12.9  T
   8    -90.1929720 -0.257922E-07  0.470E-04    0.84      29.2  T
   9    -90.1929720 -0.813621E-08  0.181E-04    0.84      75.9  T
     SCC iter.                  ...        0 min,  0.193 sec
     gradient                   ...        0 min,  0.008 sec
 * total energy  :   -88.6469433 Eh     change       -0.1516580E-01 Eh
   gradient norm :     0.0377829 Eh/α   predicted    -0.1904960E-01 (  25.61%)
   displ. norm   :     0.6929737 α      lambda       -0.1555660E-01
   maximum displ.:     0.3700778 α      in ANC's #25, #23, #28, ...

........................................................................
.............................. CYCLE   12 ..............................
........................................................................

 iter      E             dE          RMSdq      gap      omega  full diag
   1    -90.1929641 -0.901930E+02  0.313E-01    0.87       0.0  T
   2    -90.1930465 -0.824370E-04  0.181E-01    0.88       1.0  T
   3    -90.1929250  0.121485E-03  0.553E-02    0.86       1.0  T
   4    -90.1930679 -0.142807E-03  0.151E-02    0.88       1.0  T
   5    -90.1930795 -0.116674E-04  0.781E-03    0.87       1.8  T
   6    -90.1930817 -0.219235E-05  0.329E-03    0.87       4.2  T
   7    -90.1930820 -0.322349E-06  0.101E-03    0.87      13.6  T
   8    -90.1930821 -0.555972E-07  0.449E-04    0.87      30.6  T
   9    -90.1930821 -0.490554E-08  0.237E-04    0.87      57.9  T
     SCC iter.                  ...        0 min,  0.120 sec
     gradient                   ...        0 min,  0.007 sec
 * total energy  :   -88.6530728 Eh     change       -0.6129451E-02 Eh
   gradient norm :     0.0415546 Eh/α   predicted    -0.1151355E-01 (  87.84%)
   displ. norm   :     0.4764289 α      lambda       -0.9607489E-02
   maximum displ.:     0.2039255 α      in ANC's #25, #23, #24, ...

........................................................................
.............................. CYCLE   13 ..............................
........................................................................

 iter      E             dE          RMSdq      gap      omega  full diag
   1    -90.2029908 -0.902030E+02  0.223E-01    0.85       0.0  T
   2    -90.2029771  0.136672E-04  0.153E-01    0.90       1.0  T
   3    -90.2026914  0.285741E-03  0.105E-01    0.85       1.0  T
   4    -90.2032863 -0.594961E-03  0.347E-02    0.88       1.0  T
   5    -90.2033707 -0.843841E-04  0.478E-03    0.87       2.9  T
   6    -90.2033713 -0.561055E-06  0.257E-03    0.87       5.3  T
   7    -90.2033714 -0.128814E-06  0.126E-03    0.87      10.9  T
   8    -90.2033715 -0.576915E-07  0.379E-04    0.87      36.2  T
   9    -90.2033715 -0.475372E-08  0.162E-04    0.87      84.7  T
     SCC iter.                  ...        0 min,  0.193 sec
     gradient                   ...        0 min,  0.020 sec
 * total energy  :   -88.6572615 Eh     change       -0.4188725E-02 Eh
   gradient norm :     0.0265566 Eh/α   predicted    -0.5894151E-02 (  40.71%)
   displ. norm   :     0.4119243 α      lambda       -0.5365620E-02
   maximum displ.:     0.1560581 α      in ANC's #11, #14, #25, ...

........................................................................
.............................. CYCLE   14 ..............................
........................................................................

 iter      E             dE          RMSdq      gap      omega  full diag
   1    -90.2180189 -0.902180E+02  0.229E-01    0.86       0.0  T
   2    -90.2180305 -0.115969E-04  0.143E-01    0.88       1.0  T
   3    -90.2173613  0.669237E-03  0.110E-01    0.84       1.0  T
   4    -90.2182027 -0.841396E-03  0.260E-02    0.87       1.0  T
   5    -90.2182523 -0.496002E-04  0.590E-03    0.86       2.3  T
   6    -90.2182532 -0.964968E-06  0.322E-03    0.87       4.3  T
   7    -90.2182535 -0.243944E-06  0.159E-03    0.87       8.7  T
   8    -90.2182536 -0.129925E-06  0.484E-04    0.87      28.4  T
   9    -90.2182536 -0.927002E-08  0.180E-04    0.87      76.1  T
     SCC iter.                  ...        0 min,  0.157 sec
     gradient                   ...        0 min,  0.008 sec
 * total energy  :   -88.6574530 Eh     change       -0.1915262E-03 Eh
   gradient norm :     0.0386551 Eh/α   predicted    -0.3138034E-02 (1538.44%)
   displ. norm   :     0.2395794 α      lambda       -0.4598331E-02
   maximum displ.:     0.1036247 α      in ANC's #11, #14, #4, ...

........................................................................
.............................. CYCLE   15 ..............................
........................................................................

 iter      E             dE          RMSdq      gap      omega  full diag
   1    -90.2142077 -0.902142E+02  0.158E-01    0.88       0.0  T
   2    -90.2142266 -0.189659E-04  0.926E-02    0.88       1.0  T
   3    -90.2140932  0.133400E-03  0.456E-02    0.89       1.0  T
   4    -90.2142340 -0.140783E-03  0.121E-02    0.88       1.1  T
   5    -90.2142458 -0.117864E-04  0.350E-03    0.88       3.9  T
   6    -90.2142460 -0.208807E-06  0.201E-03    0.88       6.8  T
   7    -90.2142461 -0.101305E-06  0.728E-04    0.88      18.9  T
   8    -90.2142461 -0.273006E-07  0.233E-04    0.88      59.1  T
     SCC iter.                  ...        0 min,  0.116 sec
     gradient                   ...        0 min,  0.009 sec
 * total energy  :   -88.6595100 Eh     change       -0.2057009E-02 Eh
   gradient norm :     0.0160314 Eh/α   predicted    -0.2431144E-02 (  18.19%)
   displ. norm   :     0.2694850 α      lambda       -0.2465000E-02
   maximum displ.:     0.1132726 α      in ANC's #11, #4, #5, ...

........................................................................
.............................. CYCLE   16 ..............................
........................................................................

 iter      E             dE          RMSdq      gap      omega  full diag
   1    -90.2022807 -0.902023E+02  0.178E-01    0.89       0.0  T
   2    -90.2023457 -0.650185E-04  0.108E-01    0.90       1.0  T
   3    -90.2022587  0.869715E-04  0.597E-02    0.89       1.0  T
   4    -90.2023723 -0.113537E-03  0.169E-02    0.90       1.0  T
   5    -90.2023934 -0.210895E-04  0.437E-03    0.90       3.1  T
   6    -90.2023939 -0.566924E-06  0.221E-03    0.90       6.2  T
   7    -90.2023940 -0.116533E-06  0.966E-04    0.90      14.2  T
   8    -90.2023941 -0.532907E-07  0.268E-04    0.90      51.2  T
     SCC iter.                  ...        0 min,  0.129 sec
     gradient                   ...        0 min,  0.009 sec
 * total energy  :   -88.6586542 Eh     change        0.8558312E-03 Eh
   gradient norm :     0.0332695 Eh/α   predicted    -0.1322014E-02 (-254.47%)
   displ. norm   :     0.1718950 α      lambda       -0.3525742E-02
   maximum displ.:     0.0613305 α      in ANC's #4, #11, #5, ...

........................................................................
.............................. CYCLE   17 ..............................
........................................................................

 iter      E             dE          RMSdq      gap      omega  full diag
   1    -90.2109960 -0.902110E+02  0.133E-01    0.90       0.0  T
   2    -90.2110198 -0.237238E-04  0.765E-02    0.90       1.0  T
   3    -90.2109876  0.321675E-04  0.320E-02    0.89       1.0  T
   4    -90.2110240 -0.363955E-04  0.891E-03    0.90       1.5  T
   5    -90.2110299 -0.592038E-05  0.310E-03    0.89       4.4  T
   6    -90.2110302 -0.332263E-06  0.150E-03    0.90       9.2  T
   7    -90.2110303 -0.422931E-07  0.583E-04    0.90      23.6  T
   8    -90.2110303 -0.193115E-07  0.197E-04    0.90      69.7  T
     SCC iter.                  ...        0 min,  0.121 sec
     gradient                   ...        0 min,  0.008 sec
 * total energy  :   -88.6602519 Eh     change       -0.1597725E-02 Eh
   gradient norm :     0.0131056 Eh/α   predicted    -0.1814959E-02 (  13.60%)
   displ. norm   :     0.2359715 α      lambda       -0.1684039E-02
   maximum displ.:     0.0997115 α      in ANC's #4, #11, #5, ...

........................................................................
.............................. CYCLE   18 ..............................
........................................................................

 iter      E             dE          RMSdq      gap      omega  full diag
   1    -90.2158322 -0.902158E+02  0.149E-01    0.87       0.0  T
   2    -90.2158426 -0.103764E-04  0.902E-02    0.88       1.0  T
   3    -90.2155919  0.250680E-03  0.558E-02    0.86       1.0  T
   4    -90.2158622 -0.270341E-03  0.126E-02    0.88       1.1  T
   5    -90.2158749 -0.126654E-04  0.324E-03    0.88       4.2  T
   6    -90.2158750 -0.734951E-07  0.162E-03    0.88       8.5  T
   7    -90.2158751 -0.849524E-07  0.524E-04    0.88      26.2  T
   8    -90.2158751 -0.148186E-07  0.228E-04    0.88      60.2  T
     SCC iter.                  ...        0 min,  0.124 sec
     gradient                   ...        0 min,  0.008 sec
 * total energy  :   -88.6594777 Eh     change        0.7742571E-03 Eh
   gradient norm :     0.0273165 Eh/α   predicted    -0.8889023E-03 (-214.81%)
   displ. norm   :     0.1604315 α      lambda       -0.2658624E-02
   maximum displ.:     0.0624284 α      in ANC's #4, #35, #5, ...

........................................................................
.............................. CYCLE   19 ..............................
........................................................................

 iter      E             dE          RMSdq      gap      omega  full diag
   1    -90.2134717 -0.902135E+02  0.114E-01    0.90       0.0  T
   2    -90.2134788 -0.706561E-05  0.677E-02    0.89       1.0  T
   3    -90.2133718  0.106983E-03  0.353E-02    0.91       1.0  T
   4    -90.2134860 -0.114207E-03  0.818E-03    0.89       1.7  T
   5    -90.2134910 -0.492995E-05  0.224E-03    0.90       6.1  T
   6    -90.2134910 -0.651490E-08  0.140E-03    0.90       9.8  T
   7    -90.2134910 -0.758838E-07  0.321E-04    0.90      42.8  T
   8    -90.2134910 -0.389825E-08  0.136E-04    0.90     101.3  T
     SCC iter.                  ...        0 min,  0.132 sec
     gradient                   ...        0 min,  0.010 sec
 * total energy  :   -88.6607267 Eh     change       -0.1249055E-02 Eh
   gradient norm :     0.0103447 Eh/α   predicted    -0.1363533E-02 (   9.17%)
   displ. norm   :     0.2089748 α      lambda       -0.1104475E-02
   maximum displ.:     0.1103593 α      in ANC's #4, #5, #11, ...

........................................................................
.............................. CYCLE   20 ..............................
........................................................................

 iter      E             dE          RMSdq      gap      omega  full diag
   1    -90.2104680 -0.902105E+02  0.128E-01    0.89       0.0  T
   2    -90.2104819 -0.139070E-04  0.797E-02    0.90       1.0  T
   3    -90.2103811  0.100791E-03  0.410E-02    0.89       1.0  T
   4    -90.2104919 -0.110801E-03  0.960E-03    0.90       1.4  T
   5    -90.2104998 -0.792497E-05  0.218E-03    0.90       6.3  T
   6    -90.2104999 -0.101552E-06  0.109E-03    0.90      12.6  T
   7    -90.2105000 -0.349801E-07  0.386E-04    0.90      35.6  T
   8    -90.2105000 -0.465513E-08  0.162E-04    0.90      84.5  T
     SCC iter.                  ...        0 min,  0.145 sec
     gradient                   ...        0 min,  0.007 sec
 * total energy  :   -88.6604589 Eh     change        0.2678599E-03 Eh
   gradient norm :     0.0195519 Eh/α   predicted    -0.5763553E-03 (-315.17%)
   displ. norm   :     0.1397323 α      lambda       -0.1322233E-02
   maximum displ.:     0.0707952 α      in ANC's #4, #5, #11, ...
 * RMSD in coord.:     1.0960227 α      energy gain  -0.1323351E+01 Eh

generating ANC from model Hessian ...
Using Lindh-Hessian (1995)
 Shifting diagonal of input Hessian by    9.4624325249948443E-003
 Lowest  eigenvalues of input Hessian
    0.000000    0.000000    0.000000    0.000000    0.000000    0.000000
    0.010000    0.010255    0.010476    0.010868    0.011368    0.011775
    0.012487    0.013245    0.014579    0.015053    0.016777    0.018018
 Highest eigenvalues
    2.056323    2.087076    2.123254    2.154796    2.235571    2.270838


........................................................................
.............................. CYCLE   21 ..............................
........................................................................

 iter      E             dE          RMSdq      gap      omega  full diag
   1    -90.2131049 -0.902131E+02  0.817E-02    0.90       0.0  T
   2    -90.2131088 -0.388618E-05  0.492E-02    0.90       1.0  T
   3    -90.2130936  0.152472E-04  0.165E-02    0.90       1.0  T
   4    -90.2131108 -0.171792E-04  0.305E-03    0.90       4.5  T
   5    -90.2131113 -0.557611E-06  0.132E-03    0.90      10.4  T
   6    -90.2131114 -0.467538E-07  0.608E-04    0.90      22.6  T
   7    -90.2131114 -0.913444E-08  0.258E-04    0.90      53.3  T
     SCC iter.                  ...        0 min,  0.099 sec
     gradient                   ...        0 min,  0.009 sec
 * total energy  :   -88.6611416 Eh     change       -0.6827605E-03 Eh
   gradient norm :     0.0073578 Eh/α   predicted     0.0000000E+00 (-100.00%)
   displ. norm   :     0.1174741 α      lambda       -0.2875164E-03
   maximum displ.:     0.0859606 α      in ANC's #3, #2, #1, ...

........................................................................
.............................. CYCLE   22 ..............................
........................................................................

 iter      E             dE          RMSdq      gap      omega  full diag
   1    -90.2139289 -0.902139E+02  0.349E-02    0.90       0.0  T
   2    -90.2139301 -0.117362E-05  0.212E-02    0.90       1.0  T
   3    -90.2139247  0.534249E-05  0.963E-03    0.90       1.4  T
   4    -90.2139309 -0.616695E-05  0.164E-03    0.90       8.4  T
   5    -90.2139311 -0.187532E-06  0.671E-04    0.90      20.5  T
   6    -90.2139311 -0.245490E-07  0.299E-04    0.90      45.9  T
     SCC iter.                  ...        0 min,  0.077 sec
     gradient                   ...        0 min,  0.008 sec
 * total energy  :   -88.6613649 Eh     change       -0.2232260E-03 Eh
   gradient norm :     0.0029044 Eh/α   predicted    -0.1460600E-03 ( -34.57%)
   displ. norm   :     0.2393676 α      lambda       -0.3212096E-03
   maximum displ.:     0.1645413 α      in ANC's #3, #2, #1, ...

........................................................................
.............................. CYCLE   23 ..............................
........................................................................

 iter      E             dE          RMSdq      gap      omega  full diag
   1    -90.2147058 -0.902147E+02  0.592E-02    0.90       0.0  T
   2    -90.2147079 -0.212390E-05  0.354E-02    0.90       1.0  T
   3    -90.2146877  0.201722E-04  0.173E-02    0.89       1.0  T
   4    -90.2147101 -0.223312E-04  0.311E-03    0.90       4.4  T
   5    -90.2147108 -0.684518E-06  0.988E-04    0.90      13.9  T
   6    -90.2147108 -0.393640E-07  0.513E-04    0.90      26.8  T
     SCC iter.                  ...        0 min,  0.109 sec
     gradient                   ...        0 min,  0.008 sec
 * total energy  :   -88.6616234 Eh     change       -0.2585293E-03 Eh
   gradient norm :     0.0039655 Eh/α   predicted    -0.1698070E-03 ( -34.32%)
   displ. norm   :     0.3294025 α      lambda       -0.3363487E-03
   maximum displ.:     0.2141777 α      in ANC's #3, #2, #1, ...

........................................................................
.............................. CYCLE   24 ..............................
........................................................................

 iter      E             dE          RMSdq      gap      omega  full diag
   1    -90.2147139 -0.902147E+02  0.793E-02    0.89       0.0  T
   2    -90.2147157 -0.188421E-05  0.470E-02    0.90       1.0  T
   3    -90.2146710  0.447016E-04  0.257E-02    0.89       1.0  T
   4    -90.2147197 -0.487007E-04  0.412E-03    0.90       3.3  T
   5    -90.2147210 -0.127180E-05  0.117E-03    0.90      11.8  T
   6    -90.2147211 -0.369570E-07  0.682E-04    0.90      20.1  T
   7    -90.2147211 -0.120153E-07  0.338E-04    0.90      40.6  T
     SCC iter.                  ...        0 min,  0.213 sec
     gradient                   ...        0 min,  0.008 sec
 * total energy  :   -88.6619211 Eh     change       -0.2977496E-03 Eh
   gradient norm :     0.0067964 Eh/α   predicted    -0.1864226E-03 ( -37.39%)
   displ. norm   :     0.4591377 α      lambda       -0.4490174E-03
   maximum displ.:     0.2904548 α      in ANC's #3, #2, #1, ...

........................................................................
.............................. CYCLE   25 ..............................
........................................................................

 iter      E             dE          RMSdq      gap      omega  full diag
   1    -90.2138031 -0.902138E+02  0.112E-01    0.89       0.0  T
   2    -90.2138057 -0.257911E-05  0.663E-02    0.90       1.0  T
   3    -90.2137019  0.103807E-03  0.399E-02    0.89       1.0  T
   4    -90.2138155 -0.113572E-03  0.610E-03    0.90       2.3  T
   5    -90.2138183 -0.287464E-05  0.160E-03    0.90       8.6  T
   6    -90.2138184 -0.523325E-07  0.992E-04    0.90      13.8  T
   7    -90.2138184 -0.272096E-07  0.434E-04    0.90      31.7  T
     SCC iter.                  ...        0 min,  0.144 sec
     gradient                   ...        0 min,  0.007 sec
 * total energy  :   -88.6623155 Eh     change       -0.3943666E-03 Eh
   gradient norm :     0.0072652 Eh/α   predicted    -0.2718395E-03 ( -31.07%)
   displ. norm   :     0.5368864 α      lambda       -0.4633093E-03
   maximum displ.:     0.3439844 α      in ANC's #3, #2, #1, ...

........................................................................
.............................. CYCLE   26 ..............................
........................................................................

 iter      E             dE          RMSdq      gap      omega  full diag
   1    -90.2128781 -0.902129E+02  0.131E-01    0.89       0.0  T
   2    -90.2128819 -0.384900E-05  0.781E-02    0.90       1.0  T
   3    -90.2127314  0.150531E-03  0.488E-02    0.89       1.0  T
   4    -90.2128970 -0.165630E-03  0.753E-03    0.90       1.8  T
   5    -90.2129014 -0.442070E-05  0.194E-03    0.90       7.1  T
   6    -90.2129015 -0.893244E-07  0.119E-03    0.90      11.6  T
   7    -90.2129016 -0.383200E-07  0.503E-04    0.90      27.3  T
   8    -90.2129016 -0.128558E-07  0.154E-04    0.90      89.1  T
     SCC iter.                  ...        0 min,  0.158 sec
     gradient                   ...        0 min,  0.009 sec
 * total energy  :   -88.6626915 Eh     change       -0.3759654E-03 Eh
   gradient norm :     0.0053914 Eh/α   predicted    -0.2984296E-03 ( -20.62%)
   displ. norm   :     0.4705402 α      lambda       -0.2922442E-03
   maximum displ.:     0.3108699 α      in ANC's #3, #2, #1, ...

........................................................................
.............................. CYCLE   27 ..............................
........................................................................

 iter      E             dE          RMSdq      gap      omega  full diag
   1    -90.2133359 -0.902133E+02  0.114E-01    0.90       0.0  T
   2    -90.2133389 -0.298070E-05  0.679E-02    0.91       1.0  T
   3    -90.2132221  0.116760E-03  0.429E-02    0.90       1.0  T
   4    -90.2133510 -0.128867E-03  0.638E-03    0.90       2.2  T
   5    -90.2133541 -0.311119E-05  0.171E-03    0.90       8.0  T
   6    -90.2133542 -0.868475E-07  0.101E-03    0.90      13.5  T
   7    -90.2133542 -0.281485E-07  0.434E-04    0.90      31.7  T
   8    -90.2133542 -0.822143E-08  0.139E-04    0.90      98.5  T
     SCC iter.                  ...        0 min,  0.225 sec
     gradient                   ...        0 min,  0.014 sec
 * total energy  :   -88.6629146 Eh     change       -0.2230896E-03 Eh
   gradient norm :     0.0035713 Eh/α   predicted    -0.1784814E-03 ( -20.00%)
   displ. norm   :     0.3276733 α      lambda       -0.1422480E-03
   maximum displ.:     0.2244022 α      in ANC's #3, #2, #4, ...

........................................................................
.............................. CYCLE   28 ..............................
........................................................................

 iter      E             dE          RMSdq      gap      omega  full diag
   1    -90.2150909 -0.902151E+02  0.784E-02    0.90       0.0  T
   2    -90.2150921 -0.120739E-05  0.465E-02    0.91       1.0  T
   3    -90.2150383  0.538461E-04  0.284E-02    0.90       1.0  T
   4    -90.2150974 -0.590882E-04  0.388E-03    0.91       3.5  T
   5    -90.2150985 -0.111517E-05  0.114E-03    0.91      12.1  T
   6    -90.2150985 -0.436339E-07  0.652E-04    0.91      21.1  T
   7    -90.2150985 -0.107289E-07  0.275E-04    0.91      50.0  T
     SCC iter.                  ...        0 min,  0.169 sec
     gradient                   ...        0 min,  0.007 sec
 * total energy  :   -88.6630261 Eh     change       -0.1115465E-03 Eh
   gradient norm :     0.0027086 Eh/α   predicted    -0.7876673E-04 ( -29.39%)
   displ. norm   :     0.2385799 α      lambda       -0.8451386E-04
   maximum displ.:     0.1684592 α      in ANC's #3, #2, #4, ...

........................................................................
.............................. CYCLE   29 ..............................
........................................................................

 iter      E             dE          RMSdq      gap      omega  full diag
   1    -90.2167761 -0.902168E+02  0.573E-02    0.91       0.0  T
   2    -90.2167768 -0.707762E-06  0.339E-02    0.91       1.0  T
   3    -90.2167530  0.238374E-04  0.184E-02    0.91       1.0  T
   4    -90.2167790 -0.259786E-04  0.248E-03    0.91       5.5  T
   5    -90.2167794 -0.437985E-06  0.778E-04    0.91      17.7  T
   6    -90.2167794 -0.206371E-07  0.441E-04    0.91      31.1  T
     SCC iter.                  ...        0 min,  0.102 sec
     gradient                   ...        0 min,  0.007 sec
 * total energy  :   -88.6630947 Eh     change       -0.6858907E-04 Eh
   gradient norm :     0.0021591 Eh/α   predicted    -0.4466234E-04 ( -34.88%)
   displ. norm   :     0.1957155 α      lambda       -0.5919029E-04
   maximum displ.:     0.1411496 α      in ANC's #3, #2, #4, ...

........................................................................
.............................. CYCLE   30 ..............................
........................................................................

 iter      E             dE          RMSdq      gap      omega  full diag
   1    -90.2176885 -0.902177E+02  0.475E-02    0.91       0.0  T
   2    -90.2176891 -0.586234E-06  0.280E-02    0.91       1.0  T
   3    -90.2176788  0.103179E-04  0.121E-02    0.91       1.1  T
   4    -90.2176901 -0.113127E-04  0.161E-03    0.91       8.5  T
   5    -90.2176903 -0.154868E-06  0.580E-04    0.91      23.7  T
   6    -90.2176903 -0.831619E-08  0.343E-04    0.91      40.0  T
     SCC iter.                  ...        0 min,  0.096 sec
     gradient                   ...        0 min,  0.008 sec
 * total energy  :   -88.6631431 Eh     change       -0.4845198E-04 Eh
   gradient norm :     0.0016223 Eh/α   predicted    -0.3073110E-04 ( -36.57%)
   displ. norm   :     0.2511589 α      lambda       -0.4320515E-04
   maximum displ.:     0.1813821 α      in ANC's #3, #2, #4, ...

........................................................................
.............................. CYCLE   31 ..............................
........................................................................

 iter      E             dE          RMSdq      gap      omega  full diag
   1    -90.2181362 -0.902181E+02  0.606E-02    0.91       0.0  T
   2    -90.2181370 -0.803614E-06  0.357E-02    0.91       1.0  T
   3    -90.2181225  0.144882E-04  0.139E-02    0.91       1.0  T
   4    -90.2181385 -0.159974E-04  0.151E-03    0.91       9.1  T
   5    -90.2181386 -0.106852E-06  0.617E-04    0.91      22.3  T
   6    -90.2181386 -0.299232E-08  0.326E-04    0.91      42.2  T
     SCC iter.                  ...        0 min,  0.103 sec
     gradient                   ...        0 min,  0.008 sec
 * total energy  :   -88.6631914 Eh     change       -0.4824941E-04 Eh
   gradient norm :     0.0014518 Eh/α   predicted    -0.2220832E-04 ( -53.97%)
   displ. norm   :     0.1699568 α      lambda       -0.2406793E-04
   maximum displ.:     0.1183470 α      in ANC's #3, #2, #1, ...

........................................................................
.............................. CYCLE   32 ..............................
........................................................................

 iter      E             dE          RMSdq      gap      omega  full diag
   1    -90.2179319 -0.902179E+02  0.392E-02    0.91       0.0  T
   2    -90.2179321 -0.233126E-06  0.232E-02    0.91       1.0  T
   3    -90.2179237  0.847503E-05  0.103E-02    0.91       1.3  T
   4    -90.2179329 -0.925895E-05  0.111E-03    0.91      12.4  T
   5    -90.2179330 -0.775065E-07  0.423E-04    0.91      32.5  T
   6    -90.2179330 -0.282321E-08  0.259E-04    0.91      53.1  T
     SCC iter.                  ...        0 min,  0.083 sec
     gradient                   ...        0 min,  0.007 sec
 * total energy  :   -88.6632216 Eh     change       -0.3015907E-04 Eh
   gradient norm :     0.0011678 Eh/α   predicted    -0.1218863E-04 ( -59.59%)
   displ. norm   :     0.1880592 α      lambda       -0.2424723E-04
   maximum displ.:     0.1235767 α      in ANC's #3, #2, #1, ...

........................................................................
.............................. CYCLE   33 ..............................
........................................................................

 iter      E             dE          RMSdq      gap      omega  full diag
   1    -90.2177407 -0.902177E+02  0.415E-02    0.91       0.0  T
   2    -90.2177409 -0.199016E-06  0.245E-02    0.91       1.0  T
   3    -90.2177301  0.107568E-04  0.116E-02    0.91       1.2  T
   4    -90.2177419 -0.117101E-04  0.127E-03    0.91      10.8  T
   5    -90.2177420 -0.115746E-06  0.439E-04    0.91      31.3  T
   6    -90.2177420 -0.444930E-08  0.258E-04    0.91      53.3  T
     SCC iter.                  ...        0 min,  0.086 sec
     gradient                   ...        0 min,  0.008 sec
 * total energy  :   -88.6632502 Eh     change       -0.2867082E-04 Eh
   gradient norm :     0.0007995 Eh/α   predicted    -0.1231520E-04 ( -57.05%)
   displ. norm   :     0.1467054 α      lambda       -0.1477788E-04
   maximum displ.:     0.0901659 α      in ANC's #3, #1, #2, ...

........................................................................
.............................. CYCLE   34 ..............................
........................................................................

 iter      E             dE          RMSdq      gap      omega  full diag
   1    -90.2175238 -0.902175E+02  0.314E-02    0.91       0.0  T
   2    -90.2175239 -0.799228E-07  0.185E-02    0.91       1.0  T
   3    -90.2175189  0.501469E-05  0.774E-03    0.91       1.8  T
   4    -90.2175243 -0.540955E-05  0.885E-04    0.91      15.5  T
   5    -90.2175244 -0.553857E-07  0.302E-04    0.91      45.4  T
   6    -90.2175244 -0.149016E-08  0.181E-04    0.91      75.9  T
     SCC iter.                  ...        0 min,  0.088 sec
     gradient                   ...        0 min,  0.008 sec
 * total energy  :   -88.6632673 Eh     change       -0.1702930E-04 Eh
   gradient norm :     0.0006195 Eh/α   predicted    -0.7460204E-05 ( -56.19%)
   displ. norm   :     0.0638915 α      lambda       -0.6868180E-05
   maximum displ.:     0.0512529 α      in ANC's #1, #3, #2, ...

........................................................................
.............................. CYCLE   35 ..............................
........................................................................

 iter      E             dE          RMSdq      gap      omega  full diag
   1    -90.2178179 -0.902178E+02  0.129E-02    0.91       0.0  T
   2    -90.2178179 -0.215508E-09  0.758E-03    0.91       1.8  T
   3    -90.2178167  0.119969E-05  0.378E-03    0.91       3.6  T
   4    -90.2178180 -0.128516E-05  0.457E-04    0.91      30.0  T
   5    -90.2178180 -0.148454E-07  0.104E-04    0.91     132.1  T
   6    -90.2178180  0.186020E-10  0.635E-05    0.91     216.3  T
     SCC iter.                  ...        0 min,  0.120 sec
     gradient                   ...        0 min,  0.008 sec
 * total energy  :   -88.6632762 Eh     change       -0.8900602E-05 Eh
   gradient norm :     0.0005066 Eh/α   predicted    -0.3441264E-05 ( -61.34%)
   displ. norm   :     0.0445811 α      lambda       -0.5593946E-05
   maximum displ.:     0.0375015 α      in ANC's #1, #4, #2, ...

........................................................................
.............................. CYCLE   36 ..............................
........................................................................

 iter      E             dE          RMSdq      gap      omega  full diag
   1    -90.2176404 -0.902176E+02  0.939E-03    0.91       0.0  T
   2    -90.2176405 -0.457820E-07  0.556E-03    0.91       2.5  T
   3    -90.2176400  0.462632E-06  0.285E-03    0.91       4.8  T
   4    -90.2176405 -0.520384E-06  0.445E-04    0.91      30.9  T
   5    -90.2176405 -0.133627E-07  0.110E-04    0.91     124.9  T
     SCC iter.                  ...        0 min,  0.093 sec
     gradient                   ...        0 min,  0.007 sec
 * total energy  :   -88.6632836 Eh     change       -0.7481630E-05 Eh
   gradient norm :     0.0004816 Eh/α   predicted    -0.2807490E-05 ( -62.47%)
   displ. norm   :     0.0582643 α      lambda       -0.5999056E-05
   maximum displ.:     0.0392003 α      in ANC's #1, #2, #4, ...

........................................................................
.............................. CYCLE   37 ..............................
........................................................................

 iter      E             dE          RMSdq      gap      omega  full diag
   1    -90.2176185 -0.902176E+02  0.118E-02    0.91       0.0  T
   2    -90.2176186 -0.679521E-07  0.701E-03    0.91       2.0  T
   3    -90.2176178  0.768595E-06  0.362E-03    0.91       3.8  T
   4    -90.2176187 -0.876719E-06  0.476E-04    0.91      28.9  T
   5    -90.2176187 -0.132096E-07  0.125E-04    0.91     110.0  T
     SCC iter.                  ...        0 min,  0.067 sec
     gradient                   ...        0 min,  0.018 sec
 * total energy  :   -88.6632915 Eh     change       -0.7879438E-05 Eh
   gradient norm :     0.0004322 Eh/α   predicted    -0.3006738E-05 ( -61.84%)
   displ. norm   :     0.0641570 α      lambda       -0.5890275E-05
   maximum displ.:     0.0442118 α      in ANC's #1, #2, #4, ...

........................................................................
.............................. CYCLE   38 ..............................
........................................................................

 iter      E             dE          RMSdq      gap      omega  full diag
   1    -90.2175564 -0.902176E+02  0.114E-02    0.91       0.0  T
   2    -90.2175564 -0.697054E-07  0.684E-03    0.91       2.0  T
   3    -90.2175556  0.826041E-06  0.372E-03    0.91       3.7  T
   4    -90.2175566 -0.949531E-06  0.472E-04    0.91      29.1  T
   5    -90.2175566 -0.130432E-07  0.120E-04    0.91     114.9  T
     SCC iter.                  ...        0 min,  0.068 sec
     gradient                   ...        0 min,  0.008 sec
 * total energy  :   -88.6632993 Eh     change       -0.7755840E-05 Eh
   gradient norm :     0.0004510 Eh/α   predicted    -0.2952747E-05 ( -61.93%)
   displ. norm   :     0.0626870 α      lambda       -0.5732404E-05
   maximum displ.:     0.0471293 α      in ANC's #1, #2, #6, ...

........................................................................
.............................. CYCLE   39 ..............................
........................................................................

 iter      E             dE          RMSdq      gap      omega  full diag
   1    -90.2173457 -0.902173E+02  0.101E-02    0.91       0.0  T
   2    -90.2173457 -0.439681E-07  0.599E-03    0.91       2.3  T
   3    -90.2173452  0.544949E-06  0.302E-03    0.91       4.6  T
   4    -90.2173458 -0.611947E-06  0.395E-04    0.91      34.8  T
   5    -90.2173458 -0.107201E-07  0.135E-04    0.91     101.5  T
     SCC iter.                  ...        0 min,  0.067 sec
     gradient                   ...        0 min,  0.008 sec
 * total energy  :   -88.6633065 Eh     change       -0.7249802E-05 Eh
   gradient norm :     0.0005478 Eh/α   predicted    -0.2874740E-05 ( -60.35%)
   displ. norm   :     0.0637875 α      lambda       -0.5620996E-05
   maximum displ.:     0.0506125 α      in ANC's #1, #6, #2, ...

........................................................................
.............................. CYCLE   40 ..............................
........................................................................

 iter      E             dE          RMSdq      gap      omega  full diag
   1    -90.2173712 -0.902174E+02  0.102E-02    0.91       0.0  T
   2    -90.2173712 -0.500041E-07  0.603E-03    0.91       2.3  T
   3    -90.2173708  0.447035E-06  0.272E-03    0.91       5.0  T
   4    -90.2173713 -0.494541E-06  0.433E-04    0.91      31.8  T
   5    -90.2173713 -0.127981E-07  0.165E-04    0.91      83.5  T
     SCC iter.                  ...        0 min,  0.081 sec
     gradient                   ...        0 min,  0.008 sec
 * total energy  :   -88.6633139 Eh     change       -0.7356517E-05 Eh
   gradient norm :     0.0003144 Eh/α   predicted    -0.2816141E-05 ( -61.72%)
   displ. norm   :     0.0709985 α      lambda       -0.5318316E-05
   maximum displ.:     0.0541456 α      in ANC's #1, #3, #6, ...

........................................................................
.............................. CYCLE   41 ..............................
........................................................................

 iter      E             dE          RMSdq      gap      omega  full diag
   1    -90.2174977 -0.902175E+02  0.133E-02    0.91       0.0  T
   2    -90.2174977 -0.671158E-07  0.780E-03    0.91       1.8  T
   3    -90.2174975  0.247286E-06  0.224E-03    0.91       6.1  T
   4    -90.2174978 -0.274077E-06  0.466E-04    0.91      29.5  T
   5    -90.2174978 -0.125658E-07  0.212E-04    0.91      64.7  T
     SCC iter.                  ...        0 min,  0.071 sec
     gradient                   ...        0 min,  0.007 sec
 * total energy  :   -88.6633210 Eh     change       -0.7095173E-05 Eh
   gradient norm :     0.0002435 Eh/α   predicted    -0.2665621E-05 ( -62.43%)
   displ. norm   :     0.0831541 α      lambda       -0.5064493E-05
   maximum displ.:     0.0571868 α      in ANC's #1, #3, #6, ...

........................................................................
.............................. CYCLE   42 ..............................
........................................................................

 iter      E             dE          RMSdq      gap      omega  full diag
   1    -90.2173843 -0.902174E+02  0.179E-02    0.91       0.0  T
   2    -90.2173844 -0.909178E-07  0.104E-02    0.91       1.3  T
   3    -90.2173835  0.858118E-06  0.375E-03    0.91       3.7  T
   4    -90.2173844 -0.919286E-06  0.724E-04    0.91      19.0  T
   5    -90.2173845 -0.365956E-07  0.257E-04    0.91      53.5  T
     SCC iter.                  ...        0 min,  0.075 sec
     gradient                   ...        0 min,  0.008 sec
 * total energy  :   -88.6633276 Eh     change       -0.6579364E-05 Eh
   gradient norm :     0.0003106 Eh/α   predicted    -0.2542152E-05 ( -61.36%)
   displ. norm   :     0.0829190 α      lambda       -0.4322706E-05
   maximum displ.:     0.0558783 α      in ANC's #1, #3, #6, ...
 * RMSD in coord.:     0.4754315 α      energy gain  -0.2868681E-02 Eh

generating ANC from model Hessian ...
Using Lindh-Hessian (1995)
 Shifting diagonal of input Hessian by    9.5091522150860495E-003
 Lowest  eigenvalues of input Hessian
    0.000000    0.000000    0.000000    0.000000    0.000000    0.000000
    0.010000    0.010366    0.010476    0.010937    0.011423    0.011732
    0.012407    0.013227    0.014541    0.015095    0.017031    0.018668
 Highest eigenvalues
    2.059531    2.089568    2.126591    2.165250    2.245219    2.291049


........................................................................
.............................. CYCLE   43 ..............................
........................................................................

 iter      E             dE          RMSdq      gap      omega  full diag
   1    -90.2176163 -0.902176E+02  0.173E-02    0.91       0.0  T
   2    -90.2176164 -0.871118E-07  0.101E-02    0.91       1.4  T
   3    -90.2176161  0.312678E-06  0.235E-03    0.91       5.8  T
   4    -90.2176164 -0.352743E-06  0.491E-04    0.91      28.0  T
   5    -90.2176164 -0.111448E-07  0.233E-04    0.91      59.0  T
     SCC iter.                  ...        0 min,  0.066 sec
     gradient                   ...        0 min,  0.008 sec
 * total energy  :   -88.6633329 Eh     change       -0.5373743E-05 Eh
   gradient norm :     0.0003175 Eh/α   predicted     0.0000000E+00 (-100.00%)
   displ. norm   :     0.0148085 α      lambda       -0.9186594E-07
   maximum displ.:     0.0127950 α      in ANC's #1, #6, #4, ...

........................................................................
.............................. CYCLE   44 ..............................
........................................................................

 iter      E             dE          RMSdq      gap      omega  full diag
   1    -90.2176478 -0.902176E+02  0.306E-03    0.91       0.0  T
   2    -90.2176479 -0.828683E-08  0.182E-03    0.91       7.5  T
   3    -90.2176478  0.252367E-07  0.764E-04    0.91      18.0  T
   4    -90.2176479 -0.305815E-07  0.910E-05    0.91     150.9  T
     SCC iter.                  ...        0 min,  0.053 sec
     gradient                   ...        0 min,  0.008 sec
 * total energy  :   -88.6633345 Eh     change       -0.1530441E-05 Eh
   gradient norm :     0.0001524 Eh/α   predicted    -0.6231346E-06 ( -59.28%)
   displ. norm   :     0.0227149 α      lambda       -0.1437104E-05
   maximum displ.:     0.0181244 α      in ANC's #1, #6, #4, ...

   *** GEOMETRY OPTIMIZATION CONVERGED AFTER 44 ITERATIONS ***

------------------------------------------------------------------------
 total energy gain   :        -1.3262262 Eh     -832.2195 kcal/mol
 total RMSD          :         1.2908386 a0        0.6831 Å
 total power (kW/mol):       -79.1365117 (step) -537.5238 (real)
------------------------------------------------------------------------

 ANCopt (total)                0 d,  0 h,  0 min,  6.478 sec
 optimizer setup                ...        0 min,  0.000 sec (  0.001%)
 model hessian                  ...        0 min,  0.049 sec (  0.760%)
 ANC generation                 ...        0 min,  0.022 sec (  0.339%)
 coordinate transformation      ...        0 min,  0.000 sec (  0.008%)
 single point calculation       ...        0 min,  6.395 sec ( 98.717%)
 optimization log               ...        0 min,  0.005 sec (  0.070%)
 hessian update                 ...        0 min,  0.002 sec (  0.033%)
 rational function              ...        0 min,  0.004 sec (  0.057%)

================
 final structure:
================
 xtb: 6.6.1 (8d0f1dd)
          11012414013D

 53 60  0     0  0            999 V2000
    0.7051    1.8027   -0.7710 C   0  0  0  0  0  0  0  0  0  0  0  0
    1.1855    1.0159    0.3360 C   0  0  0  0  0  0  0  0  0  0  0  0
   -0.6644    1.8935   -1.1377 C   0  0  0  0  0  0  0  0  0  0  0  0
    1.6516    2.5741   -1.4812 C   0  0  0  0  0  0  0  0  0  0  0  0
    2.5726    0.7419    0.4421 C   0  0  0  0  0  0  0  0  0  0  0  0
   -1.1072    3.0426   -1.8622 C   0  0  0  0  0  0  0  0  0  0  0  0
    3.0301    2.3125   -1.3246 C   0  0  0  0  0  0  0  0  0  0  0  0
    1.1957    3.6075   -2.3421 C   0  0  0  0  0  0  0  0  0  0  0  0
    3.4754    1.3658   -0.4523 C   0  0  0  0  0  0  0  0  0  0  0  0
   -0.1253    3.8871   -2.4528 C   0  0  0  0  0  0  0  0  0  0  0  0
    0.3584    0.6146    1.3996 C   0  0  0  0  0  0  0  0  0  0  0  0
   -1.6313    0.8784   -0.8606 C   0  0  0  0  0  0  0  0  0  0  0  0
    3.0305   -0.0923    1.4781 C   0  0  0  0  0  0  0  0  0  0  0  0
   -2.4678    3.2973   -1.9963 C   0  0  0  0  0  0  0  0  0  0  0  0
    0.8352   -0.1615    2.4245 C   0  0  0  0  0  0  0  0  0  0  0  0
   -2.9997    1.2138   -0.9313 C   0  0  0  0  0  0  0  0  0  0  0  0
    2.1745   -0.5602    2.4380 C   0  0  0  0  0  0  0  0  0  0  0  0
   -3.4046    2.4207   -1.4568 C   0  0  0  0  0  0  0  0  0  0  0  0
    3.7295    2.8698   -1.9363 H   0  0  0  0  0  0  0  0  0  0  0  0
    1.9341    4.2028   -2.8657 H   0  0  0  0  0  0  0  0  0  0  0  0
    4.5281    1.1265   -0.3784 H   0  0  0  0  0  0  0  0  0  0  0  0
   -0.4672    4.7322   -3.0374 H   0  0  0  0  0  0  0  0  0  0  0  0
    4.0820   -0.3476    1.5096 H   0  0  0  0  0  0  0  0  0  0  0  0
   -2.7993    4.1796   -2.5250 H   0  0  0  0  0  0  0  0  0  0  0  0
    2.5338   -1.2100    3.2246 H   0  0  0  0  0  0  0  0  0  0  0  0
   -4.4621    2.6336   -1.5073 H   0  0  0  0  0  0  0  0  0  0  0  0
   -3.9997    0.3465   -0.5030 O   0  0  0  0  0  0  0  0  0  0  0  0
   -3.5834   -0.8683    0.0060 C   0  0  0  0  0  0  0  0  0  0  0  0
   -2.2712   -1.2774   -0.0889 C   0  0  0  0  0  0  0  0  0  0  0  0
   -1.3055   -0.4235   -0.6536 N   0  0  0  0  0  0  0  0  0  0  0  0
   -1.8361   -2.5232    0.4081 C   0  0  0  0  0  0  0  0  0  0  0  0
   -4.5222   -1.6938    0.6191 C   0  0  0  0  0  0  0  0  0  0  0  0
   -4.1130   -2.9202    1.1164 C   0  0  0  0  0  0  0  0  0  0  0  0
   -2.7996   -3.3392    1.0143 C   0  0  0  0  0  0  0  0  0  0  0  0
   -0.5417   -2.9186    0.2900 N   0  0  0  0  0  0  0  0  0  0  0  0
    0.2583   -2.0642   -0.3594 C   0  0  0  0  0  0  0  0  0  0  0  0
   -0.0295   -0.8774   -0.8336 N   0  0  0  0  0  0  0  0  0  0  0  0
    0.1729   -0.4739    3.2203 H   0  0  0  0  0  0  0  0  0  0  0  0
   -0.6736    0.9369    1.4164 H   0  0  0  0  0  0  0  0  0  0  0  0
    1.6576   -2.4702   -0.5520 C   0  0  0  0  0  0  0  0  0  0  0  0
    2.1776   -3.5385    0.1725 C   0  0  0  0  0  0  0  0  0  0  0  0
    3.5045   -3.8965    0.0331 C   0  0  0  0  0  0  0  0  0  0  0  0
    4.3280   -3.1955   -0.8333 C   0  0  0  0  0  0  0  0  0  0  0  0
    3.8134   -2.1365   -1.5645 C   0  0  0  0  0  0  0  0  0  0  0  0
    2.4878   -1.7748   -1.4279 C   0  0  0  0  0  0  0  0  0  0  0  0
    2.0758   -0.9480   -1.9844 H   0  0  0  0  0  0  0  0  0  0  0  0
    4.4539   -1.5879   -2.2425 H   0  0  0  0  0  0  0  0  0  0  0  0
    5.3689   -3.4744   -0.9386 H   0  0  0  0  0  0  0  0  0  0  0  0
    3.9053   -4.7242    0.6046 H   0  0  0  0  0  0  0  0  0  0  0  0
    1.5183   -4.0667    0.8438 H   0  0  0  0  0  0  0  0  0  0  0  0
   -2.4887   -4.2980    1.3999 H   0  0  0  0  0  0  0  0  0  0  0  0
   -4.8415   -3.5632    1.5933 H   0  0  0  0  0  0  0  0  0  0  0  0
   -5.5463   -1.3624    0.6940 H   0  0  0  0  0  0  0  0  0  0  0  0
  1  2  1  0  0  0  0
  1  3  1  0  0  0  0
  1  4  2  0  0  0  0
  2  5  1  0  0  0  0
  2 11  2  0  0  0  0
  3  6  1  0  0  0  0
  3 12  2  0  0  0  0
  4  7  1  0  0  0  0
  4  8  1  0  0  0  0
  5  9  1  0  0  0  0
  5 13  2  0  0  0  0
  6 10  1  0  0  0  0
  6 14  2  0  0  0  0
  7  9  2  0  0  0  0
  7 19  1  0  0  0  0
  8 10  2  0  0  0  0
  8 20  1  0  0  0  0
  9 21  1  0  0  0  0
 10 22  1  0  0  0  0
 11 15  1  0  0  0  0
 12 16  1  0  0  0  0
 13 17  1  0  0  0  0
 13 23  1  0  0  0  0
 14 18  1  0  0  0  0
 14 24  1  0  0  0  0
 15 17  2  0  0  0  0
 16 18  2  0  0  0  0
 17 25  1  0  0  0  0
 18 26  1  0  0  0  0
 27 28  1  0  0  0  0
 28 29  2  0  0  0  0
 29 30  1  0  0  0  0
 30 12  1  0  0  0  0
 29 31  1  0  0  0  0
 28 32  1  0  0  0  0
 32 33  2  0  0  0  0
 33 34  1  0  0  0  0
 34 31  2  0  0  0  0
 16 27  1  0  0  0  0
 31 35  1  0  0  0  0
 35 36  1  0  0  0  0
 36 37  2  0  0  0  0
 37 30  1  0  0  0  0
 15 38  1  0  0  0  0
 11 39  1  0  0  0  0
 36 40  1  0  0  0  0
 40 41  2  0  0  0  0
 41 42  1  0  0  0  0
 42 43  2  0  0  0  0
 43 44  1  0  0  0  0
 44 45  2  0  0  0  0
 45 40  1  0  0  0  0
 45 46  1  0  0  0  0
 44 47  1  0  0  0  0
 43 48  1  0  0  0  0
 42 49  1  0  0  0  0
 41 50  1  0  0  0  0
 34 51  1  0  0  0  0
 33 52  1  0  0  0  0
 32 53  1  0  0  0  0
M  CHG  1   1  -1
M  END

 Bond Distances (Angstroems)
 ---------------------------
C1-C2=1.4406         C1-C3=1.4206         C1-C4=1.4126         C2-C1=1.4406         C2-C5=1.4179         C2-C11=1.4058        
C3-C1=1.4206         C3-C6=1.4287         C3-C12=1.4291        C4-C1=1.4126         C4-C7=1.4118         C4-C8=1.4202         
C5-C2=1.4179         C5-C9=1.4157         C5-C13=1.4067        C6-C3=1.4287         C6-C10=1.4234        C6-C14=1.3907        
C7-C4=1.4118         C7-C9=1.3622         C7-H19=1.0834        C8-C4=1.4202         C8-C10=1.3548        C8-H20=1.0834        
C9-C5=1.4157         C9-C7=1.3622         C9-H21=1.0821        C10-C6=1.4234        C10-C8=1.3548        C10-H22=1.0830       
C11-C2=1.4058        C11-C15=1.3711       C11-H39=1.0814       C12-C3=1.4291        C12-C16=1.4106       C12-N30=1.3579       
C13-C5=1.4067        C13-C17=1.3685       C13-H23=1.0825       C14-C6=1.3907        C14-C18=1.3918       C14-H24=1.0807       
C15-C11=1.3711       C15-C17=1.3975       C15-H38=1.0814       C16-C12=1.4106       C16-C18=1.3772       C16-O27=1.3913       
C17-C13=1.3685       C17-C15=1.3975       C17-H25=1.0817       C18-C14=1.3918       C18-C16=1.3772       C18-H26=1.0798       
H19-C7=1.0834        H20-C8=1.0834        H21-C9=1.0821        H22-C10=1.0830       H23-C13=1.0825       H24-C14=1.0807       
H25-C17=1.0817       H26-C18=1.0798       O27-C16=1.3913       O27-C28=1.3814       C28-O27=1.3814       C28-C29=1.3778       
C28-C32=1.3923       C29-C28=1.3778       C29-N30=1.4074       C29-C31=1.4101       N30-C12=1.3579       N30-C29=1.4074       
N30-N37=1.3662       C31-C29=1.4101       C31-C34=1.4006       C31-N35=1.3585       C32-C28=1.3923       C32-C33=1.3852       
C32-H53=1.0789       C33-C32=1.3852       C33-C34=1.3825       C33-H52=1.0824       C34-C31=1.4006       C34-C33=1.3825       
C34-H51=1.0792       N35-C31=1.3585       N35-C36=1.3386       C36-N35=1.3386       C36-N37=1.3100       C36-C40=1.4697       
N37-N30=1.3662       N37-C36=1.3100       H38-C15=1.0814       H39-C11=1.0814       C40-C36=1.4697       C40-C41=1.3917       
C40-C45=1.3928       C41-C40=1.3917       C41-C42=1.3814       C41-H50=1.0790       C42-C41=1.3814       C42-C43=1.3857       
C42-H49=1.0827       C43-C42=1.3857       C43-C44=1.3860       C43-H48=1.0827       C44-C43=1.3860       C44-C45=1.3809       
C44-H47=1.0821       C45-C40=1.3928       C45-C44=1.3809       C45-H46=1.0784       H46-C45=1.0784       H47-C44=1.0821       
H48-C43=1.0827       H49-C42=1.0827       H50-C41=1.0790       H51-C34=1.0792       H52-C33=1.0824       H53-C32=1.0789       
 C  H  Rav=1.0814 sigma=0.0016  Rmin=1.0784  Rmax=1.0834    18
 C  C  Rav=1.3998 sigma=0.0236  Rmin=1.3548  Rmax=1.4697    34
 N  C  Rav=1.3545 sigma=0.0318  Rmin=1.3100  Rmax=1.4074     5
 N  N  Rav=1.3662 sigma=0.0000  Rmin=1.3662  Rmax=1.3662     1
 O  C  Rav=1.3864 sigma=0.0049  Rmin=1.3814  Rmax=1.3913     2

 selected bond angles (degree)
 --------------------
C3-C1-C2=123.69                C4-C1-C2=117.46                C4-C1-C3=118.77                C5-C2-C1=119.29                
C11-C2-C1=122.76               C11-C2-C5=117.63               C6-C3-C1=118.75                C12-C3-C1=123.84               
C12-C3-C6=117.38               C7-C4-C1=119.82                C8-C4-C1=119.15                C8-C4-C7=121.03                
C9-C5-C2=119.44                C13-C5-C2=119.22               C13-C5-C9=121.26               C10-C6-C3=118.28               
C14-C6-C3=119.96               C14-C6-C10=121.75              C9-C7-C4=121.26                H19-C7-C4=118.19               
H19-C7-C9=120.53               C10-C8-C4=120.84               H20-C8-C4=118.29               H20-C8-C10=120.78              
C7-C9-C5=120.16                H21-C9-C5=118.67               H21-C9-C7=121.03               C8-C10-C6=121.08               
H22-C10-C6=117.98              H22-C10-C8=120.86              

 selected dihedral angles (degree)
 ---------------------------------
C5-C2-C1-C3=165.75            C5-C2-C1-C4=342.50            C11-C2-C1-C3=339.12           C11-C2-C1-C4=155.86           
C6-C3-C1-C2=155.81            C6-C3-C1-C4=339.11            C12-C3-C1-C2=333.82           C12-C3-C1-C4=157.12           
C7-C4-C1-C2= 15.62            C7-C4-C1-C3=192.53            C8-C4-C1-C2=195.80            C8-C4-C1-C3= 12.71            
C9-C5-C2-C1=  6.96            C9-C5-C2-C11=193.26           C13-C5-C2-C1=183.76           C13-C5-C2-C11= 10.05          
C10-C6-C3-C1= 14.39           C10-C6-C3-C12=196.25          C14-C6-C3-C1=193.20           C14-C6-C3-C12= 15.06          
C9-C7-C4-C1=357.00            C9-C7-C4-C8=176.82            H19-C7-C4-C1=175.55           H19-C7-C4-C8=355.37           
C10-C8-C4-C1=  2.22           C10-C8-C4-C7=182.40           H20-C8-C4-C1=178.87           H20-C8-C4-C7=359.04           
C7-C9-C5-C2=  5.99            C7-C9-C5-C13=189.26           H21-C9-C5-C2=181.70           H21-C9-C5-C13=  4.97          
C5-C9-C7-C4=351.88            C5-C9-C7-H19=173.37           H21-C9-C7-C4=176.27           H21-C9-C7-H19=357.76          
C8-C10-C6-C3=  0.47           C8-C10-C6-C14=181.69          H22-C10-C6-C3=177.36          H22-C10-C6-C14=358.58         
C6-C10-C8-C4=351.13           C6-C10-C8-H20=174.56          H22-C10-C8-C4=174.33          H22-C10-C8-H20=357.76         
           -------------------------------------------------
          |                Final Singlepoint                |
           -------------------------------------------------

          ...................................................
          :                      SETUP                      :
          :.................................................:
          :  # basis functions                 158          :
          :  # atomic orbitals                 158          :
          :  # shells                           88          :
          :  # electrons                       164          :
          :  max. iterations                   250          :
          :  Hamiltonian                  GFN2-xTB          :
          :  restarted?                      false          :
          :  GBSA solvation                  false          :
          :  PC potential                    false          :
          :  electronic temp.          300.0000000     K    :
          :  accuracy                    1.0000000          :
          :  -> integral cutoff          0.2500000E+02      :
          :  -> integral neglect         0.1000000E-07      :
          :  -> SCF convergence          0.1000000E-05 Eh   :
          :  -> wf. convergence          0.1000000E-03 e    :
          :  Broyden damping             0.4000000          :
          ...................................................

 iter      E             dE          RMSdq      gap      omega  full diag
   1    -90.2176479 -0.902176E+02  0.427E-05    0.91       0.0  T
   2    -90.2176479  0.208331E-10  0.387E-05    0.91     355.4  T
   3    -90.2176479 -0.949143E-10  0.141E-05    0.91     973.2  T

   *** convergence criteria satisfied after 3 iterations ***

         #    Occupation            Energy/Eh            Energy/eV
      -------------------------------------------------------------
         1        2.0000           -0.6034813             -16.4216
       ...           ...                  ...                  ...
        76        2.0000           -0.2757398              -7.5033
        77        2.0000           -0.2650084              -7.2112
        78        2.0000           -0.2613132              -7.1107
        79        2.0000           -0.2538295              -6.9071
        80        2.0000           -0.2375857              -6.4650
        81        2.0000           -0.2189993              -5.9593
        82        2.0000           -0.1812340              -4.9316 (HOMO)
        83                         -0.1478420              -4.0230 (LUMO)
        84                         -0.1406751              -3.8280
        85                         -0.1349234              -3.6715
        86                         -0.1138136              -3.0970
        87                         -0.1093362              -2.9752
       ...                                ...                  ...
       158                          0.8354948              22.7350
      -------------------------------------------------------------
                  HL-Gap            0.0333920 Eh            0.9086 eV
             Fermi-level           -0.1645383 Eh           -4.4773 eV

 SCC (total)                   0 d,  0 h,  0 min,  0.059 sec
 SCC setup                      ...        0 min,  0.000 sec (  0.212%)
 Dispersion                     ...        0 min,  0.000 sec (  0.528%)
 classical contributions        ...        0 min,  0.000 sec (  0.149%)
 integral evaluation            ...        0 min,  0.002 sec (  3.265%)
 iterations                     ...        0 min,  0.043 sec ( 73.806%)
 molecular gradient             ...        0 min,  0.013 sec ( 21.498%)
 printout                       ...        0 min,  0.000 sec (  0.530%)

         :::::::::::::::::::::::::::::::::::::::::::::::::::::
         ::                     SUMMARY                     ::
         :::::::::::::::::::::::::::::::::::::::::::::::::::::
         :: total energy             -88.663334459090 Eh    ::
         :: gradient norm              0.000152815505 Eh/a0 ::
         :: HOMO-LUMO gap              0.908643530371 eV    ::
         ::.................................................::
         :: SCC energy               -90.217647863852 Eh    ::
         :: -> isotropic ES            0.108505573201 Eh    ::
         :: -> anisotropic ES          0.022907950469 Eh    ::
         :: -> anisotropic XC          0.046717155992 Eh    ::
         :: -> dispersion             -0.089134020529 Eh    ::
         :: repulsion energy           1.552273755334 Eh    ::
         :: add. restraining           0.000000000000 Eh    ::
         :: total charge              -1.000000000025 e     ::
         :::::::::::::::::::::::::::::::::::::::::::::::::::::

           -------------------------------------------------
          |                Property Printout                |
           -------------------------------------------------

    * Orbital Energies and Occupations

         #    Occupation            Energy/Eh            Energy/eV
      -------------------------------------------------------------
         1        2.0000           -0.6034813             -16.4216
       ...           ...                  ...                  ...
        70        2.0000           -0.3014846              -8.2038
        71        2.0000           -0.2999760              -8.1628
        72        2.0000           -0.2972519              -8.0886
        73        2.0000           -0.2965402              -8.0693
        74        2.0000           -0.2911852              -7.9236
        75        2.0000           -0.2825459              -7.6885
        76        2.0000           -0.2757398              -7.5033
        77        2.0000           -0.2650084              -7.2112
        78        2.0000           -0.2613132              -7.1107
        79        2.0000           -0.2538295              -6.9071
        80        2.0000           -0.2375857              -6.4650
        81        2.0000           -0.2189993              -5.9593
        82        2.0000           -0.1812340              -4.9316 (HOMO)
        83                         -0.1478420              -4.0230 (LUMO)
        84                         -0.1406751              -3.8280
        85                         -0.1349234              -3.6715
        86                         -0.1138136              -3.0970
        87                         -0.1093362              -2.9752
        88                         -0.0992088              -2.6996
        89                         -0.0925217              -2.5176
        90                         -0.0813712              -2.2142
        91                         -0.0625815              -1.7029
        92                         -0.0490440              -1.3346
        93                         -0.0310926              -0.8461
       ...                                ...                  ...
       158                          0.8354948              22.7350
      -------------------------------------------------------------
                  HL-Gap            0.0333920 Eh            0.9086 eV
             Fermi-level           -0.1645383 Eh           -4.4773 eV

     #   Z          covCN         q      C6AA      α(0)
     1   6 C        2.979     0.009    27.819     8.652
     2   6 C        2.984     0.019    27.584     8.615
     3   6 C        2.982    -0.020    28.511     8.759
     4   6 C        2.986    -0.005    28.142     8.702
     5   6 C        2.988     0.009    27.800     8.649
     6   6 C        2.984    -0.006    28.153     8.704
     7   6 C        2.917    -0.045    29.114     8.848
     8   6 C        2.914    -0.046    29.130     8.850
     9   6 C        2.915    -0.050    29.235     8.866
    10   6 C        2.915    -0.046    29.152     8.854
    11   6 C        2.920    -0.025    28.617     8.773
    12   6 C        2.925     0.024    27.465     8.594
    13   6 C        2.922    -0.040    29.001     8.831
    14   6 C        2.920    -0.074    29.840     8.958
    15   6 C        2.917    -0.037    28.914     8.818
    16   6 C        2.876     0.104    25.702     8.311
    17   6 C        2.916    -0.034    28.851     8.808
    18   6 C        2.913    -0.071    29.767     8.947
    19   1 H        0.925     0.004     2.997     2.707
    20   1 H        0.925     0.003     3.003     2.710
    21   1 H        0.925     0.004     2.993     2.705
    22   1 H        0.925     0.004     2.983     2.701
    23   1 H        0.925     0.008     2.916     2.670
    24   1 H        0.926     0.003     3.012     2.714
    25   1 H        0.925     0.008     2.929     2.676
    26   1 H        0.926     0.017     2.782     2.608
    27   8 O        1.706    -0.292    18.862     5.864
    28   6 C        2.874     0.111    25.546     8.286
    29   6 C        2.939    -0.002    28.082     8.691
    30   7 N        2.850     0.049    20.380     6.705
    31   6 C        2.967     0.090    25.996     8.363
    32   6 C        2.918    -0.079    29.970     8.977
    33   6 C        2.918    -0.046    29.148     8.853
    34   6 C        2.922    -0.076    29.897     8.967
    35   7 N        1.840    -0.381    30.806     8.225
    36   6 C        2.908     0.171    24.330     8.088
    37   7 N        1.924    -0.295    28.494     7.915
    38   1 H        0.925     0.011     2.877     2.652
    39   1 H        0.925     0.018     2.769     2.602
    40   6 C        2.991     0.007    27.862     8.659
    41   6 C        2.925    -0.031    28.771     8.796
    42   6 C        2.919    -0.036    28.890     8.814
    43   6 C        2.920    -0.039    28.972     8.827
    44   6 C        2.919    -0.032    28.810     8.802
    45   6 C        2.924    -0.029    28.714     8.788
    46   1 H        0.926     0.046     2.371     2.408
    47   1 H        0.925     0.013     2.843     2.637
    48   1 H        0.925     0.006     2.956     2.689
    49   1 H        0.925     0.009     2.903     2.664
    50   1 H        0.926     0.047     2.355     2.400
    51   1 H        0.926     0.021     2.720     2.579
    52   1 H        0.925     0.006     2.957     2.689
    53   1 H        0.926     0.017     2.774     2.604

 Mol. C6AA /au·bohr⁶  :      46151.162503
 Mol. C8AA /au·bohr⁸  :    1173965.082597
 Mol. α(0) /au        :        346.574119


Wiberg/Mayer (AO) data.
largest (>0.10) Wiberg bond orders for each atom

 ---------------------------------------------------------------------------
     #   Z sym  total        # sym  WBO       # sym  WBO       # sym  WBO
 ---------------------------------------------------------------------------
     1   6 C    3.981 --     4 C    1.292     3 C    1.262     2 C    1.170
     2   6 C    3.986 --    11 C    1.315     5 C    1.262     1 C    1.170
     3   6 C    3.974 --     1 C    1.262     6 C    1.219    12 C    1.203
     4   6 C    3.975 --     1 C    1.292     7 C    1.261     8 C    1.223
     5   6 C    3.985 --    13 C    1.297     2 C    1.262     9 C    1.239
     6   6 C    3.982 --    14 C    1.370     3 C    1.219    10 C    1.211
     7   6 C    3.968 --     9 C    1.570     4 C    1.261    19 H    0.968
     8   6 C    3.980 --    10 C    1.623     4 C    1.223    20 H    0.968
     9   6 C    3.957 --     7 C    1.570     5 C    1.239    21 H    0.969
    10   6 C    3.974 --     8 C    1.623     6 C    1.211    22 H    0.968
    11   6 C    3.992 --    15 C    1.517     2 C    1.315    39 H    0.966
                            13 C    0.108
    12   6 C    3.964 --    16 C    1.267     3 C    1.203    30 N    1.193
    13   6 C    3.982 --    17 C    1.529     5 C    1.297    23 H    0.969
                            11 C    0.108
    14   6 C    3.926 --    18 C    1.372     6 C    1.370    24 H    0.970
    15   6 C    3.985 --    11 C    1.517    17 C    1.344    38 H    0.972
    16   6 C    3.906 --    18 C    1.428    12 C    1.267    27 O    0.994
    17   6 C    3.984 --    13 C    1.529    15 C    1.344    25 H    0.972
    18   6 C    3.960 --    16 C    1.428    14 C    1.372    26 H    0.969
    19   1 H    0.999 --     7 C    0.968
    20   1 H    0.999 --     8 C    0.968
    21   1 H    0.999 --     9 C    0.969
    22   1 H    0.999 --    10 C    0.968
    23   1 H    0.999 --    13 C    0.969
    24   1 H    0.999 --    14 C    0.970
    25   1 H    0.999 --    17 C    0.972
    26   1 H    0.999 --    18 C    0.969
    27   8 O    2.235 --    28 C    1.007    16 C    0.994
    28   6 C    3.920 --    29 C    1.379    32 C    1.345    27 O    1.007
    29   6 C    3.953 --    28 C    1.379    31 C    1.257    30 N    1.030
    30   7 N    3.615 --    12 C    1.193    37 N    1.063    29 C    1.030
    31   6 C    3.979 --    34 C    1.314    29 C    1.257    35 N    1.235
    32   6 C    3.964 --    33 C    1.426    28 C    1.345    53 H    0.971
    33   6 C    3.977 --    34 C    1.451    32 C    1.426    52 H    0.972
    34   6 C    3.965 --    33 C    1.451    31 C    1.314    51 H    0.971
    35   7 N    2.917 --    36 C    1.316    31 C    1.235    37 N    0.120
    36   6 C    3.966 --    37 N    1.461    35 N    1.316    40 C    1.037
    37   7 N    2.971 --    36 C    1.461    30 N    1.063    35 N    0.120
    38   1 H    0.999 --    15 C    0.972
    39   1 H    0.999 --    11 C    0.966
    40   6 C    3.982 --    41 C    1.385    45 C    1.381    36 C    1.037
                            43 C    0.103
    41   6 C    3.984 --    42 C    1.455    40 C    1.385    50 H    0.966
                            44 C    0.104
    42   6 C    3.991 --    41 C    1.455    43 C    1.431    49 H    0.972
                            45 C    0.106
    43   6 C    3.981 --    42 C    1.431    44 C    1.428    48 H    0.972
                            40 C    0.103
    44   6 C    3.991 --    45 C    1.458    43 C    1.428    47 H    0.971
                            41 C    0.104
    45   6 C    3.985 --    44 C    1.458    40 C    1.381    46 H    0.966
                            42 C    0.106
    46   1 H    0.998 --    45 C    0.966
    47   1 H    0.999 --    44 C    0.971
    48   1 H    1.000 --    43 C    0.972
    49   1 H    0.999 --    42 C    0.972
    50   1 H    0.998 --    41 C    0.966
    51   1 H    0.999 --    34 C    0.971
    52   1 H    0.999 --    33 C    0.972
    53   1 H    0.999 --    32 C    0.971
 ---------------------------------------------------------------------------

Topologies differ in bond orders
Writing corrected topology to xtbtopo.mol

molecular dipole:
                 x           y           z       tot (Debye)
 q only:        1.275       0.805       0.721
   full:        1.011       0.884       0.790       3.960
molecular quadrupole (traceless):
                xx          xy          yy          xz          yz          zz
 q only:      -13.351      -0.419      -5.370      -1.317       9.206      18.721
  q+dip:       -3.487      -1.947     -11.136      -3.222      -0.023      14.623
   full:       -8.717      -0.122     -10.103      -1.540       7.437      18.820

           -------------------------------------------------
          |                Geometry Summary                 |
           -------------------------------------------------

      molecular mass/u    :      448.4952609
   center of mass at/Å    :        0.0131943      -0.1808786      -0.3298701
  moments of inertia/u·Å² :        0.2904327E+04   0.3501960E+04   0.5489472E+04
rotational constants/cm⁻¹ :        0.5804317E-02   0.4813771E-02   0.3070903E-02

 * 57 selected distances

     #   Z          #   Z                                           value/Å
     1   6 C        3   6 C                                       1.4206413
     1   6 C        4   6 C                                       1.4125708
     2   6 C        5   6 C                                       1.4178845
     3   6 C        6   6 C                                       1.4287382
     4   6 C        7   6 C                                       1.4117977
     4   6 C        8   6 C                                       1.4201756
     5   6 C        9   6 C                                       1.4157015
     7   6 C        9   6 C                                       1.3622440
     6   6 C       10   6 C                                       1.4234232
     8   6 C       10   6 C                                       1.3548089
     2   6 C       11   6 C                                       1.4058002
     3   6 C       12   6 C                                       1.4290885 (max)
     5   6 C       13   6 C                                       1.4067497
     6   6 C       14   6 C                                       1.3907207
    11   6 C       15   6 C                                       1.3711401
    12   6 C       16   6 C                                       1.4106166
    13   6 C       17   6 C                                       1.3685487
    15   6 C       17   6 C                                       1.3974818
    14   6 C       18   6 C                                       1.3918142
    16   6 C       18   6 C                                       1.3771899
     7   6 C       19   1 H                                       1.0834486
     8   6 C       20   1 H                                       1.0833796
     9   6 C       21   1 H                                       1.0820576
    10   6 C       22   1 H                                       1.0829850
    13   6 C       23   1 H                                       1.0825151
    14   6 C       24   1 H                                       1.0807115
    17   6 C       25   1 H                                       1.0817219
    18   6 C       26   1 H                                       1.0798319
    16   6 C       27   8 O                                       1.3913033
    27   8 O       28   6 C                                       1.3814232
    28   6 C       29   6 C                                       1.3778110
    12   6 C       30   7 N                                       1.3578652
    29   6 C       30   7 N                                       1.4073758
    29   6 C       31   6 C                                       1.4100701
    28   6 C       32   6 C                                       1.3923476
    32   6 C       33   6 C                                       1.3852359
    31   6 C       34   6 C                                       1.4006210
    33   6 C       34   6 C                                       1.3824544
    31   6 C       35   7 N                                       1.3585459
    35   7 N       36   6 C                                       1.3385775
    36   6 C       37   7 N                                       1.3100349
    15   6 C       38   1 H                                       1.0814196
    11   6 C       39   1 H                                       1.0813527
    40   6 C       41   6 C                                       1.3916636
    41   6 C       42   6 C                                       1.3814101
    42   6 C       43   6 C                                       1.3857261
    43   6 C       44   6 C                                       1.3860376
    40   6 C       45   6 C                                       1.3927695
Note: The following floating-point exceptions are signalling: IEEE_UNDERFLOW_FLAG
normal termination of xtb
    44   6 C       45   6 C                                       1.3808553
    45   6 C       46   1 H                                       1.0784410 (min)
    44   6 C       47   1 H                                       1.0821176
    43   6 C       48   1 H                                       1.0827173
    42   6 C       49   1 H                                       1.0827481
    41   6 C       50   1 H                                       1.0789567
    34   6 C       51   1 H                                       1.0791665
    33   6 C       52   1 H                                       1.0823902
    32   6 C       53   1 H                                       1.0789049

 * 4 distinct bonds (by element types)

   Z      Z             #   av. dist./Å        max./Å        min./Å
   1 H    6 C          18     1.0813814     1.0834486     1.0784410
   6 C    6 C          32     1.3963793     1.4290885     1.3548089
   6 C    7 N           5     1.3544799     1.4073758     1.3100349
   6 C    8 O           2     1.3863632     1.3913033     1.3814232


optimized geometry written to: xtbopt.mol


           -------------------------------------------------
          | TOTAL ENERGY              -88.663334459090 Eh   |
          | GRADIENT NORM               0.000152815505 Eh/α |
          | HOMO-LUMO GAP               0.908643530371 eV   |
           -------------------------------------------------
########################################################################
[WARNING] Runtime exception occurred
-2- restart_readRestart: Multiplicity missmatch in restart file.
-1- restart_readRestart: Number of electron missmatch in restart file.
########################################################################

------------------------------------------------------------------------
 * finished run on 2024/11/01 at 14:01:04.863     
------------------------------------------------------------------------
 total:
 * wall-time:     0 d,  0 h,  0 min,  7.040 sec
 *  cpu-time:     0 d,  0 h,  0 min, 20.961 sec
 * ratio c/w:     2.978 speedup
 SCF:
 * wall-time:     0 d,  0 h,  0 min,  0.493 sec
 *  cpu-time:     0 d,  0 h,  0 min,  1.711 sec
 * ratio c/w:     3.472 speedup
 ANC optimizer:
 * wall-time:     0 d,  0 h,  0 min,  6.538 sec
 *  cpu-time:     0 d,  0 h,  0 min, 19.237 sec
 * ratio c/w:     2.942 speedup

