      -----------------------------------------------------------      
     |                   =====================                   |     
     |                           x T B                           |     
     |                   =====================                   |     
     |                         S. Grimme                         |     
     |          Mulliken Center for Theoretical Chemistry        |     
     |                    University of Bonn                     |     
      -----------------------------------------------------------      

   * xtb version 6.6.1 (8d0f1dd) compiled by 'runner@Mac-1690902418499.local' on 2023-08-01

   xtb is free software: you can redistribute it and/or modify it under
   the terms of the GNU Lesser General Public License as published by
   the Free Software Foundation, either version 3 of the License, or
   (at your option) any later version.
   
   xtb is distributed in the hope that it will be useful,
   but WITHOUT ANY WARRANTY; without even the implied warranty of
   MERCHANTABILITY or FITNESS FOR A PARTICULAR PURPOSE.  See the
   GNU Lesser General Public License for more details.
   
   Cite this work as:
   * C. Bannwarth, E. Caldeweyher, S. Ehlert, A. Hansen, P. Pracht,
     J. Seibert, S. Spicher, S. Grimme, WIREs Comput. Mol. Sci., 2020, 11,
     e01493. DOI: 10.1002/wcms.1493
   
   for GFN2-xTB:
   * C. Bannwarth, S. Ehlert and S. Grimme., J. Chem. Theory Comput., 2019,
     15, 1652-1671. DOI: 10.1021/acs.jctc.8b01176
   for GFN1-xTB:
   * S. Grimme, C. Bannwarth, P. Shushkov, J. Chem. Theory Comput., 2017,
     13, 1989-2009. DOI: 10.1021/acs.jctc.7b00118
   for GFN0-xTB:
   * P. Pracht, E. Caldeweyher, S. Ehlert, S. Grimme, ChemRxiv, 2019, preprint.
     DOI: 10.26434/chemrxiv.8326202.v1
   for GFN-FF:
   * S. Spicher and S. Grimme, Angew. Chem. Int. Ed., 2020, 59, 15665-15673.
     DOI: 10.1002/anie.202004239
   
   for ALPB and GBSA implicit solvation:
   * S. Ehlert, M. Stahn, S. Spicher, S. Grimme, J. Chem. Theory Comput.,
     2021, 17, 4250-4261. DOI: 10.1021/acs.jctc.1c00471
   
   for DFT-D4:
   * E. Caldeweyher, C. Bannwarth and S. Grimme, J. Chem. Phys., 2017,
     147, 034112. DOI: 10.1063/1.4993215
   * E. Caldeweyher, S. Ehlert, A. Hansen, H. Neugebauer, S. Spicher,
     C. Bannwarth and S. Grimme, J. Chem. Phys., 2019, 150, 154122.
     DOI: 10.1063/1.5090222
   * E. Caldeweyher, J.-M. Mewes, S. Ehlert and S. Grimme, Phys. Chem. Chem. Phys.
     2020, 22, 8499-8512. DOI: 10.1039/D0CP00502A
   
   for sTDA-xTB:
   * S. Grimme and C. Bannwarth, J. Chem. Phys., 2016, 145, 054103.
     DOI: 10.1063/1.4959605
   
   in the mass-spec context:
   * V. Asgeirsson, C. Bauer and S. Grimme, Chem. Sci., 2017, 8, 4879.
     DOI: 10.1039/c7sc00601b
   * J. Koopman and S. Grimme, ACS Omega 2019, 4, 12, 15120-15133.
     DOI: 10.1021/acsomega.9b02011
   
   for metadynamics refer to:
   * S. Grimme, J. Chem. Theory Comput., 2019, 155, 2847-2862
     DOI: 10.1021/acs.jctc.9b00143
   
   for SPH calculations refer to:
   * S. Spicher and S. Grimme, J. Chem. Theory Comput., 2021, 17, 1701-1714
     DOI: 10.1021/acs.jctc.0c01306
   
   with help from (in alphabetical order)
   P. Atkinson, C. Bannwarth, F. Bohle, G. Brandenburg, E. Caldeweyher
   M. Checinski, S. Dohm, S. Ehlert, S. Ehrlich, I. Gerasimov, C. Hölzer
   A. Katbashev, J. Koopman, C. Lavigne, S. Lehtola, F. März, M. Müller,
   F. Musil, H. Neugebauer, J. Pisarek, C. Plett, P. Pracht, F. Pultar,
   J. Seibert, P. Shushkov, S. Spicher, M. Stahn, M. Steiner, T. Strunk,
   J. Stückrath, T. Rose, and J. Unsleber
   
 * started run on 2024/11/01 at 14:02:03.435     

           -------------------------------------------------
          |                Calculation Setup                |
           -------------------------------------------------

          program call               : xtb opt_cation_Blatter1.mol --gfn2 --sp --chrg 1 --uhf 0
          coordinate file            : opt_cation_Blatter1.mol
          omp threads                :                     8

   ID    Z sym.   atoms
    1    6 C      1-18, 28, 29, 31-34, 36, 40-45
    2    1 H      19-26, 38, 39, 46-53
    3    8 O      27
    4    7 N      30, 35, 37
########################################################################
[WARNING] Please study the warnings concerning your input carefully
-1- prog_main: Charge in sdf/mol input was overwritten
########################################################################

           -------------------------------------------------
          |                 G F N 2 - x T B                 |
           -------------------------------------------------

        Reference                      10.1021/acs.jctc.8b01176
      * Hamiltonian:
        H0-scaling (s, p, d)           1.850000    2.230000    2.230000
        zeta-weighting                 0.500000
      * Dispersion:
        s8                             2.700000
        a1                             0.520000
        a2                             5.000000
        s9                             5.000000
      * Repulsion:
        kExp                           1.500000    1.000000
        rExp                           1.000000
      * Coulomb:
        alpha                          2.000000
        third order                    shell-resolved
        anisotropic                    true
        a3                             3.000000
        a5                             4.000000
        cn-shift                       1.200000
        cn-exp                         4.000000
        max-rad                        5.000000

q/qsh data taken from xtbrestart
CAMM data taken from xtbrestart

          ...................................................
          :                      SETUP                      :
          :.................................................:
          :  # basis functions                 158          :
          :  # atomic orbitals                 158          :
          :  # shells                           88          :
          :  # electrons                       162          :
          :  max. iterations                   250          :
          :  Hamiltonian                  GFN2-xTB          :
          :  restarted?                       true          :
          :  GBSA solvation                  false          :
          :  PC potential                    false          :
          :  electronic temp.          300.0000000     K    :
          :  accuracy                    1.0000000          :
          :  -> integral cutoff          0.2500000E+02      :
          :  -> integral neglect         0.1000000E-07      :
          :  -> SCF convergence          0.1000000E-05 Eh   :
          :  -> wf. convergence          0.1000000E-03 e    :
          :  Broyden damping             0.4000000          :
          ...................................................

 iter      E             dE          RMSdq      gap      omega  full diag
   1    -89.4912201 -0.894912E+02  0.123E+00    1.23       0.0  T
   2    -89.5638644 -0.726442E-01  0.910E-01    0.92       1.0  T
   3    -89.5889072 -0.250428E-01  0.509E-01    1.12       1.0  T
   4    -89.5895874 -0.680260E-03  0.414E-01    0.95       1.0  T
   5    -89.5927636 -0.317616E-02  0.137E-01    0.98       1.0  T
   6    -89.5933033 -0.539673E-03  0.458E-02    1.01       1.0  T
   7    -89.5934098 -0.106510E-03  0.154E-02    1.00       1.0  T
   8    -89.5934189 -0.916321E-05  0.735E-03    1.00       1.9  T
   9    -89.5934194 -0.472203E-06  0.412E-03    1.00       3.3  T
  10    -89.5934200 -0.627059E-06  0.128E-03    1.00      10.8  T
  11    -89.5934201 -0.716940E-07  0.653E-04    1.00      21.1  T
  12    -89.5934201 -0.946100E-08  0.296E-04    1.00      46.4  T

   *** convergence criteria satisfied after 12 iterations ***

         #    Occupation            Energy/Eh            Energy/eV
      -------------------------------------------------------------
         1        2.0000           -0.8895207             -24.2051
       ...           ...                  ...                  ...
        75        2.0000           -0.5256873             -14.3047
        76        2.0000           -0.5165265             -14.0554
        77        2.0000           -0.5110738             -13.9070
        78        2.0000           -0.5079810             -13.8229
        79        2.0000           -0.5026289             -13.6772
        80        2.0000           -0.4976705             -13.5423
        81        2.0000           -0.4923123             -13.3965 (HOMO)
        82                         -0.4556160             -12.3979 (LUMO)
        83                         -0.4012582             -10.9188
        84                         -0.4008882             -10.9087
        85                         -0.3802926             -10.3483
        86                         -0.3641169              -9.9081
       ...                                ...                  ...
       158                          0.5931600              16.1407
      -------------------------------------------------------------
                  HL-Gap            0.0366962 Eh            0.9986 eV
             Fermi-level           -0.4739625 Eh          -12.8972 eV

 SCC (total)                   0 d,  0 h,  0 min,  0.239 sec
 SCC setup                      ...        0 min,  0.000 sec (  0.054%)
 Dispersion                     ...        0 min,  0.000 sec (  0.156%)
 classical contributions        ...        0 min,  0.000 sec (  0.040%)
 integral evaluation            ...        0 min,  0.002 sec (  0.920%)
 iterations                     ...        0 min,  0.228 sec ( 95.450%)
 molecular gradient             ...        0 min,  0.008 sec (  3.174%)
 printout                       ...        0 min,  0.000 sec (  0.204%)

         :::::::::::::::::::::::::::::::::::::::::::::::::::::
         ::                     SUMMARY                     ::
         :::::::::::::::::::::::::::::::::::::::::::::::::::::
         :: total energy             -88.027831390786 Eh    ::
         :: gradient norm              0.000713641051 Eh/a0 ::
         :: HOMO-LUMO gap              0.998554938012 eV    ::
         ::.................................................::
         :: SCC energy               -89.593420110992 Eh    ::
         :: -> isotropic ES            0.080079295878 Eh    ::
         :: -> anisotropic ES         -0.005992533851 Eh    ::
         :: -> anisotropic XC          0.056193690835 Eh    ::
         :: -> dispersion             -0.084304384876 Eh    ::
         :: repulsion energy           1.563602658824 Eh    ::
         :: add. restraining           0.000000000000 Eh    ::
         :: total charge               1.000023262365 e     ::
         :::::::::::::::::::::::::::::::::::::::::::::::::::::

           -------------------------------------------------
          |                Property Printout                |
           -------------------------------------------------

    * Orbital Energies and Occupations

         #    Occupation            Energy/Eh            Energy/eV
      -------------------------------------------------------------
         1        2.0000           -0.8895207             -24.2051
       ...           ...                  ...                  ...
        69        2.0000           -0.5469674             -14.8837
        70        2.0000           -0.5395980             -14.6832
        71        2.0000           -0.5316358             -14.4665
        72        2.0000           -0.5295089             -14.4087
        73        2.0000           -0.5283359             -14.3768
        74        2.0000           -0.5259709             -14.3124
        75        2.0000           -0.5256873             -14.3047
        76        2.0000           -0.5165265             -14.0554
        77        2.0000           -0.5110738             -13.9070
        78        2.0000           -0.5079810             -13.8229
        79        2.0000           -0.5026289             -13.6772
        80        2.0000           -0.4976705             -13.5423
        81        2.0000           -0.4923123             -13.3965 (HOMO)
        82                         -0.4556160             -12.3979 (LUMO)
        83                         -0.4012582             -10.9188
        84                         -0.4008882             -10.9087
        85                         -0.3802926             -10.3483
        86                         -0.3641169              -9.9081
        87                         -0.3492247              -9.5029
        88                         -0.3390261              -9.2254
        89                         -0.3310715              -9.0089
        90                         -0.3265569              -8.8861
        91                         -0.3045710              -8.2878
        92                         -0.2944892              -8.0135
       ...                                ...                  ...
       158                          0.5931600              16.1407
      -------------------------------------------------------------
                  HL-Gap            0.0366962 Eh            0.9986 eV
             Fermi-level           -0.4739625 Eh          -12.8972 eV

     #   Z          covCN         q      C6AA      α(0)
     1   6 C        2.977     0.013    27.715     8.635
     2   6 C        2.982     0.016    27.649     8.625
     3   6 C        2.977     0.011    27.758     8.642
     4   6 C        2.988     0.029    27.354     8.579
     5   6 C        2.988     0.021    27.520     8.605
     6   6 C        2.987     0.018    27.601     8.618
     7   6 C        2.916    -0.031    28.773     8.796
     8   6 C        2.917    -0.023    28.581     8.767
     9   6 C        2.915    -0.022    28.552     8.762
    10   6 C        2.917    -0.026    28.653     8.778
    11   6 C        2.920    -0.032    28.801     8.801
    12   6 C        2.939     0.012    27.737     8.637
    13   6 C        2.922    -0.026    28.659     8.779
    14   6 C        2.922    -0.012    28.325     8.728
    15   6 C        2.916    -0.026    28.663     8.779
    16   6 C        2.890     0.149    24.764     8.159
    17   6 C        2.916    -0.022    28.546     8.761
    18   6 C        2.911    -0.048    29.185     8.858
    19   1 H        0.926     0.060     2.199     2.319
    20   1 H        0.926     0.068     2.112     2.273
    21   1 H        0.926     0.058     2.219     2.329
    22   1 H        0.926     0.067     2.124     2.279
    23   1 H        0.926     0.054     2.276     2.359
    24   1 H        0.926     0.086     1.918     2.166
    25   1 H        0.926     0.055     2.257     2.349
    26   1 H        0.926     0.090     1.878     2.143
    27   8 O        1.711    -0.181    17.029     5.572
    28   6 C        2.883     0.137    25.014     8.199
    29   6 C        2.952     0.018    27.616     8.619
    30   7 N        2.857     0.189    18.095     6.318
    31   6 C        2.972     0.105    25.665     8.310
    32   6 C        2.915    -0.047    29.178     8.858
    33   6 C        2.919    -0.010    28.268     8.719
    34   6 C        2.915    -0.043    29.071     8.842
    35   7 N        1.844    -0.231    26.906     7.687
    36   6 C        2.917     0.182    24.108     8.052
    37   7 N        1.945    -0.197    26.087     7.574
    38   1 H        0.926     0.046     2.372     2.409
    39   1 H        0.925     0.021     2.718     2.578
    40   6 C        2.987     0.001    27.998     8.680
    41   6 C        2.923    -0.019    28.487     8.753
    42   6 C        2.918    -0.020    28.514     8.757
    43   6 C        2.920    -0.013    28.336     8.729
    44   6 C        2.918    -0.022    28.566     8.765
    45   6 C        2.922    -0.022    28.549     8.762
    46   1 H        0.926     0.051     2.311     2.377
    47   1 H        0.926     0.054     2.273     2.357
    48   1 H        0.926     0.062     2.180     2.309
    49   1 H        0.926     0.061     2.183     2.310
    50   1 H        0.926     0.069     2.099     2.266
    51   1 H        0.926     0.093     1.847     2.125
    52   1 H        0.926     0.088     1.898     2.154
    53   1 H        0.926     0.091     1.869     2.138

 Mol. C6AA /au·bohr⁶  :      43488.929271
 Mol. C8AA /au·bohr⁸  :    1119254.645970
 Mol. α(0) /au        :        336.745893


Wiberg/Mayer (AO) data.
largest (>0.10) Wiberg bond orders for each atom

 ---------------------------------------------------------------------------
     #   Z sym  total        # sym  WBO       # sym  WBO       # sym  WBO
 ---------------------------------------------------------------------------
     1   6 C    3.982 --     4 C    1.295     3 C    1.238     2 C    1.188
     2   6 C    3.988 --    11 C    1.309     5 C    1.266     1 C    1.188
     3   6 C    3.982 --     6 C    1.255     1 C    1.238    12 C    1.225
     4   6 C    3.978 --     1 C    1.295     8 C    1.255     7 C    1.229
     5   6 C    3.987 --    13 C    1.317     2 C    1.266     9 C    1.215
     6   6 C    3.978 --    14 C    1.292     3 C    1.255    10 C    1.244
     7   6 C    3.983 --     9 C    1.619     4 C    1.229    19 H    0.964
     8   6 C    3.972 --    10 C    1.585     4 C    1.255    20 H    0.963
     9   6 C    3.967 --     7 C    1.619     5 C    1.215    21 H    0.965
    10   6 C    3.969 --     8 C    1.585     6 C    1.244    22 H    0.963
    11   6 C    3.990 --    15 C    1.504     2 C    1.309    39 H    0.966
                            13 C    0.102
    12   6 C    3.940 --    16 C    1.287     3 C    1.225    30 N    1.092
    13   6 C    3.974 --    17 C    1.505     5 C    1.317    23 H    0.966
                            11 C    0.102
    14   6 C    3.954 --    18 C    1.511     6 C    1.292    24 H    0.961
    15   6 C    3.982 --    11 C    1.504    17 C    1.361    38 H    0.969
    16   6 C    3.920 --    18 C    1.311    12 C    1.287    27 O    1.089
    17   6 C    3.980 --    13 C    1.505    15 C    1.361    25 H    0.969
    18   6 C    3.966 --    14 C    1.511    16 C    1.311    26 H    0.960
    19   1 H    0.995 --     7 C    0.964
    20   1 H    0.994 --     8 C    0.963
    21   1 H    0.995 --     9 C    0.965
    22   1 H    0.994 --    10 C    0.963
    23   1 H    0.997 --    13 C    0.966
    24   1 H    0.991 --    14 C    0.961
    25   1 H    0.996 --    17 C    0.969
    26   1 H    0.990 --    18 C    0.960
    27   8 O    2.413 --    16 C    1.089    28 C    1.054
    28   6 C    3.923 --    32 C    1.418    29 C    1.248    27 O    1.054
    29   6 C    3.945 --    28 C    1.248    30 N    1.186    31 C    1.185
    30   7 N    3.794 --    37 N    1.309    29 C    1.186    12 C    1.092
    31   6 C    3.974 --    34 C    1.304    35 N    1.290    29 C    1.185
    32   6 C    3.959 --    28 C    1.418    33 C    1.370    53 H    0.962
    33   6 C    3.972 --    34 C    1.498    32 C    1.370    52 H    0.964
    34   6 C    3.969 --    33 C    1.498    31 C    1.304    51 H    0.961
    35   7 N    3.063 --    36 C    1.430    31 C    1.290
    36   6 C    3.954 --    35 N    1.430    37 N    1.253    40 C    1.085
    37   7 N    3.036 --    30 N    1.309    36 C    1.253
    38   1 H    0.997 --    15 C    0.969
    39   1 H    0.999 --    11 C    0.966
    40   6 C    3.980 --    41 C    1.356    45 C    1.356    36 C    1.085
    41   6 C    3.982 --    42 C    1.465    40 C    1.356    50 H    0.965
                            44 C    0.102
    42   6 C    3.988 --    41 C    1.465    43 C    1.424    49 H    0.968
                            45 C    0.102
    43   6 C    3.973 --    44 C    1.424    42 C    1.424    48 H    0.969
    44   6 C    3.989 --    45 C    1.465    43 C    1.424    47 H    0.969
                            41 C    0.102
    45   6 C    3.982 --    44 C    1.465    40 C    1.356    46 H    0.966
                            42 C    0.102
    46   1 H    0.997 --    45 C    0.966
    47   1 H    0.997 --    44 C    0.969
    48   1 H    0.996 --    43 C    0.969
    49   1 H    0.996 --    42 C    0.968
    50   1 H    0.995 --    41 C    0.965
    51   1 H    0.991 --    34 C    0.961
    52   1 H    0.991 --    33 C    0.964
    53   1 H    0.991 --    32 C    0.962
 ---------------------------------------------------------------------------

Topologies differ in bond orders
Writing corrected topology to xtbtopo.mol
Note: The following floating-point exceptions are signalling: IEEE_UNDERFLOW_FLAG
normal termination of xtb

molecular dipole:
                 x           y           z       tot (Debye)
 q only:       -0.715      -0.069      -0.883
   full:       -1.134       0.066      -0.879       3.652
molecular quadrupole (traceless):
                xx          xy          yy          xz          yz          zz
 q only:       23.317      -1.661       3.811      -3.212     -21.373     -27.128
  q+dip:       31.250      -2.594      -1.955      -3.997     -28.065     -29.295
   full:       24.828      -0.803      -0.932      -1.958     -19.324     -23.896


           -------------------------------------------------
          | TOTAL ENERGY              -88.027831390786 Eh   |
          | GRADIENT NORM               0.000713641051 Eh/α |
          | HOMO-LUMO GAP               0.998554938012 eV   |
           -------------------------------------------------
########################################################################
[WARNING] Runtime exception occurred
-2- restart_readRestart: Multiplicity missmatch in restart file.
-1- restart_readRestart: Number of electron missmatch in restart file.
########################################################################

------------------------------------------------------------------------
 * finished run on 2024/11/01 at 14:02:03.692     
------------------------------------------------------------------------
 total:
 * wall-time:     0 d,  0 h,  0 min,  0.256 sec
 *  cpu-time:     0 d,  0 h,  0 min,  0.728 sec
 * ratio c/w:     2.846 speedup
 SCF:
 * wall-time:     0 d,  0 h,  0 min,  0.239 sec
 *  cpu-time:     0 d,  0 h,  0 min,  0.715 sec
 * ratio c/w:     2.988 speedup

