      -----------------------------------------------------------      
     |                   =====================                   |     
     |                           x T B                           |     
     |                   =====================                   |     
     |                         S. Grimme                         |     
     |          Mulliken Center for Theoretical Chemistry        |     
     |                    University of Bonn                     |     
      -----------------------------------------------------------      

   * xtb version 6.6.1 (8d0f1dd) compiled by 'runner@Mac-1690902418499.local' on 2023-08-01

   xtb is free software: you can redistribute it and/or modify it under
   the terms of the GNU Lesser General Public License as published by
   the Free Software Foundation, either version 3 of the License, or
   (at your option) any later version.
   
   xtb is distributed in the hope that it will be useful,
   but WITHOUT ANY WARRANTY; without even the implied warranty of
   MERCHANTABILITY or FITNESS FOR A PARTICULAR PURPOSE.  See the
   GNU Lesser General Public License for more details.
   
   Cite this work as:
   * C. Bannwarth, E. Caldeweyher, S. Ehlert, A. Hansen, P. Pracht,
     J. Seibert, S. Spicher, S. Grimme, WIREs Comput. Mol. Sci., 2020, 11,
     e01493. DOI: 10.1002/wcms.1493
   
   for GFN2-xTB:
   * C. Bannwarth, S. Ehlert and S. Grimme., J. Chem. Theory Comput., 2019,
     15, 1652-1671. DOI: 10.1021/acs.jctc.8b01176
   for GFN1-xTB:
   * S. Grimme, C. Bannwarth, P. Shushkov, J. Chem. Theory Comput., 2017,
     13, 1989-2009. DOI: 10.1021/acs.jctc.7b00118
   for GFN0-xTB:
   * P. Pracht, E. Caldeweyher, S. Ehlert, S. Grimme, ChemRxiv, 2019, preprint.
     DOI: 10.26434/chemrxiv.8326202.v1
   for GFN-FF:
   * S. Spicher and S. Grimme, Angew. Chem. Int. Ed., 2020, 59, 15665-15673.
     DOI: 10.1002/anie.202004239
   
   for ALPB and GBSA implicit solvation:
   * S. Ehlert, M. Stahn, S. Spicher, S. Grimme, J. Chem. Theory Comput.,
     2021, 17, 4250-4261. DOI: 10.1021/acs.jctc.1c00471
   
   for DFT-D4:
   * E. Caldeweyher, C. Bannwarth and S. Grimme, J. Chem. Phys., 2017,
     147, 034112. DOI: 10.1063/1.4993215
   * E. Caldeweyher, S. Ehlert, A. Hansen, H. Neugebauer, S. Spicher,
     C. Bannwarth and S. Grimme, J. Chem. Phys., 2019, 150, 154122.
     DOI: 10.1063/1.5090222
   * E. Caldeweyher, J.-M. Mewes, S. Ehlert and S. Grimme, Phys. Chem. Chem. Phys.
     2020, 22, 8499-8512. DOI: 10.1039/D0CP00502A
   
   for sTDA-xTB:
   * S. Grimme and C. Bannwarth, J. Chem. Phys., 2016, 145, 054103.
     DOI: 10.1063/1.4959605
   
   in the mass-spec context:
   * V. Asgeirsson, C. Bauer and S. Grimme, Chem. Sci., 2017, 8, 4879.
     DOI: 10.1039/c7sc00601b
   * J. Koopman and S. Grimme, ACS Omega 2019, 4, 12, 15120-15133.
     DOI: 10.1021/acsomega.9b02011
   
   for metadynamics refer to:
   * S. Grimme, J. Chem. Theory Comput., 2019, 155, 2847-2862
     DOI: 10.1021/acs.jctc.9b00143
   
   for SPH calculations refer to:
   * S. Spicher and S. Grimme, J. Chem. Theory Comput., 2021, 17, 1701-1714
     DOI: 10.1021/acs.jctc.0c01306
   
   with help from (in alphabetical order)
   P. Atkinson, C. Bannwarth, F. Bohle, G. Brandenburg, E. Caldeweyher
   M. Checinski, S. Dohm, S. Ehlert, S. Ehrlich, I. Gerasimov, C. Hölzer
   A. Katbashev, J. Koopman, C. Lavigne, S. Lehtola, F. März, M. Müller,
   F. Musil, H. Neugebauer, J. Pisarek, C. Plett, P. Pracht, F. Pultar,
   J. Seibert, P. Shushkov, S. Spicher, M. Stahn, M. Steiner, T. Strunk,
   J. Stückrath, T. Rose, and J. Unsleber
   
 * started run on 2024/11/01 at 14:01:04.893     

           -------------------------------------------------
          |                Calculation Setup                |
           -------------------------------------------------

          program call               : xtb Blatter1.mol --opt --gfn2 --chrg 1 --uhf 0 --tight
          coordinate file            : Blatter1.mol
          omp threads                :                     8

   ID    Z sym.   atoms
    1    6 C      1-18, 28, 29, 31-34, 36, 40-45
    2    1 H      19-26, 38, 39, 46-53
    3    8 O      27
    4    7 N      30, 35, 37
########################################################################
[WARNING] Please study the warnings concerning your input carefully
-1- prog_main_parseArguments: Unknown option '--tight' provided
########################################################################

           -------------------------------------------------
          |                 G F N 2 - x T B                 |
           -------------------------------------------------

        Reference                      10.1021/acs.jctc.8b01176
      * Hamiltonian:
        H0-scaling (s, p, d)           1.850000    2.230000    2.230000
        zeta-weighting                 0.500000
      * Dispersion:
        s8                             2.700000
        a1                             0.520000
        a2                             5.000000
        s9                             5.000000
      * Repulsion:
        kExp                           1.500000    1.000000
        rExp                           1.000000
      * Coulomb:
        alpha                          2.000000
        third order                    shell-resolved
        anisotropic                    true
        a3                             3.000000
        a5                             4.000000
        cn-shift                       1.200000
        cn-exp                         4.000000
        max-rad                        5.000000

q/qsh data taken from xtbrestart
CAMM data taken from xtbrestart

          ...................................................
          :                      SETUP                      :
          :.................................................:
          :  # basis functions                 158          :
          :  # atomic orbitals                 158          :
          :  # shells                           88          :
          :  # electrons                       162          :
          :  max. iterations                   250          :
          :  Hamiltonian                  GFN2-xTB          :
          :  restarted?                       true          :
          :  GBSA solvation                  false          :
          :  PC potential                    false          :
          :  electronic temp.          300.0000000     K    :
          :  accuracy                    1.0000000          :
          :  -> integral cutoff          0.2500000E+02      :
          :  -> integral neglect         0.1000000E-07      :
          :  -> SCF convergence          0.1000000E-05 Eh   :
          :  -> wf. convergence          0.1000000E-03 e    :
          :  Broyden damping             0.4000000          :
          ...................................................

 iter      E             dE          RMSdq      gap      omega  full diag
   1    -86.8758968 -0.868759E+02  0.379E+00    0.66       0.0  T
   2    -86.6055565  0.270340E+00  0.319E+00    0.07       1.0  T
   3    -86.8886331 -0.283077E+00  0.213E+00    0.55       1.0  T
   4    -86.9238245 -0.351914E-01  0.147E+00    0.22       1.0  T
   5    -87.0373628 -0.113538E+00  0.870E-01    0.52       1.0  T
   6    -87.0898285 -0.524658E-01  0.414E-01    0.23       1.0  T
   7    -87.0980513 -0.822281E-02  0.253E-01    0.28       1.0  T
   8    -87.0989818 -0.930494E-03  0.170E-01    0.20       1.0  T
   9    -87.1005121 -0.153027E-02  0.126E-01    0.26       1.0  T
  10    -87.1016586 -0.114654E-02  0.591E-02    0.24       1.0  T
  11    -87.1018731 -0.214514E-03  0.234E-02    0.23       1.0  T
  12    -87.1019051 -0.319788E-04  0.876E-03    0.23       1.6  T
  13    -87.1019100 -0.486051E-05  0.521E-03    0.23       2.6  T
  14    -87.1019110 -0.976589E-06  0.386E-03    0.23       3.6  T
  15    -87.1019120 -0.106327E-05  0.130E-03    0.23      10.6  T
  16    -87.1019121 -0.763393E-07  0.593E-04    0.23      23.2  T
  17    -87.1019121 -0.695988E-08  0.498E-04    0.23      27.6  T

   *** convergence criteria satisfied after 17 iterations ***

         #    Occupation            Energy/Eh            Energy/eV
      -------------------------------------------------------------
         1        2.0000           -0.7903030             -21.5052
       ...           ...                  ...                  ...
        75        2.0000           -0.5009654             -13.6320
        76        2.0000           -0.4967042             -13.5160
        77        2.0000           -0.4875753             -13.2676
        78        2.0000           -0.4863895             -13.2353
        79        2.0000           -0.4825258             -13.1302
        80        2.0000           -0.4802403             -13.0680
        81        1.9759           -0.4724790             -12.8568 (HOMO)
        82        0.0241           -0.4641025             -12.6289 (LUMO)
        83                         -0.4153828             -11.3031
        84                         -0.4081466             -11.1062
        85                         -0.4000812             -10.8868
        86                         -0.3911775             -10.6445
       ...                                ...                  ...
       158                          0.1768342               4.8119
      -------------------------------------------------------------
                  HL-Gap            0.0083765 Eh            0.2279 eV
             Fermi-level           -0.4682906 Eh          -12.7428 eV

 SCC (total)                   0 d,  0 h,  0 min,  0.417 sec
 SCC setup                      ...        0 min,  0.000 sec (  0.030%)
 Dispersion                     ...        0 min,  0.000 sec (  0.091%)
 classical contributions        ...        0 min,  0.000 sec (  0.020%)
 integral evaluation            ...        0 min,  0.002 sec (  0.503%)
 iterations                     ...        0 min,  0.403 sec ( 96.788%)
 molecular gradient             ...        0 min,  0.008 sec (  1.836%)
 printout                       ...        0 min,  0.003 sec (  0.729%)

         :::::::::::::::::::::::::::::::::::::::::::::::::::::
         ::                     SUMMARY                     ::
         :::::::::::::::::::::::::::::::::::::::::::::::::::::
         :: total energy             -86.658433725198 Eh    ::
         :: gradient norm              0.430150524014 Eh/a0 ::
         :: HOMO-LUMO gap              0.227935690088 eV    ::
         ::.................................................::
         :: SCC energy               -87.101912107020 Eh    ::
         :: -> isotropic ES            0.081154774721 Eh    ::
         :: -> anisotropic ES         -0.022268243057 Eh    ::
         :: -> anisotropic XC          0.110391302939 Eh    ::
         :: -> dispersion             -0.071598552899 Eh    ::
         :: repulsion energy           0.442267456065 Eh    ::
         :: add. restraining           0.000000000000 Eh    ::
         :: total charge               0.999996792481 e     ::
         :::::::::::::::::::::::::::::::::::::::::::::::::::::

      ----------------------------------------------------------- 
     |                   =====================                   |
     |                        A N C O P T                        |
     |                   =====================                   |
     |               Approximate Normal Coordinate               |
     |                Rational Function Optimizer                |
      ----------------------------------------------------------- 

          ...................................................
          :                      SETUP                      :
          :.................................................:
          :   optimization level            normal          :
          :   max. optcycles                   200          :
          :   ANC micro-cycles                  20          :
          :   degrees of freedom               153          :
          :.................................................:
          :   RF solver                   davidson          :
          :   write xtbopt.log                true          :
          :   linear?                        false          :
          :   energy convergence         0.5000000E-05 Eh   :
          :   grad. convergence          0.1000000E-02 Eh/α :
          :   maxmium RF displ.          1.0000000          :
          :   Hlow (freq-cutoff)         0.1000000E-01      :
          :   Hmax (freq-cutoff)         5.0000000          :
          :   S6 in model hess.         20.0000000          :
          ...................................................

generating ANC from model Hessian ...
Using Lindh-Hessian (1995)
 Shifting diagonal of input Hessian by    1.0666936238287295E-002
 Lowest  eigenvalues of input Hessian
    0.010000    0.010636    0.010644    0.000000    0.000000    0.000000
    0.000000    0.000000    0.000000    0.010683    0.010734    0.010911
    0.010993    0.011151    0.011296    0.011349    0.011793    0.011977
 Highest eigenvalues
    1.042491    1.045795    1.062004    1.093966    1.111144    1.172688


........................................................................
.............................. CYCLE    1 ..............................
........................................................................

 iter      E             dE          RMSdq      gap      omega  full diag
   1    -87.1019121 -0.871019E+02  0.213E-04    0.23       0.0  T
   2    -87.1019121  0.101018E-07  0.405E-04    0.23      33.9  T
   3    -87.1019121 -0.774554E-08  0.239E-04    0.23      57.5  T
     SCC iter.                  ...        0 min,  0.068 sec
     gradient                   ...        0 min,  0.009 sec
 * total energy  :   -86.6584337 Eh     change       -0.1110278E-07 Eh
   gradient norm :     0.4301555 Eh/α   predicted     0.0000000E+00 (-100.00%)
   displ. norm   :     0.8651651 α      lambda       -0.3621449E+00
   maximum displ.:     0.4898904 α      in ANC's #86, #97, #94, ...

........................................................................
.............................. CYCLE    2 ..............................
........................................................................

 iter      E             dE          RMSdq      gap      omega  full diag
   1    -87.5367691 -0.875368E+02  0.545E-01    0.43       0.0  T
   2    -87.4198262  0.116943E+00  0.106E+00    0.24       1.0  T
   3    -87.5307633 -0.110937E+00  0.462E-01    0.49       1.0  T
   4    -87.5331308 -0.236744E-02  0.379E-01    0.45       1.0  T
   5    -87.5396490 -0.651818E-02  0.209E-01    0.39       1.0  T
   6    -87.5429385 -0.328959E-02  0.106E-01    0.37       1.0  T
   7    -87.5434963 -0.557754E-03  0.703E-02    0.35       1.0  T
   8    -87.5437491 -0.252817E-03  0.444E-02    0.34       1.0  T
   9    -87.5438950 -0.145875E-03  0.110E-02    0.33       1.2  T
  10    -87.5439011 -0.607721E-05  0.464E-03    0.33       3.0  T
  11    -87.5439015 -0.464687E-06  0.334E-03    0.33       4.1  T
  12    -87.5439022 -0.714334E-06  0.224E-03    0.33       6.1  T
  13    -87.5439027 -0.419263E-06  0.434E-04    0.33      31.7  T
  14    -87.5439027  0.823017E-08  0.466E-04    0.33      29.5  T
     SCC iter.                  ...        0 min,  0.284 sec
     gradient                   ...        0 min,  0.007 sec
 * total energy  :   -86.9940896 Eh     change       -0.3356559E+00 Eh
   gradient norm :     0.3635795 Eh/α   predicted    -0.3166072E+00 (  -5.68%)
   displ. norm   :     0.9202267 α      lambda       -0.3292556E+00
   maximum displ.:     0.5067295 α      in ANC's #86, #82, #97, ...

........................................................................
.............................. CYCLE    3 ..............................
........................................................................

 iter      E             dE          RMSdq      gap      omega  full diag
   1    -87.9794165 -0.879794E+02  0.534E-01    0.59       0.0  T
   2    -87.8941156  0.853009E-01  0.929E-01    0.29       1.0  T
   3    -87.9799660 -0.858504E-01  0.368E-01    0.57       1.0  T
   4    -87.9830122 -0.304620E-02  0.264E-01    0.52       1.0  T
   5    -87.9867197 -0.370751E-02  0.109E-01    0.46       1.0  T
   6    -87.9874814 -0.761681E-03  0.543E-02    0.45       1.0  T
   7    -87.9876493 -0.167909E-03  0.309E-02    0.44       1.0  T
   8    -87.9876997 -0.504319E-04  0.115E-02    0.43       1.2  T
   9    -87.9877055 -0.576536E-05  0.509E-03    0.43       2.7  T
  10    -87.9877075 -0.200106E-05  0.191E-03    0.43       7.2  T
  11    -87.9877074  0.984693E-07  0.161E-03    0.43       8.6  T
  12    -87.9877076 -0.234869E-06  0.522E-04    0.43      26.3  T
  13    -87.9877077 -0.128590E-07  0.231E-04    0.43      59.4  T
     SCC iter.                  ...        0 min,  0.243 sec
     gradient                   ...        0 min,  0.012 sec
 * total energy  :   -87.2922441 Eh     change       -0.2981545E+00 Eh
   gradient norm :     0.2912739 Eh/α   predicted    -0.3040452E+00 (   1.98%)
   displ. norm   :     0.8981381 α      lambda       -0.2585292E+00
   maximum displ.:     0.5004181 α      in ANC's #86, #82, #97, ...

........................................................................
.............................. CYCLE    4 ..............................
........................................................................

 iter      E             dE          RMSdq      gap      omega  full diag
   1    -88.3800981 -0.883801E+02  0.499E-01    0.68       0.0  T
   2    -88.3528889  0.272092E-01  0.609E-01    0.36       1.0  T
   3    -88.3826289 -0.297400E-01  0.288E-01    0.66       1.0  T
   4    -88.3860277 -0.339882E-02  0.155E-01    0.56       1.0  T
   5    -88.3869977 -0.970060E-03  0.474E-02    0.54       1.0  T
   6    -88.3871145 -0.116756E-03  0.209E-02    0.54       1.0  T
   7    -88.3871282 -0.136495E-04  0.125E-02    0.54       1.1  T
   8    -88.3871327 -0.455169E-05  0.477E-03    0.54       2.9  T
   9    -88.3871341 -0.142219E-05  0.189E-03    0.54       7.3  T
  10    -88.3871342 -0.118038E-06  0.890E-04    0.54      15.4  T
  11    -88.3871343 -0.212568E-07  0.466E-04    0.54      29.5  T
     SCC iter.                  ...        0 min,  0.259 sec
     gradient                   ...        0 min,  0.017 sec
 * total energy  :   -87.5209641 Eh     change       -0.2287200E+00 Eh
   gradient norm :     0.2236690 Eh/α   predicted    -0.2335363E+00 (   2.11%)
   displ. norm   :     0.8722208 α      lambda       -0.1915461E+00
   maximum displ.:     0.4699992 α      in ANC's #86, #82, #44, ...

........................................................................
.............................. CYCLE    5 ..............................
........................................................................

 iter      E             dE          RMSdq      gap      omega  full diag
   1    -88.7222657 -0.887223E+02  0.460E-01    0.84       0.0  T
   2    -88.7194019  0.286385E-02  0.381E-01    0.50       1.0  T
   3    -88.7252612 -0.585933E-02  0.217E-01    0.76       1.0  T
   4    -88.7265396 -0.127839E-02  0.105E-01    0.61       1.0  T
   5    -88.7272149 -0.675277E-03  0.231E-02    0.64       1.0  T
   6    -88.7272403 -0.254842E-04  0.970E-03    0.64       1.4  T
   7    -88.7272419 -0.154493E-05  0.528E-03    0.64       2.6  T
   8    -88.7272427 -0.849252E-06  0.207E-03    0.64       6.6  T
   9    -88.7272429 -0.182616E-06  0.106E-03    0.64      12.9  T
  10    -88.7272430 -0.420724E-07  0.439E-04    0.64      31.3  T
  11    -88.7272430 -0.681300E-08  0.242E-04    0.64      56.7  T
     SCC iter.                  ...        0 min,  0.161 sec
     gradient                   ...        0 min,  0.007 sec
 * total energy  :   -87.6858726 Eh     change       -0.1649086E+00 Eh
   gradient norm :     0.1606183 Eh/α   predicted    -0.1686346E+00 (   2.26%)
   displ. norm   :     0.8446431 α      lambda       -0.1319930E+00
   maximum displ.:     0.3984270 α      in ANC's #86, #82, #44, ...

........................................................................
.............................. CYCLE    6 ..............................
........................................................................

 iter      E             dE          RMSdq      gap      omega  full diag
   1    -88.9959836 -0.889960E+02  0.401E-01    0.87       0.0  T
   2    -88.9965939 -0.610296E-03  0.279E-01    0.66       1.0  T
   3    -88.9978219 -0.122796E-02  0.173E-01    0.80       1.0  T
   4    -88.9984240 -0.602126E-03  0.807E-02    0.73       1.0  T
   5    -88.9987981 -0.374026E-03  0.165E-02    0.74       1.0  T
   6    -88.9988108 -0.127371E-04  0.637E-03    0.74       2.2  T
   7    -88.9988117 -0.893947E-06  0.317E-03    0.74       4.3  T
   8    -88.9988119 -0.234014E-06  0.134E-03    0.74      10.3  T
   9    -88.9988120 -0.590320E-07  0.634E-04    0.74      21.7  T
  10    -88.9988120 -0.173983E-07  0.241E-04    0.74      57.0  T
     SCC iter.                  ...        0 min,  0.182 sec
     gradient                   ...        0 min,  0.008 sec
 * total energy  :   -87.7971254 Eh     change       -0.1112527E+00 Eh
   gradient norm :     0.1143634 Eh/α   predicted    -0.1130805E+00 (   1.64%)
   displ. norm   :     0.8262479 α      lambda       -0.8863290E-01
   maximum displ.:     0.3007698 α      in ANC's #44, #86, #42, ...

........................................................................
.............................. CYCLE    7 ..............................
........................................................................

 iter      E             dE          RMSdq      gap      omega  full diag
   1    -89.1978040 -0.891978E+02  0.328E-01    0.85       0.0  T
   2    -89.1981711 -0.367113E-03  0.230E-01    0.78       1.0  T
   3    -89.1988418 -0.670767E-03  0.143E-01    0.82       1.0  T
   4    -89.1994019 -0.560010E-03  0.524E-02    0.81       1.0  T
   5    -89.1995241 -0.122266E-03  0.127E-02    0.81       1.1  T
   6    -89.1995313 -0.713328E-05  0.523E-03    0.81       2.6  T
   7    -89.1995319 -0.675775E-06  0.236E-03    0.81       5.8  T
   8    -89.1995320 -0.995687E-07  0.105E-03    0.81      13.1  T
   9    -89.1995321 -0.348653E-07  0.403E-04    0.81      34.1  T
  10    -89.1995321 -0.626595E-08  0.179E-04    0.81      76.7  T
     SCC iter.                  ...        0 min,  0.171 sec
     gradient                   ...        0 min,  0.008 sec
 * total energy  :   -87.8716067 Eh     change       -0.7448130E-01 Eh
   gradient norm :     0.0871512 Eh/α   predicted    -0.7457066E-01 (   0.12%)
   displ. norm   :     0.8234557 α      lambda       -0.6249999E-01
   maximum displ.:     0.3092845 α      in ANC's #44, #42, #28, ...

........................................................................
.............................. CYCLE    8 ..............................
........................................................................

 iter      E             dE          RMSdq      gap      omega  full diag
   1    -89.3414305 -0.893414E+02  0.292E-01    0.83       0.0  T
   2    -89.3416755 -0.244918E-03  0.213E-01    0.85       1.0  T
   3    -89.3423978 -0.722341E-03  0.122E-01    0.85       1.0  T
   4    -89.3426740 -0.276158E-03  0.425E-02    0.85       1.0  T
   5    -89.3427699 -0.959882E-04  0.127E-02    0.86       1.1  T
   6    -89.3427791 -0.920460E-05  0.461E-03    0.85       3.0  T
   7    -89.3427795 -0.362059E-06  0.229E-03    0.85       6.0  T
   8    -89.3427797 -0.165683E-06  0.825E-04    0.85      16.6  T
   9    -89.3427797 -0.187180E-07  0.319E-04    0.85      43.1  T
     SCC iter.                  ...        0 min,  0.211 sec
     gradient                   ...        0 min,  0.008 sec
 * total energy  :   -87.9231966 Eh     change       -0.5158999E-01 Eh
   gradient norm :     0.0727223 Eh/α   predicted    -0.5243997E-01 (   1.65%)
   displ. norm   :     0.8505401 α      lambda       -0.4999632E-01
   maximum displ.:     0.3197337 α      in ANC's #44, #25, #28, ...

........................................................................
.............................. CYCLE    9 ..............................
........................................................................

 iter      E             dE          RMSdq      gap      omega  full diag
   1    -89.4401128 -0.894401E+02  0.351E-01    0.90       0.0  T
   2    -89.4403074 -0.194571E-03  0.283E-01    0.87       1.0  T
   3    -89.4430710 -0.276364E-02  0.137E-01    0.89       1.0  T
   4    -89.4431652 -0.941399E-04  0.639E-02    0.88       1.0  T
   5    -89.4433788 -0.213591E-03  0.166E-02    0.89       1.0  T
   6    -89.4433930 -0.142817E-04  0.576E-03    0.88       2.4  T
   7    -89.4433939 -0.802375E-06  0.270E-03    0.88       5.1  T
   8    -89.4433941 -0.218694E-06  0.950E-04    0.88      14.5  T
   9    -89.4433941 -0.217825E-07  0.461E-04    0.88      29.8  T
     SCC iter.                  ...        0 min,  0.242 sec
     gradient                   ...        0 min,  0.008 sec
 * total energy  :   -87.9585547 Eh     change       -0.3535806E-01 Eh
   gradient norm :     0.0740089 Eh/α   predicted    -0.4308237E-01 (  21.85%)
   displ. norm   :     0.7972559 α      lambda       -0.3936562E-01
   maximum displ.:     0.3338032 α      in ANC's #25, #28, #23, ...

........................................................................
.............................. CYCLE   10 ..............................
........................................................................

 iter      E             dE          RMSdq      gap      omega  full diag
   1    -89.5048193 -0.895048E+02  0.277E-01    0.91       0.0  T
   2    -89.5050025 -0.183196E-03  0.170E-01    0.92       1.0  T
   3    -89.5048282  0.174304E-03  0.996E-02    0.91       1.0  T
   4    -89.5051505 -0.322276E-03  0.195E-02    0.92       1.0  T
   5    -89.5051652 -0.146960E-04  0.101E-02    0.92       1.4  T
   6    -89.5051699 -0.466403E-05  0.392E-03    0.92       3.5  T
   7    -89.5051704 -0.552925E-06  0.162E-03    0.92       8.5  T
   8    -89.5051705 -0.124598E-06  0.709E-04    0.92      19.4  T
   9    -89.5051705 -0.997841E-08  0.371E-04    0.92      37.0  T
     SCC iter.                  ...        0 min,  0.116 sec
     gradient                   ...        0 min,  0.007 sec
 * total energy  :   -87.9873193 Eh     change       -0.2876462E-01 Eh
   gradient norm :     0.0580875 Eh/α   predicted    -0.3219355E-01 (  11.92%)
   displ. norm   :     0.7860608 α      lambda       -0.2687025E-01
   maximum displ.:     0.3945488 α      in ANC's #25, #28, #23, ...

........................................................................
.............................. CYCLE   11 ..............................
........................................................................

 iter      E             dE          RMSdq      gap      omega  full diag
   1    -89.5479165 -0.895479E+02  0.275E-01    0.91       0.0  T
   2    -89.5481145 -0.198022E-03  0.168E-01    0.90       1.0  T
   3    -89.5479268  0.187778E-03  0.789E-02    0.89       1.0  T
   4    -89.5481719 -0.245172E-03  0.207E-02    0.90       1.0  T
   5    -89.5481977 -0.257789E-04  0.955E-03    0.89       1.4  T
   6    -89.5482021 -0.442142E-05  0.360E-03    0.89       3.8  T
   7    -89.5482024 -0.296246E-06  0.150E-03    0.90       9.2  T
   8    -89.5482025 -0.799331E-07  0.586E-04    0.89      23.5  T
   9    -89.5482025 -0.113573E-07  0.295E-04    0.89      46.5  T
     SCC iter.                  ...        0 min,  0.145 sec
     gradient                   ...        0 min,  0.008 sec
 * total energy  :   -88.0042583 Eh     change       -0.1693898E-01 Eh
   gradient norm :     0.0469419 Eh/α   predicted    -0.2173659E-01 (  28.32%)
   displ. norm   :     0.7344882 α      lambda       -0.2129270E-01
   maximum displ.:     0.3860098 α      in ANC's #25, #28, #23, ...

........................................................................
.............................. CYCLE   12 ..............................
........................................................................

 iter      E             dE          RMSdq      gap      omega  full diag
   1    -89.5684050 -0.895684E+02  0.332E-01    1.02       0.0  T
   2    -89.5687751 -0.370051E-03  0.190E-01    0.91       1.0  T
   3    -89.5683954  0.379667E-03  0.108E-01    0.97       1.0  T
   4    -89.5689274 -0.531937E-03  0.307E-02    0.92       1.0  T
   5    -89.5689820 -0.546398E-04  0.115E-02    0.93       1.2  T
   6    -89.5689865 -0.448441E-05  0.479E-03    0.93       2.9  T
   7    -89.5689871 -0.669618E-06  0.202E-03    0.93       6.8  T
   8    -89.5689873 -0.183054E-06  0.662E-04    0.93      20.7  T
   9    -89.5689873 -0.145749E-07  0.341E-04    0.93      40.2  T
     SCC iter.                  ...        0 min,  0.131 sec
     gradient                   ...        0 min,  0.008 sec
 * total energy  :   -88.0127317 Eh     change       -0.8473400E-02 Eh
   gradient norm :     0.0509201 Eh/α   predicted    -0.1638979E-01 (  93.43%)
   displ. norm   :     0.4964380 α      lambda       -0.1229907E-01
   maximum displ.:     0.2109175 α      in ANC's #25, #23, #24, ...

........................................................................
.............................. CYCLE   13 ..............................
........................................................................

 iter      E             dE          RMSdq      gap      omega  full diag
   1    -89.5724932 -0.895725E+02  0.276E-01    0.92       0.0  T
   2    -89.5726769 -0.183715E-03  0.164E-01    0.92       1.0  T
   3    -89.5722736  0.403318E-03  0.977E-02    0.93       1.0  T
   4    -89.5728031 -0.529572E-03  0.220E-02    0.93       1.0  T
   5    -89.5728261 -0.229959E-04  0.103E-02    0.93       1.3  T
   6    -89.5728310 -0.483541E-05  0.359E-03    0.93       3.8  T
   7    -89.5728311 -0.166024E-06  0.152E-03    0.93       9.1  T
   8    -89.5728313 -0.127887E-06  0.493E-04    0.93      27.9  T
   9    -89.5728313 -0.534220E-08  0.258E-04    0.93      53.2  T
     SCC iter.                  ...        0 min,  0.150 sec
     gradient                   ...        0 min,  0.008 sec
 * total energy  :   -88.0179015 Eh     change       -0.5169817E-02 Eh
   gradient norm :     0.0353605 Eh/α   predicted    -0.7665089E-02 (  48.27%)
   displ. norm   :     0.4740544 α      lambda       -0.8034702E-02
   maximum displ.:     0.1480726 α      in ANC's #25, #11, #14, ...

........................................................................
.............................. CYCLE   14 ..............................
........................................................................

 iter      E             dE          RMSdq      gap      omega  full diag
   1    -89.5842727 -0.895843E+02  0.249E-01    0.94       0.0  T
   2    -89.5843244 -0.516606E-04  0.147E-01    0.93       1.0  T
   3    -89.5842081  0.116349E-03  0.547E-02    0.93       1.0  T
   4    -89.5843388 -0.130741E-03  0.121E-02    0.93       1.1  T
   5    -89.5843485 -0.966136E-05  0.434E-03    0.93       3.2  T
   6    -89.5843490 -0.591267E-06  0.212E-03    0.93       6.5  T
   7    -89.5843491 -0.551307E-07  0.648E-04    0.93      21.2  T
   8    -89.5843491 -0.202061E-07  0.208E-04    0.93      66.0  T
     SCC iter.                  ...        0 min,  0.116 sec
     gradient                   ...        0 min,  0.008 sec
 * total energy  :   -88.0191440 Eh     change       -0.1242525E-02 Eh
   gradient norm :     0.0364411 Eh/α   predicted    -0.4920159E-02 ( 295.98%)
   displ. norm   :     0.3333703 α      lambda       -0.6356968E-02
   maximum displ.:     0.1261128 α      in ANC's #11, #5, #14, ...

........................................................................
.............................. CYCLE   15 ..............................
........................................................................

 iter      E             dE          RMSdq      gap      omega  full diag
   1    -89.5917414 -0.895917E+02  0.209E-01    0.95       0.0  T
   2    -89.5918143 -0.729183E-04  0.123E-01    0.96       1.0  T
   3    -89.5917294  0.849506E-04  0.534E-02    0.94       1.0  T
   4    -89.5918286 -0.992234E-04  0.136E-02    0.95       1.0  T
   5    -89.5918394 -0.108283E-04  0.533E-03    0.95       2.6  T
   6    -89.5918404 -0.954907E-06  0.214E-03    0.96       6.4  T
   7    -89.5918406 -0.198716E-06  0.796E-04    0.95      17.3  T
   8    -89.5918406 -0.268151E-07  0.303E-04    0.95      45.3  T
     SCC iter.                  ...        0 min,  0.104 sec
     gradient                   ...        0 min,  0.008 sec
 * total energy  :   -88.0211968 Eh     change       -0.2052766E-02 Eh
   gradient norm :     0.0323001 Eh/α   predicted    -0.3531732E-02 (  72.05%)
   displ. norm   :     0.3177058 α      lambda       -0.4939896E-02
   maximum displ.:     0.1266671 α      in ANC's #11, #5, #4, ...

........................................................................
.............................. CYCLE   16 ..............................
........................................................................

 iter      E             dE          RMSdq      gap      omega  full diag
   1    -89.5793545 -0.895794E+02  0.233E-01    0.93       0.0  T
   2    -89.5794507 -0.961710E-04  0.137E-01    0.95       1.0  T
   3    -89.5792009  0.249839E-03  0.969E-02    0.94       1.0  T
   4    -89.5795945 -0.393606E-03  0.199E-02    0.95       1.0  T
   5    -89.5796235 -0.290653E-04  0.621E-03    0.94       2.2  T
   6    -89.5796250 -0.150310E-05  0.285E-03    0.94       4.8  T
   7    -89.5796252 -0.161688E-06  0.123E-03    0.94      11.2  T
   8    -89.5796252 -0.549939E-07  0.436E-04    0.94      31.5  T
   9    -89.5796253 -0.886173E-08  0.199E-04    0.94      68.9  T
     SCC iter.                  ...        0 min,  0.149 sec
     gradient                   ...        0 min,  0.008 sec
 * total energy  :   -88.0214103 Eh     change       -0.2134628E-03 Eh
   gradient norm :     0.0334972 Eh/α   predicted    -0.2719261E-02 (1173.88%)
   displ. norm   :     0.2508439 α      lambda       -0.4373536E-02
   maximum displ.:     0.0866050 α      in ANC's #5, #4, #11, ...

........................................................................
.............................. CYCLE   17 ..............................
........................................................................

 iter      E             dE          RMSdq      gap      omega  full diag
   1    -89.5812239 -0.895812E+02  0.159E-01    0.97       0.0  T
   2    -89.5812661 -0.422039E-04  0.986E-02    0.94       1.0  T
   3    -89.5810567  0.209406E-03  0.685E-02    0.97       1.0  T
   4    -89.5813472 -0.290474E-03  0.110E-02    0.95       1.2  T
   5    -89.5813535 -0.634454E-05  0.411E-03    0.95       3.3  T
   6    -89.5813544 -0.819666E-06  0.174E-03    0.95       7.9  T
   7    -89.5813544 -0.628518E-07  0.794E-04    0.95      17.3  T
   8    -89.5813544 -0.227408E-07  0.259E-04    0.95      53.1  T
     SCC iter.                  ...        0 min,  0.104 sec
     gradient                   ...        0 min,  0.008 sec
 * total energy  :   -88.0229394 Eh     change       -0.1529107E-02 Eh
   gradient norm :     0.0238656 Eh/α   predicted    -0.2324372E-02 (  52.01%)
   displ. norm   :     0.2858847 α      lambda       -0.3144201E-02
   maximum displ.:     0.1117778 α      in ANC's #5, #4, #11, ...

........................................................................
.............................. CYCLE   18 ..............................
........................................................................

 iter      E             dE          RMSdq      gap      omega  full diag
   1    -89.5918093 -0.895918E+02  0.197E-01    0.96       0.0  T
   2    -89.5918679 -0.585756E-04  0.113E-01    0.96       1.0  T
   3    -89.5918325  0.353363E-04  0.417E-02    0.96       1.0  T
   4    -89.5918830 -0.504870E-04  0.758E-03    0.96       1.8  T
   5    -89.5918854 -0.240551E-05  0.343E-03    0.96       4.0  T
   6    -89.5918856 -0.159006E-06  0.180E-03    0.96       7.6  T
   7    -89.5918857 -0.106462E-06  0.692E-04    0.96      19.9  T
   8    -89.5918857 -0.233805E-07  0.233E-04    0.96      59.0  T
     SCC iter.                  ...        0 min,  0.115 sec
     gradient                   ...        0 min,  0.009 sec
 * total energy  :   -88.0230229 Eh     change       -0.8348433E-04 Eh
   gradient norm :     0.0278453 Eh/α   predicted    -0.1700597E-02 (1937.03%)
   displ. norm   :     0.2126567 α      lambda       -0.2604866E-02
   maximum displ.:     0.0859219 α      in ANC's #4, #5, #11, ...

........................................................................
.............................. CYCLE   19 ..............................
........................................................................

 iter      E             dE          RMSdq      gap      omega  full diag
   1    -89.5892529 -0.895893E+02  0.131E-01    0.95       0.0  T
   2    -89.5892716 -0.186562E-04  0.767E-02    0.97       1.0  T
   3    -89.5892147  0.568921E-04  0.314E-02    0.95       1.0  T
   4    -89.5892802 -0.655082E-04  0.650E-03    0.97       2.1  T
   5    -89.5892824 -0.215192E-05  0.245E-03    0.97       5.6  T
   6    -89.5892825 -0.815118E-07  0.132E-03    0.97      10.4  T
   7    -89.5892825 -0.606730E-07  0.368E-04    0.97      37.3  T
   8    -89.5892825 -0.540064E-08  0.166E-04    0.97      82.8  T
     SCC iter.                  ...        0 min,  0.124 sec
     gradient                   ...        0 min,  0.011 sec
 * total energy  :   -88.0242416 Eh     change       -0.1218780E-02 Eh
   gradient norm :     0.0140816 Eh/α   predicted    -0.1361336E-02 (  11.70%)
   displ. norm   :     0.2955028 α      lambda       -0.1758410E-02
   maximum displ.:     0.1372658 α      in ANC's #4, #5, #2, ...

........................................................................
.............................. CYCLE   20 ..............................
........................................................................

 iter      E             dE          RMSdq      gap      omega  full diag
   1    -89.5821869 -0.895822E+02  0.164E-01    0.97       0.0  T
   2    -89.5822150 -0.281189E-04  0.943E-02    0.96       1.0  T
   3    -89.5821785  0.365841E-04  0.370E-02    0.97       1.0  T
   4    -89.5822218 -0.433822E-04  0.823E-03    0.97       1.7  T
   5    -89.5822262 -0.431656E-05  0.299E-03    0.97       4.6  T
   6    -89.5822264 -0.207357E-06  0.137E-03    0.97      10.0  T
   7    -89.5822264 -0.432227E-07  0.496E-04    0.97      27.7  T
   8    -89.5822264 -0.120755E-07  0.211E-04    0.97      65.0  T
     SCC iter.                  ...        0 min,  0.165 sec
     gradient                   ...        0 min,  0.007 sec
 * total energy  :   -88.0239818 Eh     change        0.2598430E-03 Eh
   gradient norm :     0.0259634 Eh/α   predicted    -0.9559801E-03 (-467.91%)
   displ. norm   :     0.1874802 α      lambda       -0.2061614E-02
   maximum displ.:     0.0862791 α      in ANC's #4, #5, #2, ...
 * RMSD in coord.:     1.1355600 α      energy gain  -0.1365548E+01 Eh

generating ANC from model Hessian ...
Using Lindh-Hessian (1995)
 Shifting diagonal of input Hessian by    9.4407399329917829E-003
 Lowest  eigenvalues of input Hessian
    0.000000    0.000000    0.000000    0.000000    0.000000    0.000000
    0.010000    0.010271    0.010430    0.010882    0.011376    0.011734
    0.012497    0.013302    0.014838    0.015142    0.016920    0.018231
 Highest eigenvalues
    2.060567    2.095466    2.122009    2.201799    2.303556    2.381599


........................................................................
.............................. CYCLE   21 ..............................
........................................................................

 iter      E             dE          RMSdq      gap      omega  full diag
   1    -89.5857972 -0.895858E+02  0.109E-01    0.98       0.0  T
   2    -89.5858072 -0.995249E-05  0.641E-02    0.97       1.0  T
   3    -89.5857771  0.301188E-04  0.240E-02    0.98       1.0  T
   4    -89.5858101 -0.330262E-04  0.566E-03    0.97       2.4  T
   5    -89.5858124 -0.231648E-05  0.188E-03    0.97       7.3  T
   6    -89.5858125 -0.891759E-07  0.102E-03    0.97      13.5  T
   7    -89.5858125 -0.118306E-07  0.437E-04    0.97      31.4  T
   8    -89.5858125 -0.107238E-07  0.118E-04    0.97     116.7  T
     SCC iter.                  ...        0 min,  0.114 sec
     gradient                   ...        0 min,  0.007 sec
 * total energy  :   -88.0250094 Eh     change       -0.1027605E-02 Eh
   gradient norm :     0.0117067 Eh/α   predicted     0.0000000E+00 (-100.00%)
   displ. norm   :     0.1495457 α      lambda       -0.5389944E-03
   maximum displ.:     0.1074984 α      in ANC's #3, #5, #2, ...

........................................................................
.............................. CYCLE   22 ..............................
........................................................................

 iter      E             dE          RMSdq      gap      omega  full diag
   1    -89.5892814 -0.895893E+02  0.527E-02    0.97       0.0  T
   2    -89.5892825 -0.108315E-05  0.316E-02    0.97       1.0  T
   3    -89.5892720  0.104454E-04  0.135E-02    0.97       1.0  T
   4    -89.5892834 -0.113861E-04  0.237E-03    0.97       5.8  T
   5    -89.5892838 -0.394564E-06  0.734E-04    0.97      18.7  T
   6    -89.5892838 -0.707796E-08  0.376E-04    0.97      36.6  T
     SCC iter.                  ...        0 min,  0.090 sec
     gradient                   ...        0 min,  0.007 sec
 * total energy  :   -88.0254093 Eh     change       -0.3998970E-03 Eh
   gradient norm :     0.0047568 Eh/α   predicted    -0.2755274E-03 ( -31.10%)
   displ. norm   :     0.2739652 α      lambda       -0.4819253E-03
   maximum displ.:     0.1908455 α      in ANC's #3, #5, #2, ...

........................................................................
.............................. CYCLE   23 ..............................
........................................................................

 iter      E             dE          RMSdq      gap      omega  full diag
   1    -89.5922474 -0.895922E+02  0.785E-02    0.98       0.0  T
   2    -89.5922495 -0.204477E-05  0.465E-02    0.98       1.0  T
   3    -89.5922300  0.194395E-04  0.183E-02    0.98       1.0  T
   4    -89.5922512 -0.212035E-04  0.318E-03    0.98       4.3  T
   5    -89.5922518 -0.621761E-06  0.116E-03    0.98      11.9  T
   6    -89.5922519 -0.238454E-07  0.518E-04    0.98      26.5  T
   7    -89.5922519 -0.800458E-08  0.176E-04    0.98      78.2  T
     SCC iter.                  ...        0 min,  0.091 sec
     gradient                   ...        0 min,  0.008 sec
 * total energy  :   -88.0257863 Eh     change       -0.3769702E-03 Eh
   gradient norm :     0.0048864 Eh/α   predicted    -0.2590490E-03 ( -31.28%)
   displ. norm   :     0.3459441 α      lambda       -0.4393191E-03
   maximum displ.:     0.2301520 α      in ANC's #3, #5, #2, ...

........................................................................
.............................. CYCLE   24 ..............................
........................................................................

 iter      E             dE          RMSdq      gap      omega  full diag
   1    -89.5928891 -0.895929E+02  0.924E-02    0.99       0.0  T
   2    -89.5928913 -0.223106E-05  0.541E-02    0.99       1.0  T
   3    -89.5928795  0.118138E-04  0.141E-02    0.99       1.0  T
   4    -89.5928924 -0.129172E-04  0.306E-03    0.99       4.5  T
   5    -89.5928929 -0.434686E-06  0.134E-03    0.99      10.2  T
   6    -89.5928929 -0.504435E-07  0.491E-04    0.99      28.0  T
   7    -89.5928929 -0.759414E-08  0.171E-04    0.99      80.2  T
     SCC iter.                  ...        0 min,  0.110 sec
     gradient                   ...        0 min,  0.010 sec
 * total energy  :   -88.0261688 Eh     change       -0.3825004E-03 Eh
   gradient norm :     0.0083277 Eh/α   predicted    -0.2459478E-03 ( -35.70%)
   displ. norm   :     0.4427889 α      lambda       -0.5273881E-03
   maximum displ.:     0.2863370 α      in ANC's #3, #2, #5, ...

........................................................................
.............................. CYCLE   25 ..............................
........................................................................

 iter      E             dE          RMSdq      gap      omega  full diag
   1    -89.5916271 -0.895916E+02  0.118E-01    1.00       0.0  T
   2    -89.5916302 -0.313144E-05  0.688E-02    1.00       1.0  T
   3    -89.5916257  0.453282E-05  0.943E-03    1.00       1.5  T
   4    -89.5916312 -0.548108E-05  0.318E-03    1.00       4.3  T
   5    -89.5916314 -0.230708E-06  0.169E-03    1.00       8.1  T
   6    -89.5916316 -0.147669E-06  0.481E-04    1.00      28.6  T
   7    -89.5916316 -0.732012E-08  0.192E-04    1.00      71.7  T
     SCC iter.                  ...        0 min,  0.093 sec
     gradient                   ...        0 min,  0.008 sec
 * total energy  :   -88.0266241 Eh     change       -0.4553506E-03 Eh
   gradient norm :     0.0082868 Eh/α   predicted    -0.3153971E-03 ( -30.74%)
   displ. norm   :     0.4896937 α      lambda       -0.4948718E-03
   maximum displ.:     0.3214747 α      in ANC's #3, #2, #4, ...

........................................................................
.............................. CYCLE   26 ..............................
........................................................................

 iter      E             dE          RMSdq      gap      omega  full diag
   1    -89.5898744 -0.895899E+02  0.132E-01    1.01       0.0  T
   2    -89.5898781 -0.371329E-05  0.765E-02    1.01       1.0  T
   3    -89.5898745  0.357972E-05  0.975E-03    1.01       1.4  T
   4    -89.5898794 -0.490954E-05  0.298E-03    1.01       4.6  T
   5    -89.5898795 -0.742386E-07  0.138E-03    1.01      10.0  T
   6    -89.5898796 -0.940712E-07  0.426E-04    1.01      32.2  T
   7    -89.5898796 -0.744259E-08  0.203E-04    1.01      67.7  T
     SCC iter.                  ...        0 min,  0.093 sec
     gradient                   ...        0 min,  0.007 sec
 * total energy  :   -88.0270235 Eh     change       -0.3993509E-03 Eh
   gradient norm :     0.0054636 Eh/α   predicted    -0.3067713E-03 ( -23.18%)
   displ. norm   :     0.4225044 α      lambda       -0.3053939E-03
   maximum displ.:     0.2854467 α      in ANC's #3, #2, #4, ...

........................................................................
.............................. CYCLE   27 ..............................
........................................................................

 iter      E             dE          RMSdq      gap      omega  full diag
   1    -89.5894918 -0.895895E+02  0.114E-01    1.01       0.0  T
   2    -89.5894944 -0.255020E-05  0.662E-02    1.01       1.0  T
   3    -89.5894890  0.538358E-05  0.103E-02    1.02       1.3  T
   4    -89.5894954 -0.643877E-05  0.266E-03    1.01       5.2  T
   5    -89.5894955 -0.110360E-06  0.145E-03    1.02       9.5  T
   6    -89.5894956 -0.107734E-06  0.405E-04    1.01      33.9  T
   7    -89.5894956 -0.705951E-08  0.181E-04    1.01      75.9  T
     SCC iter.                  ...        0 min,  0.090 sec
     gradient                   ...        0 min,  0.008 sec
 * total energy  :   -88.0272628 Eh     change       -0.2392968E-03 Eh
   gradient norm :     0.0032150 Eh/α   predicted    -0.1799553E-03 ( -24.80%)
   displ. norm   :     0.3134289 α      lambda       -0.1695353E-03
   maximum displ.:     0.2176969 α      in ANC's #3, #2, #6, ...

........................................................................
.............................. CYCLE   28 ..............................
........................................................................

 iter      E             dE          RMSdq      gap      omega  full diag
   1    -89.5906697 -0.895907E+02  0.843E-02    1.02       0.0  T
   2    -89.5906709 -0.119382E-05  0.491E-02    1.01       1.0  T
   3    -89.5906654  0.551517E-05  0.889E-03    1.02       1.5  T
   4    -89.5906717 -0.626098E-05  0.179E-03    1.02       7.7  T
   5    -89.5906718 -0.702974E-07  0.935E-04    1.02      14.7  T
   6    -89.5906718 -0.276203E-07  0.306E-04    1.02      44.9  T
     SCC iter.                  ...        0 min,  0.082 sec
     gradient                   ...        0 min,  0.008 sec
 * total energy  :   -88.0274012 Eh     change       -0.1384091E-03 Eh
   gradient norm :     0.0027685 Eh/α   predicted    -0.9310267E-04 ( -32.73%)
   displ. norm   :     0.2643356 α      lambda       -0.1261655E-03
   maximum displ.:     0.1857506 α      in ANC's #3, #2, #6, ...

........................................................................
.............................. CYCLE   29 ..............................
........................................................................

 iter      E             dE          RMSdq      gap      omega  full diag
   1    -89.5922950 -0.895923E+02  0.715E-02    1.02       0.0  T
   2    -89.5922957 -0.736415E-06  0.418E-02    1.01       1.0  T
   3    -89.5922903  0.543949E-05  0.828E-03    1.02       1.7  T
   4    -89.5922963 -0.607373E-05  0.130E-03    1.02      10.5  T
   5    -89.5922964 -0.367690E-07  0.685E-04    1.02      20.0  T
   6    -89.5922964 -0.942492E-08  0.260E-04    1.02      52.8  T
     SCC iter.                  ...        0 min,  0.087 sec
     gradient                   ...        0 min,  0.008 sec
 * total energy  :   -88.0275080 Eh     change       -0.1068643E-03 Eh
   gradient norm :     0.0027815 Eh/α   predicted    -0.6749410E-04 ( -36.84%)
   displ. norm   :     0.2747016 α      lambda       -0.1192287E-03
   maximum displ.:     0.1913365 α      in ANC's #3, #2, #6, ...

........................................................................
.............................. CYCLE   30 ..............................
........................................................................

 iter      E             dE          RMSdq      gap      omega  full diag
   1    -89.5934810 -0.895935E+02  0.746E-02    1.02       0.0  T
   2    -89.5934817 -0.723817E-06  0.437E-02    1.01       1.0  T
   3    -89.5934763  0.536831E-05  0.823E-03    1.02       1.7  T
   4    -89.5934823 -0.599003E-05  0.122E-03    1.01      11.2  T
   5    -89.5934823 -0.419802E-07  0.622E-04    1.01      22.1  T
   6    -89.5934824 -0.519353E-08  0.256E-04    1.01      53.6  T
     SCC iter.                  ...        0 min,  0.083 sec
     gradient                   ...        0 min,  0.007 sec
 * total energy  :   -88.0276086 Eh     change       -0.1006036E-03 Eh
   gradient norm :     0.0024705 Eh/α   predicted    -0.6411930E-04 ( -36.27%)
   displ. norm   :     0.2918468 α      lambda       -0.1073636E-03
   maximum displ.:     0.2002738 α      in ANC's #3, #2, #6, ...

........................................................................
.............................. CYCLE   31 ..............................
........................................................................

 iter      E             dE          RMSdq      gap      omega  full diag
   1    -89.5938823 -0.895939E+02  0.786E-02    1.01       0.0  T
   2    -89.5938830 -0.764292E-06  0.461E-02    1.01       1.0  T
   3    -89.5938784  0.464849E-05  0.790E-03    1.01       1.7  T
   4    -89.5938836 -0.522879E-05  0.122E-03    1.01      11.2  T
   5    -89.5938837 -0.478067E-07  0.602E-04    1.01      22.8  T
   6    -89.5938837 -0.378603E-08  0.244E-04    1.01      56.4  T
     SCC iter.                  ...        0 min,  0.078 sec
     gradient                   ...        0 min,  0.007 sec
 * total energy  :   -88.0276958 Eh     change       -0.8719145E-04 Eh
   gradient norm :     0.0018572 Eh/α   predicted    -0.5825453E-04 ( -33.19%)
   displ. norm   :     0.4094975 α      lambda       -0.7694573E-04
   maximum displ.:     0.2758449 α      in ANC's #3, #2, #5, ...

........................................................................
.............................. CYCLE   32 ..............................
........................................................................

 iter      E             dE          RMSdq      gap      omega  full diag
   1    -89.5935966 -0.895936E+02  0.109E-01    1.01       0.0  T
   2    -89.5935980 -0.142762E-05  0.637E-02    1.00       1.0  T
   3    -89.5935891  0.887727E-05  0.112E-02    1.01       1.2  T
   4    -89.5935991 -0.999156E-05  0.166E-03    1.00       8.3  T
   5    -89.5935992 -0.894322E-07  0.817E-04    1.00      16.8  T
   6    -89.5935992 -0.477316E-08  0.357E-04    1.00      38.5  T
     SCC iter.                  ...        0 min,  0.078 sec
     gradient                   ...        0 min,  0.009 sec
 * total energy  :   -88.0277704 Eh     change       -0.7458651E-04 Eh
   gradient norm :     0.0016210 Eh/α   predicted    -0.4134253E-04 ( -44.57%)
   displ. norm   :     0.1534367 α      lambda       -0.2014999E-04
   maximum displ.:     0.0935169 α      in ANC's #3, #2, #5, ...

........................................................................
.............................. CYCLE   33 ..............................
........................................................................

 iter      E             dE          RMSdq      gap      omega  full diag
   1    -89.5943272 -0.895943E+02  0.391E-02    1.00       0.0  T
   2    -89.5943274 -0.189490E-06  0.230E-02    1.00       1.0  T
   3    -89.5943264  0.102500E-05  0.390E-03    1.00       3.5  T
   4    -89.5943275 -0.116266E-05  0.586E-04    1.00      23.4  T
   5    -89.5943275 -0.118048E-07  0.301E-04    1.00      45.7  T
   6    -89.5943275 -0.750802E-09  0.132E-04    1.00     103.9  T
     SCC iter.                  ...        0 min,  0.078 sec
     gradient                   ...        0 min,  0.007 sec
 * total energy  :   -88.0277929 Eh     change       -0.2244466E-04 Eh
   gradient norm :     0.0010956 Eh/α   predicted    -0.1018104E-04 ( -54.64%)
   displ. norm   :     0.1189581 α      lambda       -0.1588897E-04
   maximum displ.:     0.0609022 α      in ANC's #1, #5, #3, ...

........................................................................
.............................. CYCLE   34 ..............................
........................................................................

 iter      E             dE          RMSdq      gap      omega  full diag
   1    -89.5940146 -0.895940E+02  0.308E-02    1.00       0.0  T
   2    -89.5940147 -0.108244E-06  0.181E-02    1.00       1.0  T
   3    -89.5940143  0.364250E-06  0.250E-03    1.00       5.5  T
   4    -89.5940148 -0.425463E-06  0.451E-04    1.00      30.4  T
   5    -89.5940148 -0.683437E-08  0.243E-04    1.00      56.6  T
     SCC iter.                  ...        0 min,  0.074 sec
     gradient                   ...        0 min,  0.007 sec
 * total energy  :   -88.0278105 Eh     change       -0.1760318E-04 Eh
   gradient norm :     0.0006285 Eh/α   predicted    -0.7998869E-05 ( -54.56%)
   displ. norm   :     0.1009311 α      lambda       -0.1146718E-04
   maximum displ.:     0.0623257 α      in ANC's #1, #5, #4, ...

........................................................................
.............................. CYCLE   35 ..............................
........................................................................

 iter      E             dE          RMSdq      gap      omega  full diag
   1    -89.5943041 -0.895943E+02  0.287E-02    1.00       0.0  T
   2    -89.5943041 -0.609933E-07  0.168E-02    1.00       1.0  T
   3    -89.5943039  0.257799E-06  0.209E-03    1.00       6.6  T
   4    -89.5943042 -0.295529E-06  0.374E-04    1.00      36.8  T
   5    -89.5943042 -0.442566E-08  0.205E-04    1.00      67.0  T
     SCC iter.                  ...        0 min,  0.067 sec
     gradient                   ...        0 min,  0.009 sec
 * total energy  :   -88.0278219 Eh     change       -0.1140239E-04 Eh
   gradient norm :     0.0009378 Eh/α   predicted    -0.5759966E-05 ( -49.48%)
   displ. norm   :     0.0741008 α      lambda       -0.6789113E-05
   maximum displ.:     0.0446670 α      in ANC's #1, #4, #6, ...

........................................................................
.............................. CYCLE   36 ..............................
........................................................................

 iter      E             dE          RMSdq      gap      omega  full diag
   1    -89.5938168 -0.895938E+02  0.208E-02    1.00       0.0  T
   2    -89.5938169 -0.386518E-07  0.122E-02    1.00       1.1  T
   3    -89.5938167  0.168432E-06  0.167E-03    1.00       8.2  T
   4    -89.5938169 -0.189434E-06  0.297E-04    1.00      46.2  T
   5    -89.5938169 -0.375498E-08  0.148E-04    1.00      92.6  T
     SCC iter.                  ...        0 min,  0.064 sec
     gradient                   ...        0 min,  0.008 sec
 * total energy  :   -88.0278279 Eh     change       -0.5980084E-05 Eh
   gradient norm :     0.0009491 Eh/α   predicted    -0.3406094E-05 ( -43.04%)
   displ. norm   :     0.0446096 α      lambda       -0.3462595E-05
   maximum displ.:     0.0236600 α      in ANC's #1, #2, #3, ...

........................................................................
.............................. CYCLE   37 ..............................
........................................................................

 iter      E             dE          RMSdq      gap      omega  full diag
   1    -89.5934176 -0.895934E+02  0.117E-02    1.00       0.0  T
   2    -89.5934177 -0.372611E-07  0.686E-03    1.00       2.0  T
   3    -89.5934176  0.113528E-06  0.132E-03    1.00      10.4  T
   4    -89.5934177 -0.127517E-06  0.241E-04    1.00      57.0  T
   5    -89.5934177 -0.280822E-08  0.106E-04    1.00     129.7  T
     SCC iter.                  ...        0 min,  0.067 sec
     gradient                   ...        0 min,  0.008 sec
 * total energy  :   -88.0278315 Eh     change       -0.3665798E-05 Eh
   gradient norm :     0.0005401 Eh/α   predicted    -0.1733055E-05 ( -52.72%)
   displ. norm   :     0.0378270 α      lambda       -0.2684699E-05
   maximum displ.:     0.0214139 α      in ANC's #1, #2, #5, ...

   *** GEOMETRY OPTIMIZATION CONVERGED AFTER 37 ITERATIONS ***

------------------------------------------------------------------------
 total energy gain   :        -1.3693978 Eh     -859.3101 kcal/mol
 total RMSD          :         1.3494965 a0        0.7141 Å
 total power (kW/mol):       -97.1717138 (step) -695.6487 (real)
------------------------------------------------------------------------

 ANCopt (total)                0 d,  0 h,  0 min,  5.168 sec
 optimizer setup                ...        0 min,  0.000 sec (  0.003%)
 model hessian                  ...        0 min,  0.023 sec (  0.440%)
 ANC generation                 ...        0 min,  0.013 sec (  0.244%)
 coordinate transformation      ...        0 min,  0.000 sec (  0.008%)
 single point calculation       ...        0 min,  5.122 sec ( 99.111%)
 optimization log               ...        0 min,  0.004 sec (  0.075%)
 hessian update                 ...        0 min,  0.002 sec (  0.035%)
 rational function              ...        0 min,  0.003 sec (  0.067%)

================
 final structure:
================
 xtb: 6.6.1 (8d0f1dd)
          11012414013D

 53 60  0     0  0            999 V2000
    0.7366    1.8054   -0.7343 C   0  0  0  0  0  0  0  0  0  0  0  0
    1.2466    1.0476    0.3747 C   0  0  0  0  0  0  0  0  0  0  0  0
   -0.6446    1.8843   -1.0907 C   0  0  0  0  0  0  0  0  0  0  0  0
    1.6569    2.5649   -1.4925 C   0  0  0  0  0  0  0  0  0  0  0  0
    2.6368    0.7819    0.4484 C   0  0  0  0  0  0  0  0  0  0  0  0
   -1.0878    3.0087   -1.8418 C   0  0  0  0  0  0  0  0  0  0  0  0
    3.0490    2.3131   -1.3677 C   0  0  0  0  0  0  0  0  0  0  0  0
    1.1924    3.5819   -2.3591 C   0  0  0  0  0  0  0  0  0  0  0  0
    3.5155    1.3949   -0.4860 C   0  0  0  0  0  0  0  0  0  0  0  0
   -0.1349    3.8632   -2.4483 C   0  0  0  0  0  0  0  0  0  0  0  0
    0.4431    0.6228    1.4488 C   0  0  0  0  0  0  0  0  0  0  0  0
   -1.6306    0.8969   -0.7886 C   0  0  0  0  0  0  0  0  0  0  0  0
    3.1327   -0.0320    1.4787 C   0  0  0  0  0  0  0  0  0  0  0  0
   -2.4648    3.2510   -2.0028 C   0  0  0  0  0  0  0  0  0  0  0  0
    0.9568   -0.1419    2.4678 C   0  0  0  0  0  0  0  0  0  0  0  0
   -3.0016    1.1947   -0.9153 C   0  0  0  0  0  0  0  0  0  0  0  0
    2.3017   -0.5139    2.4592 C   0  0  0  0  0  0  0  0  0  0  0  0
   -3.4094    2.4021   -1.4907 C   0  0  0  0  0  0  0  0  0  0  0  0
    3.7237    2.8603   -2.0082 H   0  0  0  0  0  0  0  0  0  0  0  0
    1.9184    4.1684   -2.9012 H   0  0  0  0  0  0  0  0  0  0  0  0
    4.5679    1.1620   -0.4301 H   0  0  0  0  0  0  0  0  0  0  0  0
   -0.4889    4.7075   -3.0187 H   0  0  0  0  0  0  0  0  0  0  0  0
    4.1889   -0.2539    1.5010 H   0  0  0  0  0  0  0  0  0  0  0  0
   -2.7737    4.1373   -2.5352 H   0  0  0  0  0  0  0  0  0  0  0  0
    2.6892   -1.1411    3.2465 H   0  0  0  0  0  0  0  0  0  0  0  0
   -4.4653    2.6010   -1.5688 H   0  0  0  0  0  0  0  0  0  0  0  0
   -3.9782    0.3442   -0.5381 O   0  0  0  0  0  0  0  0  0  0  0  0
   -3.6277   -0.8539   -0.0094 C   0  0  0  0  0  0  0  0  0  0  0  0
   -2.2836   -1.2569   -0.0512 C   0  0  0  0  0  0  0  0  0  0  0  0
   -1.3076   -0.4274   -0.5124 N   0  0  0  0  0  0  0  0  0  0  0  0
   -1.8803   -2.5404    0.4266 C   0  0  0  0  0  0  0  0  0  0  0  0
   -4.5708   -1.7085    0.5258 C   0  0  0  0  0  0  0  0  0  0  0  0
   -4.1720   -2.9530    1.0200 C   0  0  0  0  0  0  0  0  0  0  0  0
   -2.8618   -3.3734    0.9790 C   0  0  0  0  0  0  0  0  0  0  0  0
   -0.5900   -2.9006    0.3407 N   0  0  0  0  0  0  0  0  0  0  0  0
    0.2326   -2.0855   -0.2824 C   0  0  0  0  0  0  0  0  0  0  0  0
   -0.1004   -0.8422   -0.6942 N   0  0  0  0  0  0  0  0  0  0  0  0
    0.3204   -0.4493    3.2841 H   0  0  0  0  0  0  0  0  0  0  0  0
   -0.5890    0.9438    1.5005 H   0  0  0  0  0  0  0  0  0  0  0  0
    1.6160   -2.4701   -0.4973 C   0  0  0  0  0  0  0  0  0  0  0  0
    2.1454   -3.5668    0.1867 C   0  0  0  0  0  0  0  0  0  0  0  0
    3.4677   -3.9176    0.0031 C   0  0  0  0  0  0  0  0  0  0  0  0
    4.2670   -3.1891   -0.8663 C   0  0  0  0  0  0  0  0  0  0  0  0
    3.7412   -2.1078   -1.5585 C   0  0  0  0  0  0  0  0  0  0  0  0
    2.4225   -1.7432   -1.3761 C   0  0  0  0  0  0  0  0  0  0  0  0
    2.0002   -0.9107   -1.9167 H   0  0  0  0  0  0  0  0  0  0  0  0
    4.3621   -1.5512   -2.2437 H   0  0  0  0  0  0  0  0  0  0  0  0
    5.2998   -3.4684   -1.0092 H   0  0  0  0  0  0  0  0  0  0  0  0
    3.8792   -4.7619    0.5342 H   0  0  0  0  0  0  0  0  0  0  0  0
    1.5081   -4.1202    0.8578 H   0  0  0  0  0  0  0  0  0  0  0  0
   -2.5638   -4.3416    1.3443 H   0  0  0  0  0  0  0  0  0  0  0  0
   -4.9236   -3.6035    1.4390 H   0  0  0  0  0  0  0  0  0  0  0  0
   -5.6036   -1.4039    0.5516 H   0  0  0  0  0  0  0  0  0  0  0  0
  1  2  1  0  0  0  0
  1  3  1  0  0  0  0
  1  4  2  0  0  0  0
  2  5  1  0  0  0  0
  2 11  2  0  0  0  0
  3  6  1  0  0  0  0
  3 12  2  0  0  0  0
  4  7  1  0  0  0  0
  4  8  1  0  0  0  0
  5  9  1  0  0  0  0
  5 13  2  0  0  0  0
  6 10  1  0  0  0  0
  6 14  2  0  0  0  0
  7  9  2  0  0  0  0
  7 19  1  0  0  0  0
  8 10  2  0  0  0  0
  8 20  1  0  0  0  0
  9 21  1  0  0  0  0
 10 22  1  0  0  0  0
 11 15  1  0  0  0  0
 12 16  1  0  0  0  0
 13 17  1  0  0  0  0
 13 23  1  0  0  0  0
 14 18  1  0  0  0  0
 14 24  1  0  0  0  0
 15 17  2  0  0  0  0
 16 18  2  0  0  0  0
 17 25  1  0  0  0  0
 18 26  1  0  0  0  0
 27 28  1  0  0  0  0
 28 29  2  0  0  0  0
 29 30  1  0  0  0  0
 30 12  1  0  0  0  0
 29 31  1  0  0  0  0
 28 32  1  0  0  0  0
 32 33  2  0  0  0  0
 33 34  1  0  0  0  0
 34 31  2  0  0  0  0
 16 27  1  0  0  0  0
 31 35  1  0  0  0  0
 35 36  1  0  0  0  0
 36 37  2  0  0  0  0
 37 30  1  0  0  0  0
 15 38  1  0  0  0  0
 11 39  1  0  0  0  0
 36 40  1  0  0  0  0
 40 41  2  0  0  0  0
 41 42  1  0  0  0  0
 42 43  2  0  0  0  0
 43 44  1  0  0  0  0
 44 45  2  0  0  0  0
 45 40  1  0  0  0  0
 45 46  1  0  0  0  0
 44 47  1  0  0  0  0
 43 48  1  0  0  0  0
 42 49  1  0  0  0  0
 41 50  1  0  0  0  0
 34 51  1  0  0  0  0
 33 52  1  0  0  0  0
 32 53  1  0  0  0  0
M  CHG  1   1   1
M  END

 Bond Distances (Angstroems)
 ---------------------------
C1-C2=1.4368         C1-C3=1.4286         C1-C4=1.4138         C2-C1=1.4368         C2-C5=1.4173         C2-C11=1.4070        
C3-C1=1.4286         C3-C6=1.4230         C3-C12=1.4278        C4-C1=1.4138         C4-C7=1.4202         C4-C8=1.4145         
C5-C2=1.4173         C5-C9=1.4216         C5-C13=1.4036        C6-C3=1.4230         C6-C10=1.4163        C6-C14=1.4073        
C7-C4=1.4202         C7-C9=1.3558         C7-H19=1.0793        C8-C4=1.4145         C8-C10=1.3597        C8-H20=1.0794        
C9-C5=1.4216         C9-C7=1.3558         C9-H21=1.0793        C10-C6=1.4163        C10-C8=1.3597        C10-H22=1.0786       
C11-C2=1.4070        C11-C15=1.3736       C11-H39=1.0821       C12-C3=1.4278        C12-C16=1.4087       C12-N30=1.3908       
C13-C5=1.4036        C13-C17=1.3726       C13-H23=1.0795       C14-C6=1.4073        C14-C18=1.3694       C14-H24=1.0791       
C15-C11=1.3736       C15-C17=1.3955       C15-H38=1.0797       C16-C12=1.4087       C16-C18=1.3983       C16-O27=1.3488       
C17-C13=1.3726       C17-C15=1.3955       C17-H25=1.0786       C18-C14=1.3694       C18-C16=1.3983       C18-H26=1.0772       
H19-C7=1.0793        H20-C8=1.0794        H21-C9=1.0793        H22-C10=1.0786       H23-C13=1.0795       H24-C14=1.0791       
H25-C17=1.0786       H26-C18=1.0772       O27-C16=1.3488       O27-C28=1.3558       C28-O27=1.3558       C28-C29=1.4038       
C28-C32=1.3807       C29-C28=1.4038       C29-N30=1.3613       C29-C31=1.4277       N30-C12=1.3908       N30-C29=1.3613       
N30-N37=1.2893       C31-C29=1.4277       C31-C34=1.4008       C31-N35=1.3423       C32-C28=1.3807       C32-C33=1.3971       
C32-H53=1.0771       C33-C32=1.3971       C33-C34=1.3767       C33-H52=1.0787       C34-C31=1.4008       C34-C33=1.3767       
C34-H51=1.0769       N35-C31=1.3423       N35-C36=1.3151       C36-N35=1.3151       C36-N37=1.3514       C36-C40=1.4518       
N37-N30=1.2893       N37-C36=1.3514       H38-C15=1.0797       H39-C11=1.0821       C40-C36=1.4518       C40-C41=1.3967       
C40-C45=1.3969       C41-C40=1.3967       C41-C42=1.3803       C41-H50=1.0783       C42-C41=1.3803       C42-C43=1.3876       
C42-H49=1.0790       C43-C42=1.3876       C43-C44=1.3874       C43-H48=1.0794       C44-C43=1.3874       C44-C45=1.3802       
C44-H47=1.0793       C45-C40=1.3969       C45-C44=1.3802       C45-H46=1.0787       H46-C45=1.0787       H47-C44=1.0793       
H48-C43=1.0794       H49-C42=1.0790       H50-C41=1.0783       H51-C34=1.0769       H52-C33=1.0787       H53-C32=1.0771       
 C  H  Rav=1.0789 sigma=0.0011  Rmin=1.0769  Rmax=1.0821    18
 C  C  Rav=1.4012 sigma=0.0223  Rmin=1.3558  Rmax=1.4518    34
 N  C  Rav=1.3522 sigma=0.0247  Rmin=1.3151  Rmax=1.3908     5
 N  N  Rav=1.2893 sigma=0.0000  Rmin=1.2893  Rmax=1.2893     1
 O  C  Rav=1.3523 sigma=0.0035  Rmin=1.3488  Rmax=1.3558     2

 selected bond angles (degree)
 --------------------
C3-C1-C2=124.39                C4-C1-C2=117.80                C4-C1-C3=117.76                C5-C2-C1=119.15                
C11-C2-C1=123.08               C11-C2-C5=117.64               C6-C3-C1=118.46                C12-C3-C1=125.22               
C12-C3-C6=116.30               C7-C4-C1=119.71                C8-C4-C1=120.07                C8-C4-C7=120.21                
C9-C5-C2=119.43                C13-C5-C2=119.57               C13-C5-C9=120.94               C10-C6-C3=119.55               
C14-C6-C3=120.08               C14-C6-C10=120.36              C9-C7-C4=120.97                H19-C7-C4=118.08               
H19-C7-C9=120.94               C10-C8-C4=120.63               H20-C8-C4=118.52               H20-C8-C10=120.75              
C7-C9-C5=120.45                H21-C9-C5=118.40               H21-C9-C7=121.02               C8-C10-C6=120.25               
H22-C10-C6=118.55              H22-C10-C8=121.13              

 selected dihedral angles (degree)
 ---------------------------------
C5-C2-C1-C3=165.13            C5-C2-C1-C4=342.57            C11-C2-C1-C3=340.88           C11-C2-C1-C4=158.32           
C6-C3-C1-C2=156.56            C6-C3-C1-C4=339.12            C12-C3-C1-C2=334.54           C12-C3-C1-C4=157.10           
C7-C4-C1-C2= 15.49            C7-C4-C1-C3=193.11            C8-C4-C1-C2=196.25            C8-C4-C1-C3= 13.86            
C9-C5-C2-C1=  7.15            C9-C5-C2-C11=191.16           C13-C5-C2-C1=184.23           C13-C5-C2-C11=  8.25          
C10-C6-C3-C1= 12.97           C10-C6-C3-C12=194.81          C14-C6-C3-C1=191.63           C14-C6-C3-C12= 13.47          
C9-C7-C4-C1=356.97            C9-C7-C4-C8=176.21            H19-C7-C4-C1=175.84           H19-C7-C4-C8=355.09           
C10-C8-C4-C1=  1.66           C10-C8-C4-C7=182.42           H20-C8-C4-C1=177.99           H20-C8-C4-C7=358.75           
C7-C9-C5-C2=  5.60            C7-C9-C5-C13=188.56           H21-C9-C5-C2=181.49           H21-C9-C5-C13=  4.45          
C5-C9-C7-C4=352.24            C5-C9-C7-H19=173.40           H21-C9-C7-C4=176.46           H21-C9-C7-H19=357.62          
C8-C10-C6-C3=  2.63           C8-C10-C6-C14=183.97          H22-C10-C6-C3=179.66          H22-C10-C6-C14=  1.00         
C6-C10-C8-C4=349.94           C6-C10-C8-H20=173.69          H22-C10-C8-C4=172.98          H22-C10-C8-H20=356.74         
           -------------------------------------------------
          |                Final Singlepoint                |
           -------------------------------------------------

          ...................................................
          :                      SETUP                      :
          :.................................................:
          :  # basis functions                 158          :
          :  # atomic orbitals                 158          :
          :  # shells                           88          :
          :  # electrons                       162          :
          :  max. iterations                   250          :
          :  Hamiltonian                  GFN2-xTB          :
          :  restarted?                      false          :
          :  GBSA solvation                  false          :
          :  PC potential                    false          :
          :  electronic temp.          300.0000000     K    :
          :  accuracy                    1.0000000          :
          :  -> integral cutoff          0.2500000E+02      :
          :  -> integral neglect         0.1000000E-07      :
          :  -> SCF convergence          0.1000000E-05 Eh   :
          :  -> wf. convergence          0.1000000E-03 e    :
          :  Broyden damping             0.4000000          :
          ...................................................

 iter      E             dE          RMSdq      gap      omega  full diag
   1    -89.5934177 -0.895934E+02  0.547E-05    1.00       0.0  T
   2    -89.5934177 -0.588329E-11  0.442E-05    1.00     310.8  T
   3    -89.5934177 -0.129646E-09  0.184E-05    1.00     748.2  T

   *** convergence criteria satisfied after 3 iterations ***

         #    Occupation            Energy/Eh            Energy/eV
      -------------------------------------------------------------
         1        2.0000           -0.8894928             -24.2043
       ...           ...                  ...                  ...
        75        2.0000           -0.5256678             -14.3041
        76        2.0000           -0.5165078             -14.0549
        77        2.0000           -0.5110648             -13.9068
        78        2.0000           -0.5079595             -13.8223
        79        2.0000           -0.5026075             -13.6766
        80        2.0000           -0.4976492             -13.5417
        81        2.0000           -0.4922962             -13.3961 (HOMO)
        82                         -0.4555922             -12.3973 (LUMO)
        83                         -0.4012411             -10.9183
        84                         -0.4008712             -10.9083
        85                         -0.3802736             -10.3478
        86                         -0.3641001              -9.9077
       ...                                ...                  ...
       158                          0.5931773              16.1412
      -------------------------------------------------------------
                  HL-Gap            0.0367041 Eh            0.9988 eV
             Fermi-level           -0.4739425 Eh          -12.8966 eV

 SCC (total)                   0 d,  0 h,  0 min,  0.063 sec
 SCC setup                      ...        0 min,  0.000 sec (  0.202%)
 Dispersion                     ...        0 min,  0.000 sec (  0.583%)
 classical contributions        ...        0 min,  0.000 sec (  0.152%)
 integral evaluation            ...        0 min,  0.002 sec (  2.981%)
 iterations                     ...        0 min,  0.053 sec ( 83.799%)
 molecular gradient             ...        0 min,  0.007 sec ( 11.802%)
 printout                       ...        0 min,  0.000 sec (  0.467%)

         :::::::::::::::::::::::::::::::::::::::::::::::::::::
         ::                     SUMMARY                     ::
         :::::::::::::::::::::::::::::::::::::::::::::::::::::
         :: total energy             -88.027831517155 Eh    ::
         :: gradient norm              0.000540242408 Eh/a0 ::
         :: HOMO-LUMO gap              0.998768039166 eV    ::
         ::.................................................::
         :: SCC energy               -89.593417702356 Eh    ::
         :: -> isotropic ES            0.080079470125 Eh    ::
         :: -> anisotropic ES         -0.005991263372 Eh    ::
         :: -> anisotropic XC          0.056194335141 Eh    ::
         :: -> dispersion             -0.084304576027 Eh    ::
         :: repulsion energy           1.563600108987 Eh    ::
         :: add. restraining           0.000000000000 Eh    ::
         :: total charge               1.000000000029 e     ::
         :::::::::::::::::::::::::::::::::::::::::::::::::::::

           -------------------------------------------------
          |                Property Printout                |
           -------------------------------------------------

    * Orbital Energies and Occupations

         #    Occupation            Energy/Eh            Energy/eV
      -------------------------------------------------------------
         1        2.0000           -0.8894928             -24.2043
       ...           ...                  ...                  ...
        69        2.0000           -0.5469482             -14.8832
        70        2.0000           -0.5395786             -14.6827
        71        2.0000           -0.5316247             -14.4662
        72        2.0000           -0.5294905             -14.4082
        73        2.0000           -0.5283198             -14.3763
        74        2.0000           -0.5259521             -14.3119
        75        2.0000           -0.5256678             -14.3041
        76        2.0000           -0.5165078             -14.0549
        77        2.0000           -0.5110648             -13.9068
        78        2.0000           -0.5079595             -13.8223
        79        2.0000           -0.5026075             -13.6766
        80        2.0000           -0.4976492             -13.5417
        81        2.0000           -0.4922962             -13.3961 (HOMO)
        82                         -0.4555922             -12.3973 (LUMO)
        83                         -0.4012411             -10.9183
        84                         -0.4008712             -10.9083
        85                         -0.3802736             -10.3478
        86                         -0.3641001              -9.9077
        87                         -0.3492059              -9.5024
        88                         -0.3390064              -9.2248
        89                         -0.3310520              -9.0084
        90                         -0.3265364              -8.8855
        91                         -0.3045471              -8.2871
        92                         -0.2944708              -8.0130
       ...                                ...                  ...
       158                          0.5931773              16.1412
      -------------------------------------------------------------
                  HL-Gap            0.0367041 Eh            0.9988 eV
             Fermi-level           -0.4739425 Eh          -12.8966 eV

     #   Z          covCN         q      C6AA      α(0)
     1   6 C        2.977     0.013    27.715     8.635
     2   6 C        2.982     0.016    27.649     8.625
     3   6 C        2.977     0.011    27.758     8.642
     4   6 C        2.988     0.029    27.354     8.579
     5   6 C        2.988     0.021    27.521     8.605
     6   6 C        2.987     0.018    27.601     8.618
     7   6 C        2.916    -0.031    28.773     8.796
     8   6 C        2.917    -0.023    28.581     8.767
     9   6 C        2.915    -0.022    28.552     8.762
    10   6 C        2.917    -0.026    28.653     8.778
    11   6 C        2.920    -0.032    28.801     8.801
    12   6 C        2.939     0.012    27.737     8.638
    13   6 C        2.922    -0.026    28.659     8.779
    14   6 C        2.922    -0.012    28.325     8.728
    15   6 C        2.916    -0.026    28.663     8.779
    16   6 C        2.890     0.149    24.764     8.159
    17   6 C        2.916    -0.022    28.546     8.761
    18   6 C        2.911    -0.048    29.185     8.859
    19   1 H        0.926     0.060     2.199     2.319
    20   1 H        0.926     0.068     2.112     2.273
    21   1 H        0.926     0.058     2.219     2.329
    22   1 H        0.926     0.067     2.124     2.279
    23   1 H        0.926     0.054     2.276     2.359
    24   1 H        0.926     0.086     1.918     2.166
    25   1 H        0.926     0.055     2.257     2.349
    26   1 H        0.926     0.090     1.877     2.143
    27   8 O        1.711    -0.181    17.029     5.572
    28   6 C        2.883     0.137    25.015     8.200
    29   6 C        2.952     0.018    27.616     8.619
    30   7 N        2.857     0.189    18.095     6.318
    31   6 C        2.972     0.105    25.665     8.310
    32   6 C        2.915    -0.047    29.177     8.858
    33   6 C        2.919    -0.010    28.268     8.719
    34   6 C        2.915    -0.043    29.071     8.842
    35   7 N        1.844    -0.231    26.906     7.687
    36   6 C        2.917     0.182    24.108     8.052
    37   7 N        1.945    -0.197    26.087     7.574
    38   1 H        0.926     0.046     2.372     2.409
    39   1 H        0.925     0.021     2.718     2.578
    40   6 C        2.987     0.001    27.998     8.680
    41   6 C        2.923    -0.019    28.486     8.753
    42   6 C        2.918    -0.020    28.514     8.757
    43   6 C        2.920    -0.013    28.336     8.729
    44   6 C        2.918    -0.022    28.566     8.764
    45   6 C        2.922    -0.022    28.549     8.762
    46   1 H        0.926     0.051     2.311     2.377
    47   1 H        0.926     0.054     2.273     2.357
    48   1 H        0.926     0.062     2.180     2.309
    49   1 H        0.926     0.061     2.183     2.310
    50   1 H        0.926     0.069     2.099     2.265
    51   1 H        0.926     0.093     1.847     2.125
    52   1 H        0.926     0.088     1.898     2.154
    53   1 H        0.926     0.091     1.869     2.138

 Mol. C6AA /au·bohr⁶  :      43488.939446
 Mol. C8AA /au·bohr⁸  :    1119255.081510
 Mol. α(0) /au        :        336.745932


Wiberg/Mayer (AO) data.
largest (>0.10) Wiberg bond orders for each atom

 ---------------------------------------------------------------------------
     #   Z sym  total        # sym  WBO       # sym  WBO       # sym  WBO
 ---------------------------------------------------------------------------
     1   6 C    3.982 --     4 C    1.295     3 C    1.238     2 C    1.188
     2   6 C    3.988 --    11 C    1.309     5 C    1.266     1 C    1.188
     3   6 C    3.982 --     6 C    1.255     1 C    1.238    12 C    1.225
     4   6 C    3.978 --     1 C    1.295     8 C    1.255     7 C    1.229
     5   6 C    3.987 --    13 C    1.317     2 C    1.266     9 C    1.215
     6   6 C    3.978 --    14 C    1.292     3 C    1.255    10 C    1.244
     7   6 C    3.983 --     9 C    1.619     4 C    1.229    19 H    0.964
     8   6 C    3.972 --    10 C    1.585     4 C    1.255    20 H    0.963
     9   6 C    3.967 --     7 C    1.619     5 C    1.215    21 H    0.965
    10   6 C    3.969 --     8 C    1.585     6 C    1.244    22 H    0.963
    11   6 C    3.990 --    15 C    1.504     2 C    1.309    39 H    0.966
                            13 C    0.102
    12   6 C    3.940 --    16 C    1.287     3 C    1.225    30 N    1.092
    13   6 C    3.974 --    17 C    1.505     5 C    1.317    23 H    0.966
                            11 C    0.102
    14   6 C    3.954 --    18 C    1.511     6 C    1.292    24 H    0.961
    15   6 C    3.982 --    11 C    1.504    17 C    1.361    38 H    0.969
    16   6 C    3.920 --    18 C    1.311    12 C    1.287    27 O    1.089
    17   6 C    3.980 --    13 C    1.505    15 C    1.361    25 H    0.969
    18   6 C    3.966 --    14 C    1.511    16 C    1.311    26 H    0.960
    19   1 H    0.995 --     7 C    0.964
    20   1 H    0.994 --     8 C    0.963
    21   1 H    0.995 --     9 C    0.965
    22   1 H    0.994 --    10 C    0.963
    23   1 H    0.997 --    13 C    0.966
    24   1 H    0.991 --    14 C    0.961
    25   1 H    0.996 --    17 C    0.969
    26   1 H    0.990 --    18 C    0.960
    27   8 O    2.413 --    16 C    1.089    28 C    1.054
    28   6 C    3.923 --    32 C    1.418    29 C    1.248    27 O    1.054
    29   6 C    3.945 --    28 C    1.248    30 N    1.186    31 C    1.185
    30   7 N    3.794 --    37 N    1.309    29 C    1.186    12 C    1.092
    31   6 C    3.974 --    34 C    1.304    35 N    1.290    29 C    1.185
    32   6 C    3.959 --    28 C    1.418    33 C    1.370    53 H    0.962
    33   6 C    3.972 --    34 C    1.498    32 C    1.370    52 H    0.964
    34   6 C    3.969 --    33 C    1.498    31 C    1.304    51 H    0.961
    35   7 N    3.063 --    36 C    1.430    31 C    1.290
    36   6 C    3.954 --    35 N    1.430    37 N    1.253    40 C    1.085
    37   7 N    3.036 --    30 N    1.309    36 C    1.253
    38   1 H    0.997 --    15 C    0.969
    39   1 H    0.999 --    11 C    0.966
    40   6 C    3.980 --    41 C    1.356    45 C    1.356    36 C    1.085
    41   6 C    3.982 --    42 C    1.465    40 C    1.356    50 H    0.965
                            44 C    0.102
    42   6 C    3.988 --    41 C    1.465    43 C    1.424    49 H    0.968
                            45 C    0.102
    43   6 C    3.973 --    44 C    1.424    42 C    1.424    48 H    0.969
    44   6 C    3.989 --    45 C    1.465    43 C    1.424    47 H    0.969
                            41 C    0.102
    45   6 C    3.982 --    44 C    1.465    40 C    1.356    46 H    0.966
                            42 C    0.102
    46   1 H    0.997 --    45 C    0.966
    47   1 H    0.997 --    44 C    0.969
    48   1 H    0.996 --    43 C    0.969
    49   1 H    0.996 --    42 C    0.968
    50   1 H    0.995 --    41 C    0.965
    51   1 H    0.991 --    34 C    0.961
    52   1 H    0.991 --    33 C    0.964
    53   1 H    0.991 --    32 C    0.962
 ---------------------------------------------------------------------------

Topologies differ in bond orders
Writing corrected topology to xtbtopo.mol

molecular dipole:
                 x           y           z       tot (Debye)
 q only:       -0.715      -0.070      -0.883
   full:       -1.134       0.066      -0.879       3.651
molecular quadrupole (traceless):
                xx          xy          yy          xz          yz          zz
 q only:       23.317      -1.661       3.811      -3.213     -21.371     -27.128
  q+dip:       31.250      -2.594      -1.955      -3.998     -28.064     -29.295
   full:       24.828      -0.803      -0.932      -1.959     -19.323     -23.896

           -------------------------------------------------
          |                Geometry Summary                 |
           -------------------------------------------------

      molecular mass/u    :      448.4952609
   center of mass at/Å    :        0.0122124      -0.1794463      -0.3173372
  moments of inertia/u·Å² :        0.2920583E+04   0.3510559E+04   0.5506125E+04
rotational constants/cm⁻¹ :        0.5772009E-02   0.4801980E-02   0.3061614E-02

 * 58 selected distances

     #   Z          #   Z                                           value/Å
     1   6 C        3   6 C                                       1.4285758 (max)
     1   6 C        4   6 C                                       1.4137620
     2   6 C        5   6 C                                       1.4172847
     3   6 C        6   6 C                                       1.4230220
     4   6 C        7   6 C                                       1.4201987
     4   6 C        8   6 C                                       1.4145109
     5   6 C        9   6 C                                       1.4216262
     7   6 C        9   6 C                                       1.3557963
     6   6 C       10   6 C                                       1.4162845
     8   6 C       10   6 C                                       1.3597224
     2   6 C       11   6 C                                       1.4070130
     3   6 C       12   6 C                                       1.4278097
     5   6 C       13   6 C                                       1.4035830
     6   6 C       14   6 C                                       1.4073440
    11   6 C       15   6 C                                       1.3736227
    12   6 C       16   6 C                                       1.4086773
    13   6 C       17   6 C                                       1.3725812
    15   6 C       17   6 C                                       1.3955166
    14   6 C       18   6 C                                       1.3694352
    16   6 C       18   6 C                                       1.3982755
     7   6 C       19   1 H                                       1.0793259
     8   6 C       20   1 H                                       1.0793811
     9   6 C       21   1 H                                       1.0792617
    10   6 C       22   1 H                                       1.0786424
    13   6 C       23   1 H                                       1.0794619
    14   6 C       24   1 H                                       1.0791414
    17   6 C       25   1 H                                       1.0785795
    18   6 C       26   1 H                                       1.0772320
    16   6 C       27   8 O                                       1.3487932
    27   8 O       28   6 C                                       1.3557542
    28   6 C       29   6 C                                       1.4038253
    12   6 C       30   7 N                                       1.3908413
    29   6 C       30   7 N                                       1.3613391
    29   6 C       31   6 C                                       1.4276607
    28   6 C       32   6 C                                       1.3806671
    32   6 C       33   6 C                                       1.3970785
    31   6 C       34   6 C                                       1.4008008
    33   6 C       34   6 C                                       1.3766612
    31   6 C       35   7 N                                       1.3423438
    35   7 N       36   6 C                                       1.3150977
    30   7 N       37   7 N                                       1.2893226
    36   6 C       37   7 N                                       1.3514028
    15   6 C       38   1 H                                       1.0797190
    11   6 C       39   1 H                                       1.0820844
    40   6 C       41   6 C                                       1.3967144
    41   6 C       42   6 C                                       1.3802859
    42   6 C       43   6 C                                       1.3876343
    43   6 C       44   6 C                                       1.3874085
    40   6 C       45   6 C                                       1.3968992
    44   6 C       45   6 C                                       1.3802452
    45   6 C       46   1 H                                       1.0786925
Note: The following floating-point exceptions are signalling: IEEE_UNDERFLOW_FLAG
normal termination of xtb
    44   6 C       47   1 H                                       1.0793114
    43   6 C       48   1 H                                       1.0793592
    42   6 C       49   1 H                                       1.0790288
    41   6 C       50   1 H                                       1.0782699
    34   6 C       51   1 H                                       1.0769450 (min)
    33   6 C       52   1 H                                       1.0787052
    32   6 C       53   1 H                                       1.0771479

 * 5 distinct bonds (by element types)

   Z      Z             #   av. dist./Å        max./Å        min./Å
   1 H    6 C          18     1.0789050     1.0820844     1.0769450
   6 C    6 C          32     1.3984538     1.4285758     1.3557963
   6 C    7 N           5     1.3522050     1.3908413     1.3150977
   7 N    7 N           1     1.2893226     1.2893226     1.2893226
   6 C    8 O           2     1.3522737     1.3557542     1.3487932


optimized geometry written to: xtbopt.mol


           -------------------------------------------------
          | TOTAL ENERGY              -88.027831517155 Eh   |
          | GRADIENT NORM               0.000540242408 Eh/α |
          | HOMO-LUMO GAP               0.998768039166 eV   |
           -------------------------------------------------
########################################################################
[WARNING] Runtime exception occurred
-1- restart_readRestart: Number of electron missmatch in restart file.
########################################################################

------------------------------------------------------------------------
 * finished run on 2024/11/01 at 14:01:10.552     
------------------------------------------------------------------------
 total:
 * wall-time:     0 d,  0 h,  0 min,  5.658 sec
 *  cpu-time:     0 d,  0 h,  0 min, 15.462 sec
 * ratio c/w:     2.733 speedup
 SCF:
 * wall-time:     0 d,  0 h,  0 min,  0.417 sec
 *  cpu-time:     0 d,  0 h,  0 min,  1.427 sec
 * ratio c/w:     3.427 speedup
 ANC optimizer:
 * wall-time:     0 d,  0 h,  0 min,  5.233 sec
 *  cpu-time:     0 d,  0 h,  0 min, 14.021 sec
 * ratio c/w:     2.679 speedup

