      -----------------------------------------------------------      
     |                   =====================                   |     
     |                           x T B                           |     
     |                   =====================                   |     
     |                         S. Grimme                         |     
     |          Mulliken Center for Theoretical Chemistry        |     
     |                    University of Bonn                     |     
      -----------------------------------------------------------      

   * xtb version 6.6.1 (8d0f1dd) compiled by 'runner@Mac-1690902418499.local' on 2023-08-01

   xtb is free software: you can redistribute it and/or modify it under
   the terms of the GNU Lesser General Public License as published by
   the Free Software Foundation, either version 3 of the License, or
   (at your option) any later version.
   
   xtb is distributed in the hope that it will be useful,
   but WITHOUT ANY WARRANTY; without even the implied warranty of
   MERCHANTABILITY or FITNESS FOR A PARTICULAR PURPOSE.  See the
   GNU Lesser General Public License for more details.
   
   Cite this work as:
   * C. Bannwarth, E. Caldeweyher, S. Ehlert, A. Hansen, P. Pracht,
     J. Seibert, S. Spicher, S. Grimme, WIREs Comput. Mol. Sci., 2020, 11,
     e01493. DOI: 10.1002/wcms.1493
   
   for GFN2-xTB:
   * C. Bannwarth, S. Ehlert and S. Grimme., J. Chem. Theory Comput., 2019,
     15, 1652-1671. DOI: 10.1021/acs.jctc.8b01176
   for GFN1-xTB:
   * S. Grimme, C. Bannwarth, P. Shushkov, J. Chem. Theory Comput., 2017,
     13, 1989-2009. DOI: 10.1021/acs.jctc.7b00118
   for GFN0-xTB:
   * P. Pracht, E. Caldeweyher, S. Ehlert, S. Grimme, ChemRxiv, 2019, preprint.
     DOI: 10.26434/chemrxiv.8326202.v1
   for GFN-FF:
   * S. Spicher and S. Grimme, Angew. Chem. Int. Ed., 2020, 59, 15665-15673.
     DOI: 10.1002/anie.202004239
   
   for ALPB and GBSA implicit solvation:
   * S. Ehlert, M. Stahn, S. Spicher, S. Grimme, J. Chem. Theory Comput.,
     2021, 17, 4250-4261. DOI: 10.1021/acs.jctc.1c00471
   
   for DFT-D4:
   * E. Caldeweyher, C. Bannwarth and S. Grimme, J. Chem. Phys., 2017,
     147, 034112. DOI: 10.1063/1.4993215
   * E. Caldeweyher, S. Ehlert, A. Hansen, H. Neugebauer, S. Spicher,
     C. Bannwarth and S. Grimme, J. Chem. Phys., 2019, 150, 154122.
     DOI: 10.1063/1.5090222
   * E. Caldeweyher, J.-M. Mewes, S. Ehlert and S. Grimme, Phys. Chem. Chem. Phys.
     2020, 22, 8499-8512. DOI: 10.1039/D0CP00502A
   
   for sTDA-xTB:
   * S. Grimme and C. Bannwarth, J. Chem. Phys., 2016, 145, 054103.
     DOI: 10.1063/1.4959605
   
   in the mass-spec context:
   * V. Asgeirsson, C. Bauer and S. Grimme, Chem. Sci., 2017, 8, 4879.
     DOI: 10.1039/c7sc00601b
   * J. Koopman and S. Grimme, ACS Omega 2019, 4, 12, 15120-15133.
     DOI: 10.1021/acsomega.9b02011
   
   for metadynamics refer to:
   * S. Grimme, J. Chem. Theory Comput., 2019, 155, 2847-2862
     DOI: 10.1021/acs.jctc.9b00143
   
   for SPH calculations refer to:
   * S. Spicher and S. Grimme, J. Chem. Theory Comput., 2021, 17, 1701-1714
     DOI: 10.1021/acs.jctc.0c01306
   
   with help from (in alphabetical order)
   P. Atkinson, C. Bannwarth, F. Bohle, G. Brandenburg, E. Caldeweyher
   M. Checinski, S. Dohm, S. Ehlert, S. Ehrlich, I. Gerasimov, C. Hölzer
   A. Katbashev, J. Koopman, C. Lavigne, S. Lehtola, F. März, M. Müller,
   F. Musil, H. Neugebauer, J. Pisarek, C. Plett, P. Pracht, F. Pultar,
   J. Seibert, P. Shushkov, S. Spicher, M. Stahn, M. Steiner, T. Strunk,
   J. Stückrath, T. Rose, and J. Unsleber
   
 * started run on 2024/11/01 at 14:45:18.226     

           -------------------------------------------------
          |                Calculation Setup                |
           -------------------------------------------------

          program call               : xtb stacked_dimer_Blatter1.mol --opt --gfn2 --chrg 1 --uhf 0 --tight
          coordinate file            : stacked_dimer_Blatter1.mol
          omp threads                :                     8

   ID    Z sym.   atoms
    1    6 C      1-18, 28, 29, 31-34, 36, 40-45, 54-71, 81, 82, 84-87, 89,
                  93-98
    2    1 H      19-26, 38, 39, 46-53, 72-79, 91, 92, 99-106
    3    8 O      27, 80
    4    7 N      30, 35, 37, 83, 88, 90
########################################################################
[WARNING] Please study the warnings concerning your input carefully
-2- prog_main: Charge in sdf/mol input was overwritten
-1- prog_main_parseArguments: Unknown option '--tight' provided
########################################################################

           -------------------------------------------------
          |                 G F N 2 - x T B                 |
           -------------------------------------------------

        Reference                      10.1021/acs.jctc.8b01176
      * Hamiltonian:
        H0-scaling (s, p, d)           1.850000    2.230000    2.230000
        zeta-weighting                 0.500000
      * Dispersion:
        s8                             2.700000
        a1                             0.520000
        a2                             5.000000
        s9                             5.000000
      * Repulsion:
        kExp                           1.500000    1.000000
        rExp                           1.000000
      * Coulomb:
        alpha                          2.000000
        third order                    shell-resolved
        anisotropic                    true
        a3                             3.000000
        a5                             4.000000
        cn-shift                       1.200000
        cn-exp                         4.000000
        max-rad                        5.000000

q/qsh data taken from xtbrestart
CAMM data taken from xtbrestart

          ...................................................
          :                      SETUP                      :
          :.................................................:
          :  # basis functions                 316          :
          :  # atomic orbitals                 316          :
          :  # shells                          176          :
          :  # electrons                       325          :
          :  max. iterations                   250          :
          :  Hamiltonian                  GFN2-xTB          :
          :  restarted?                       true          :
          :  GBSA solvation                  false          :
          :  PC potential                    false          :
          :  electronic temp.          300.0000000     K    :
          :  accuracy                    1.0000000          :
          :  -> integral cutoff          0.2500000E+02      :
          :  -> integral neglect         0.1000000E-07      :
          :  -> SCF convergence          0.1000000E-05 Eh   :
          :  -> wf. convergence          0.1000000E-03 e    :
          :  Broyden damping             0.4000000          :
          ...................................................

 iter      E             dE          RMSdq      gap      omega  full diag
   1   -178.5843664 -0.178584E+03  0.152E+00    0.06       0.0  T
   2   -175.7562941  0.282807E+01  0.301E+00    0.10       1.0  T
   3   -178.8471194 -0.309083E+01  0.132E+00    0.18       1.0  T
   4   -178.9987382 -0.151619E+00  0.848E-01    0.05       1.0  T
   5   -178.9288506  0.698876E-01  0.933E-01    0.17       1.0  T
   6   -179.0432326 -0.114382E+00  0.491E-01    0.07       1.0  T
   7   -179.0351595  0.807315E-02  0.404E-01    0.12       1.0  T
   8   -179.0079070  0.272525E-01  0.527E-01    0.18       1.0  T
   9   -179.0755439 -0.676370E-01  0.122E-01    0.07       1.0  T
  10   -179.0724037  0.314024E-02  0.152E-01    0.08       1.0  T
  11   -179.0773309 -0.492725E-02  0.359E-02    0.07       1.0  T
  12   -179.0773765 -0.455984E-04  0.216E-02    0.07       1.0  T
  13   -179.0774566 -0.800327E-04  0.149E-02    0.07       1.0  T
  14   -179.0774529  0.365988E-05  0.132E-02    0.07       1.0  T
  15   -179.0774834 -0.304796E-04  0.494E-03    0.07       2.0  T
  16   -179.0774840 -0.620747E-06  0.326E-03    0.07       3.0  T
  17   -179.0774851 -0.113877E-05  0.147E-03    0.07       6.6  T
  18   -179.0774856 -0.416179E-06  0.431E-04    0.07      22.6  T
  19   -179.0774856 -0.218150E-07  0.138E-04    0.07      70.5  T

   *** convergence criteria satisfied after 19 iterations ***

         #    Occupation            Energy/Eh            Energy/eV
      -------------------------------------------------------------
         1        2.0000           -0.8536058             -23.2278
       ...           ...                  ...                  ...
       157        2.0000           -0.4699163             -12.7871
       158        2.0000           -0.4633100             -12.6073
       159        2.0000           -0.4609861             -12.5441
       160        2.0000           -0.4570940             -12.4382
       161        2.0000           -0.4490189             -12.2184
       162        1.9282           -0.4181586             -11.3787
       163        0.8594           -0.4131854             -11.2433 (HOMO)
       164        0.2125           -0.4106334             -11.1739 (LUMO)
       165        0.0000           -0.4008633             -10.9080
       166                         -0.3771010             -10.2614
       167                         -0.3624513              -9.8628
       168                         -0.3604651              -9.8088
       ...                                ...                  ...
       316                          0.6273011              17.0697
      -------------------------------------------------------------
                  HL-Gap            0.0025519 Eh            0.0694 eV
             Fermi-level           -0.4138066 Eh          -11.2602 eV

 SCC (total)                   0 d,  0 h,  0 min,  1.145 sec
 SCC setup                      ...        0 min,  0.000 sec (  0.025%)
 Dispersion                     ...        0 min,  0.001 sec (  0.107%)
 classical contributions        ...        0 min,  0.000 sec (  0.020%)
 integral evaluation            ...        0 min,  0.007 sec (  0.568%)
 iterations                     ...        0 min,  1.091 sec ( 95.318%)
 molecular gradient             ...        0 min,  0.040 sec (  3.489%)
 printout                       ...        0 min,  0.005 sec (  0.472%)

         :::::::::::::::::::::::::::::::::::::::::::::::::::::
         ::                     SUMMARY                     ::
         :::::::::::::::::::::::::::::::::::::::::::::::::::::
         :: total energy            -175.912830523314 Eh    ::
         :: gradient norm              0.385158252430 Eh/a0 ::
         :: HOMO-LUMO gap              0.069441773169 eV    ::
         ::.................................................::
         :: SCC energy              -179.077485574745 Eh    ::
         :: -> isotropic ES            0.120416153557 Eh    ::
         :: -> anisotropic ES          0.010094197847 Eh    ::
         :: -> anisotropic XC          0.105250691354 Eh    ::
         :: -> dispersion             -0.223558609255 Eh    ::
         :: repulsion energy           3.145676682356 Eh    ::
         :: add. restraining           0.000000000000 Eh    ::
         :: total charge               0.999998060265 e     ::
         :::::::::::::::::::::::::::::::::::::::::::::::::::::

      ----------------------------------------------------------- 
     |                   =====================                   |
     |                        A N C O P T                        |
     |                   =====================                   |
     |               Approximate Normal Coordinate               |
     |                Rational Function Optimizer                |
      ----------------------------------------------------------- 

          ...................................................
          :                      SETUP                      :
          :.................................................:
          :   optimization level            normal          :
          :   max. optcycles                   318          :
          :   ANC micro-cycles                  20          :
          :   degrees of freedom               312          :
          :.................................................:
          :   RF solver                   davidson          :
          :   write xtbopt.log                true          :
          :   linear?                        false          :
          :   energy convergence         0.5000000E-05 Eh   :
          :   grad. convergence          0.1000000E-02 Eh/α :
          :   maxmium RF displ.          1.0000000          :
          :   Hlow (freq-cutoff)         0.1000000E-01      :
          :   Hmax (freq-cutoff)         5.0000000          :
          :   S6 in model hess.         20.0000000          :
          ...................................................

generating ANC from model Hessian ...
Using Lindh-Hessian (1995)
 Shifting diagonal of input Hessian by    9.7850755450878350E-003
 Lowest  eigenvalues of input Hessian
    0.000000    0.000000    0.000000    0.000000    0.000000    0.000000
    0.010000    0.010113    0.010262    0.010479    0.010539    0.010755
    0.010886    0.011272    0.011349    0.011667    0.011884    0.012008
 Highest eigenvalues
    2.189058    2.215949    2.287133    2.293192    2.315091    2.318508


........................................................................
.............................. CYCLE    1 ..............................
........................................................................

 iter      E             dE          RMSdq      gap      omega  full diag
   1   -179.0774856 -0.179077E+03  0.694E-05    0.07       0.0  T
   2   -179.0774855  0.802526E-07  0.509E-04    0.07      19.1  T
   3   -179.0774856 -0.807285E-07  0.455E-05    0.07     213.5  T
     SCC iter.                  ...        0 min,  0.169 sec
     gradient                   ...        0 min,  0.036 sec
 * total energy  :  -175.9128305 Eh     change       -0.3246328E-08 Eh
   gradient norm :     0.3851651 Eh/α   predicted     0.0000000E+00 (-100.00%)
   displ. norm   :     0.6953559 α      lambda       -0.2347942E+00
   maximum displ.:     0.2510708 α      in ANC's #140, #69, #110, ...

........................................................................
.............................. CYCLE    2 ..............................
........................................................................

 iter      E             dE          RMSdq      gap      omega  full diag
   1   -179.1118802 -0.179112E+03  0.662E-01    0.40       0.0  T
   2   -178.4539792  0.657901E+00  0.147E+00    0.34       1.0  T
   3   -179.0961846 -0.642205E+00  0.707E-01    0.13       1.0  T
   4   -179.1644853 -0.683007E-01  0.570E-01    0.29       1.0  T
   5   -179.2031602 -0.386749E-01  0.341E-01    0.21       1.0  T
   6   -179.2300991 -0.269389E-01  0.181E-01    0.12       1.0  T
   7   -179.2358009 -0.570178E-02  0.101E-01    0.12       1.0  T
   8   -179.2367301 -0.929195E-03  0.629E-02    0.10       1.0  T
   9   -179.2372219 -0.491794E-03  0.399E-02    0.11       1.0  T
  10   -179.2375706 -0.348727E-03  0.212E-02    0.10       1.0  T
  11   -179.2374362  0.134377E-03  0.288E-02    0.11       1.0  T
  12   -179.2376924 -0.256150E-03  0.253E-03    0.10       3.8  T
  13   -179.2376928 -0.407446E-06  0.188E-03    0.10       5.2  T
  14   -179.2376936 -0.863289E-06  0.481E-04    0.10      20.2  T
  15   -179.2376937 -0.328506E-07  0.216E-04    0.10      45.0  T
     SCC iter.                  ...        0 min,  0.861 sec
     gradient                   ...        0 min,  0.037 sec
 * total energy  :  -176.1061018 Eh     change       -0.1932713E+00 Eh
   gradient norm :     0.2704713 Eh/α   predicted    -0.1741804E+00 (  -9.88%)
   displ. norm   :     0.7642255 α      lambda       -0.1942842E+00
   maximum displ.:     0.2107535 α      in ANC's #140, #179, #204, ...

........................................................................
.............................. CYCLE    3 ..............................
........................................................................

 iter      E             dE          RMSdq      gap      omega  full diag
   1   -179.2802420 -0.179280E+03  0.598E-01    0.33       0.0  T
   2   -178.6334155  0.646827E+00  0.144E+00    0.89       1.0  T
   3   -179.3815561 -0.748141E+00  0.349E-01    0.26       1.0  T
   4   -179.3813084  0.247695E-03  0.252E-01    0.26       1.0  T
   5   -179.3864193 -0.511091E-02  0.126E-01    0.23       1.0  T
   6   -179.3874380 -0.101863E-02  0.758E-02    0.24       1.0  T
   7   -179.3884265 -0.988541E-03  0.546E-02    0.23       1.0  T
   8   -179.3888628 -0.436323E-03  0.223E-02    0.23       1.0  T
   9   -179.3888778 -0.150158E-04  0.215E-02    0.23       1.0  T
  10   -179.3889251 -0.472539E-04  0.643E-03    0.23       1.5  T
  11   -179.3889288 -0.373682E-05  0.270E-03    0.23       3.6  T
  12   -179.3889294 -0.536547E-06  0.930E-04    0.23      10.4  T
  13   -179.3889294 -0.504443E-07  0.521E-04    0.23      18.6  T
     SCC iter.                  ...        0 min,  0.610 sec
     gradient                   ...        0 min,  0.035 sec
 * total energy  :  -176.2632474 Eh     change       -0.1571456E+00 Eh
   gradient norm :     0.1880979 Eh/α   predicted    -0.1538771E+00 (  -2.08%)
   displ. norm   :     0.7090690 α      lambda       -0.1173572E+00
   maximum displ.:     0.1873733 α      in ANC's #204, #140, #69, ...

........................................................................
.............................. CYCLE    4 ..............................
........................................................................

 iter      E             dE          RMSdq      gap      omega  full diag
   1   -179.4581029 -0.179458E+03  0.335E-01    0.26       0.0  T
   2   -179.3938270  0.642759E-01  0.562E-01    0.60       1.0  T
   3   -179.4759089 -0.820820E-01  0.146E-01    0.27       1.0  T
   4   -179.4703817  0.552725E-02  0.189E-01    0.25       1.0  T
   5   -179.4762067 -0.582503E-02  0.731E-02    0.26       1.0  T
   6   -179.4768546 -0.647911E-03  0.492E-02    0.25       1.0  T
   7   -179.4774710 -0.616336E-03  0.121E-02    0.25       1.0  T
   8   -179.4774962 -0.251944E-04  0.635E-03    0.25       1.5  T
   9   -179.4775035 -0.736399E-05  0.246E-03    0.25       3.9  T
  10   -179.4775043 -0.784316E-06  0.999E-04    0.25       9.7  T
  11   -179.4775044 -0.112687E-06  0.557E-04    0.25      17.4  T
     SCC iter.                  ...        0 min,  0.549 sec
     gradient                   ...        0 min,  0.037 sec
 * total energy  :  -176.3514237 Eh     change       -0.8817629E-01 Eh
   gradient norm :     0.1295429 Eh/α   predicted    -0.8818140E-01 (   0.01%)
   displ. norm   :     0.6392063 α      lambda       -0.6048662E-01
   maximum displ.:     0.1516887 α      in ANC's #69, #204, #140, ...

........................................................................
.............................. CYCLE    5 ..............................
........................................................................

 iter      E             dE          RMSdq      gap      omega  full diag
   1   -179.5292872 -0.179529E+03  0.182E-01    0.24       0.0  T
   2   -179.5200340  0.925322E-02  0.228E-01    0.32       1.0  T
   3   -179.5265394 -0.650546E-02  0.153E-01    0.25       1.0  T
   4   -179.5269232 -0.383740E-03  0.136E-01    0.27       1.0  T
   5   -179.5313593 -0.443613E-02  0.249E-02    0.25       1.0  T
   6   -179.5314882 -0.128963E-03  0.877E-03    0.25       1.1  T
   7   -179.5314977 -0.944987E-05  0.403E-03    0.25       2.4  T
   8   -179.5314990 -0.129120E-05  0.193E-03    0.25       5.0  T
   9   -179.5314995 -0.496350E-06  0.889E-04    0.25      10.9  T
  10   -179.5314996 -0.826113E-07  0.391E-04    0.25      24.9  T
     SCC iter.                  ...        0 min,  0.485 sec
     gradient                   ...        0 min,  0.037 sec
 * total energy  :  -176.4001137 Eh     change       -0.4868992E-01 Eh
   gradient norm :     0.0884612 Eh/α   predicted    -0.4260027E-01 ( -12.51%)
   displ. norm   :     0.6585801 α      lambda       -0.4110707E-01
   maximum displ.:     0.1463422 α      in ANC's #69, #204, #109, ...

........................................................................
.............................. CYCLE    6 ..............................
........................................................................

 iter      E             dE          RMSdq      gap      omega  full diag
   1   -179.5733583 -0.179573E+03  0.182E-01    0.22       0.0  T
   2   -179.5675002  0.585809E-02  0.190E-01    0.25       1.0  T
   3   -179.5604096  0.709055E-02  0.241E-01    0.26       1.0  T
   4   -179.5718621 -0.114524E-01  0.104E-01    0.22       1.0  T
   5   -179.5743182 -0.245616E-02  0.216E-02    0.22       1.0  T
   6   -179.5744045 -0.862515E-04  0.727E-03    0.22       1.3  T
   7   -179.5744107 -0.618146E-05  0.384E-03    0.22       2.5  T
   8   -179.5744125 -0.187297E-05  0.155E-03    0.22       6.2  T
   9   -179.5744128 -0.284020E-06  0.639E-04    0.22      15.2  T
  10   -179.5744129 -0.452463E-07  0.287E-04    0.22      33.8  T
     SCC iter.                  ...        0 min,  0.553 sec
     gradient                   ...        0 min,  0.036 sec
 * total energy  :  -176.4325636 Eh     change       -0.3244999E-01 Eh
   gradient norm :     0.0618151 Eh/α   predicted    -0.2946817E-01 (  -9.19%)
   displ. norm   :     0.6551389 α      lambda       -0.2642981E-01
   maximum displ.:     0.1582660 α      in ANC's #13, #15, #69, ...

........................................................................
.............................. CYCLE    7 ..............................
........................................................................

 iter      E             dE          RMSdq      gap      omega  full diag
   1   -179.6037192 -0.179604E+03  0.161E-01    0.18       0.0  T
   2   -179.5996189  0.410036E-02  0.160E-01    0.20       1.0  T
   3   -179.5860432  0.135757E-01  0.271E-01    0.25       1.0  T
   4   -179.6033777 -0.173345E-01  0.674E-02    0.18       1.0  T
   5   -179.6041228 -0.745096E-03  0.237E-02    0.18       1.0  T
   6   -179.6042484 -0.125578E-03  0.600E-03    0.18       1.6  T
   7   -179.6042510 -0.260023E-05  0.419E-03    0.18       2.3  T
   8   -179.6042546 -0.362774E-05  0.150E-03    0.18       6.5  T
   9   -179.6042550 -0.352687E-06  0.718E-04    0.18      13.5  T
  10   -179.6042551 -0.100034E-06  0.206E-04    0.18      47.1  T
     SCC iter.                  ...        0 min,  0.615 sec
     gradient                   ...        0 min,  0.036 sec
 * total energy  :  -176.4537407 Eh     change       -0.2117701E-01 Eh
   gradient norm :     0.0548362 Eh/α   predicted    -0.1888688E-01 ( -10.81%)
   displ. norm   :     0.6516082 α      lambda       -0.1827354E-01
   maximum displ.:     0.1863404 α      in ANC's #13, #15, #19, ...

........................................................................
.............................. CYCLE    8 ..............................
........................................................................

 iter      E             dE          RMSdq      gap      omega  full diag
   1   -179.6202199 -0.179620E+03  0.133E-01    0.15       0.0  T
   2   -179.6197610  0.458916E-03  0.912E-02    0.16       1.0  T
   3   -179.6024587  0.173023E-01  0.264E-01    0.22       1.0  T
   4   -179.6191231 -0.166644E-01  0.725E-02    0.16       1.0  T
   5   -179.6202558 -0.113277E-02  0.237E-02    0.16       1.0  T
   6   -179.6203941 -0.138292E-03  0.516E-03    0.16       1.9  T
   7   -179.6203963 -0.221258E-05  0.397E-03    0.16       2.4  T
   8   -179.6204003 -0.397295E-05  0.830E-04    0.16      11.7  T
   9   -179.6204004 -0.393027E-07  0.568E-04    0.16      17.1  T
  10   -179.6204004 -0.713289E-07  0.125E-04    0.16      77.9  T
     SCC iter.                  ...        0 min,  0.555 sec
     gradient                   ...        0 min,  0.036 sec
 * total energy  :  -176.4682071 Eh     change       -0.1446641E-01 Eh
   gradient norm :     0.0493191 Eh/α   predicted    -0.1301624E-01 ( -10.02%)
   displ. norm   :     0.6248633 α      lambda       -0.1193801E-01
   maximum displ.:     0.2174278 α      in ANC's #15, #13, #19, ...

........................................................................
.............................. CYCLE    9 ..............................
........................................................................

 iter      E             dE          RMSdq      gap      omega  full diag
   1   -179.6266006 -0.179627E+03  0.108E-01    0.14       0.0  T
   2   -179.6263781  0.222429E-03  0.717E-02    0.14       1.0  T
   3   -179.6073860  0.189921E-01  0.267E-01    0.20       1.0  T
   4   -179.6262840 -0.188980E-01  0.420E-02    0.14       1.0  T
   5   -179.6266188 -0.334790E-03  0.135E-02    0.14       1.0  T
   6   -179.6266573 -0.384459E-04  0.461E-03    0.14       2.1  T
   7   -179.6266618 -0.447866E-05  0.157E-03    0.14       6.2  T
   8   -179.6266617  0.636894E-07  0.129E-03    0.14       7.5  T
   9   -179.6266621 -0.423510E-06  0.496E-04    0.14      19.6  T
  10   -179.6266622 -0.649854E-07  0.844E-05    0.14     115.0  T
     SCC iter.                  ...        0 min,  0.573 sec
     gradient                   ...        0 min,  0.035 sec
 * total energy  :  -176.4775109 Eh     change       -0.9303847E-02 Eh
   gradient norm :     0.0360478 Eh/α   predicted    -0.8299711E-02 ( -10.79%)
   displ. norm   :     0.6062995 α      lambda       -0.7486985E-02
   maximum displ.:     0.2456288 α      in ANC's #15, #13, #19, ...

........................................................................
.............................. CYCLE   10 ..............................
........................................................................

 iter      E             dE          RMSdq      gap      omega  full diag
   1   -179.6307342 -0.179631E+03  0.944E-02    0.13       0.0  T
   2   -179.6305589  0.175314E-03  0.618E-02    0.13       1.0  T
   3   -179.6110804  0.194785E-01  0.268E-01    0.19       1.0  T
   4   -179.6306723 -0.195919E-01  0.218E-02    0.13       1.0  T
   5   -179.6307457 -0.734332E-04  0.725E-03    0.13       1.3  T
   6   -179.6307560 -0.103442E-04  0.264E-03    0.13       3.7  T
   7   -179.6307571 -0.103709E-05  0.147E-03    0.13       6.6  T
   8   -179.6307573 -0.228235E-06  0.902E-04    0.13      10.8  T
   9   -179.6307575 -0.188853E-06  0.414E-04    0.13      23.5  T
     SCC iter.                  ...        0 min,  0.511 sec
     gradient                   ...        0 min,  0.035 sec
 * total energy  :  -176.4833886 Eh     change       -0.5877733E-02 Eh
   gradient norm :     0.0257762 Eh/α   predicted    -0.5119599E-02 ( -12.90%)
   displ. norm   :     0.6113223 α      lambda       -0.5195107E-02
   maximum displ.:     0.2584247 α      in ANC's #15, #13, #19, ...

........................................................................
.............................. CYCLE   11 ..............................
........................................................................

 iter      E             dE          RMSdq      gap      omega  full diag
   1   -179.6350165 -0.179635E+03  0.924E-02    0.12       0.0  T
   2   -179.6350039  0.125721E-04  0.551E-02    0.12       1.0  T
   3   -179.6288416  0.616232E-02  0.150E-01    0.14       1.0  T
   4   -179.6347876 -0.594598E-02  0.299E-02    0.12       1.0  T
   5   -179.6350183 -0.230710E-03  0.571E-03    0.12       1.7  T
   6   -179.6350265 -0.825526E-05  0.145E-03    0.12       6.7  T
   7   -179.6350266 -0.821152E-07  0.916E-04    0.12      10.6  T
   8   -179.6350268 -0.180445E-06  0.207E-04    0.12      47.0  T
     SCC iter.                  ...        0 min,  0.355 sec
     gradient                   ...        0 min,  0.035 sec
 * total energy  :  -176.4875718 Eh     change       -0.4183116E-02 Eh
   gradient norm :     0.0210756 Eh/α   predicted    -0.3568300E-02 ( -14.70%)
   displ. norm   :     0.6274231 α      lambda       -0.4040552E-02
   maximum displ.:     0.2564182 α      in ANC's #15, #13, #2, ...

........................................................................
.............................. CYCLE   12 ..............................
........................................................................

 iter      E             dE          RMSdq      gap      omega  full diag
   1   -179.6386808 -0.179639E+03  0.959E-02    0.11       0.0  T
   2   -179.6370246  0.165618E-02  0.963E-02    0.12       1.0  T
   3   -179.6226347  0.143899E-01  0.245E-01    0.17       1.0  T
   4   -179.6384331 -0.157984E-01  0.332E-02    0.12       1.0  T
   5   -179.6386434 -0.210324E-03  0.154E-02    0.12       1.0  T
   6   -179.6387098 -0.663771E-04  0.151E-03    0.11       6.4  T
   7   -179.6387097  0.874358E-07  0.121E-03    0.11       8.0  T
   8   -179.6387098 -0.775293E-07  0.100E-03    0.11       9.7  T
   9   -179.6387100 -0.251740E-06  0.231E-04    0.11      42.0  T
  10   -179.6387101 -0.100125E-07  0.114E-04    0.11      85.0  T
     SCC iter.                  ...        0 min,  0.439 sec
     gradient                   ...        0 min,  0.038 sec
 * total energy  :  -176.4908222 Eh     change       -0.3250451E-02 Eh
   gradient norm :     0.0163479 Eh/α   predicted    -0.2815584E-02 ( -13.38%)
   displ. norm   :     0.6183352 α      lambda       -0.2911055E-02
   maximum displ.:     0.2334727 α      in ANC's #13, #15, #2, ...

........................................................................
.............................. CYCLE   13 ..............................
........................................................................

 iter      E             dE          RMSdq      gap      omega  full diag
   1   -179.6406637 -0.179641E+03  0.941E-02    0.11       0.0  T
   2   -179.6373643  0.329934E-02  0.123E-01    0.12       1.0  T
   3   -179.6302172  0.714711E-02  0.199E-01    0.15       1.0  T
   4   -179.6405686 -0.103514E-01  0.240E-02    0.11       1.0  T
   5   -179.6406883 -0.119692E-03  0.976E-03    0.11       1.0  T
   6   -179.6407138 -0.255096E-04  0.128E-03    0.11       7.6  T
   7   -179.6407137  0.114832E-06  0.966E-04    0.11      10.1  T
   8   -179.6407138 -0.133901E-06  0.557E-04    0.11      17.4  T
     SCC iter.                  ...        0 min,  0.391 sec
     gradient                   ...        0 min,  0.035 sec
 * total energy  :  -176.4930800 Eh     change       -0.2257789E-02 Eh
   gradient norm :     0.0113218 Eh/α   predicted    -0.2012040E-02 ( -10.88%)
   displ. norm   :     0.5755542 α      lambda       -0.1727989E-02
   maximum displ.:     0.1953140 α      in ANC's #2, #13, #15, ...

........................................................................
.............................. CYCLE   14 ..............................
........................................................................

 iter      E             dE          RMSdq      gap      omega  full diag
   1   -179.6412516 -0.179641E+03  0.817E-02    0.11       0.0  T
   2   -179.6372128  0.403884E-02  0.130E-01    0.12       1.0  T
   3   -179.6357061  0.150662E-02  0.147E-01    0.13       1.0  T
   4   -179.6412638 -0.555764E-02  0.142E-02    0.11       1.0  T
   5   -179.6413061 -0.422931E-04  0.418E-03    0.11       2.3  T
   6   -179.6413097 -0.362076E-05  0.125E-03    0.11       7.8  T
   7   -179.6413097 -0.786582E-08  0.831E-04    0.11      11.7  T
   8   -179.6413098 -0.126138E-06  0.231E-04    0.11      42.1  T
     SCC iter.                  ...        0 min,  0.358 sec
     gradient                   ...        0 min,  0.034 sec
 * total energy  :  -176.4943967 Eh     change       -0.1316655E-02 Eh
   gradient norm :     0.0097040 Eh/α   predicted    -0.1150204E-02 ( -12.64%)
   displ. norm   :     0.5377616 α      lambda       -0.1078325E-02
   maximum displ.:     0.2088802 α      in ANC's #2, #4, #5, ...

........................................................................
.............................. CYCLE   15 ..............................
........................................................................

 iter      E             dE          RMSdq      gap      omega  full diag
   1   -179.6417846 -0.179642E+03  0.695E-02    0.11       0.0  T
   2   -179.6400588  0.172577E-02  0.890E-02    0.11       1.0  T
   3   -179.6350118  0.504696E-02  0.159E-01    0.13       1.0  T
   4   -179.6417392 -0.672733E-02  0.166E-02    0.11       1.0  T
   5   -179.6418013 -0.621501E-04  0.586E-03    0.11       1.7  T
   6   -179.6418101 -0.877447E-05  0.114E-03    0.11       8.5  T
   7   -179.6418098  0.288652E-06  0.125E-03    0.11       7.8  T
   8   -179.6418102 -0.411325E-06  0.184E-04    0.11      52.8  T
   9   -179.6418102  0.188041E-08  0.149E-04    0.11      65.3  T
     SCC iter.                  ...        0 min,  0.411 sec
     gradient                   ...        0 min,  0.036 sec
 * total energy  :  -176.4952532 Eh     change       -0.8565673E-03 Eh
   gradient norm :     0.0093949 Eh/α   predicted    -0.6951091E-03 ( -18.85%)
   displ. norm   :     0.5470173 α      lambda       -0.9091876E-03
   maximum displ.:     0.2335185 α      in ANC's #2, #4, #5, ...

........................................................................
.............................. CYCLE   16 ..............................
........................................................................

 iter      E             dE          RMSdq      gap      omega  full diag
   1   -179.6426829 -0.179643E+03  0.693E-02    0.11       0.0  T
   2   -179.6416462  0.103668E-02  0.735E-02    0.11       1.0  T
   3   -179.6330775  0.856871E-02  0.187E-01    0.14       1.0  T
   4   -179.6426103 -0.953278E-02  0.186E-02    0.11       1.0  T
   5   -179.6426838 -0.735581E-04  0.756E-03    0.11       1.3  T
   6   -179.6426994 -0.155894E-04  0.110E-03    0.11       8.8  T
   7   -179.6426987  0.698793E-06  0.169E-03    0.11       5.7  T
   8   -179.6426995 -0.814296E-06  0.218E-04    0.11      44.6  T
   9   -179.6426995 -0.800156E-09  0.162E-04    0.11      59.8  T
     SCC iter.                  ...        0 min,  0.495 sec
     gradient                   ...        0 min,  0.036 sec
 * total energy  :  -176.4960040 Eh     change       -0.7507569E-03 Eh
   gradient norm :     0.0086156 Eh/α   predicted    -0.5906230E-03 ( -21.33%)
   displ. norm   :     0.5673815 α      lambda       -0.8656310E-03
   maximum displ.:     0.2659859 α      in ANC's #4, #2, #5, ...

........................................................................
.............................. CYCLE   17 ..............................
........................................................................

 iter      E             dE          RMSdq      gap      omega  full diag
   1   -179.6436326 -0.179644E+03  0.761E-02    0.11       0.0  T
   2   -179.6430403  0.592246E-03  0.643E-02    0.11       1.0  T
   3   -179.6286036  0.144367E-01  0.233E-01    0.17       1.0  T
   4   -179.6435191 -0.149155E-01  0.221E-02    0.11       1.0  T
   5   -179.6436176 -0.984999E-04  0.958E-03    0.11       1.0  T
   6   -179.6436436 -0.260003E-04  0.126E-03    0.11       7.7  T
   7   -179.6436429  0.686689E-06  0.178E-03    0.11       5.4  T
   8   -179.6436437 -0.820713E-06  0.611E-04    0.11      15.9  T
   9   -179.6436438 -0.100247E-06  0.133E-04    0.11      73.3  T
     SCC iter.                  ...        0 min,  0.436 sec
     gradient                   ...        0 min,  0.035 sec
 * total energy  :  -176.4967189 Eh     change       -0.7149287E-03 Eh
   gradient norm :     0.0076891 Eh/α   predicted    -0.5721545E-03 ( -19.97%)
   displ. norm   :     0.5730682 α      lambda       -0.7500265E-03
   maximum displ.:     0.2877643 α      in ANC's #4, #2, #5, ...

........................................................................
.............................. CYCLE   18 ..............................
........................................................................

 iter      E             dE          RMSdq      gap      omega  full diag
   1   -179.6439416 -0.179644E+03  0.824E-02    0.12       0.0  T
   2   -179.6434681  0.473483E-03  0.636E-02    0.12       1.0  T
   3   -179.6263715  0.170967E-01  0.252E-01    0.19       1.0  T
   4   -179.6438379 -0.174665E-01  0.217E-02    0.12       1.0  T
   5   -179.6439195 -0.815264E-04  0.105E-02    0.12       1.0  T
   6   -179.6439502 -0.307554E-04  0.231E-03    0.12       4.2  T
   7   -179.6439514 -0.119648E-05  0.847E-04    0.12      11.5  T
   8   -179.6439514  0.370258E-07  0.855E-04    0.12      11.4  T
   9   -179.6439516 -0.208712E-06  0.101E-04    0.12      96.5  T
     SCC iter.                  ...        0 min,  0.389 sec
     gradient                   ...        0 min,  0.033 sec
 * total energy  :  -176.4973224 Eh     change       -0.6034829E-03 Eh
   gradient norm :     0.0069322 Eh/α   predicted    -0.4981811E-03 ( -17.45%)
   displ. norm   :     0.5414786 α      lambda       -0.5533707E-03
   maximum displ.:     0.2839090 α      in ANC's #4, #2, #5, ...

........................................................................
.............................. CYCLE   19 ..............................
........................................................................

 iter      E             dE          RMSdq      gap      omega  full diag
   1   -179.6437568 -0.179644E+03  0.809E-02    0.12       0.0  T
   2   -179.6432233  0.533509E-03  0.647E-02    0.12       1.0  T
   3   -179.6276458  0.155775E-01  0.241E-01    0.18       1.0  T
   4   -179.6436894 -0.160436E-01  0.185E-02    0.12       1.0  T
   5   -179.6437361 -0.466829E-04  0.104E-02    0.12       1.0  T
   6   -179.6437667 -0.305973E-04  0.165E-03    0.12       5.9  T
   7   -179.6437674 -0.632792E-06  0.443E-04    0.12      21.9  T
   8   -179.6437673  0.978359E-07  0.633E-04    0.12      15.3  T
     SCC iter.                  ...        0 min,  0.499 sec
     gradient                   ...        0 min,  0.034 sec
 * total energy  :  -176.4977652 Eh     change       -0.4427919E-03 Eh
   gradient norm :     0.0063489 Eh/α   predicted    -0.3578164E-03 ( -19.19%)
   displ. norm   :     0.4929424 α      lambda       -0.4165403E-03
   maximum displ.:     0.2652735 α      in ANC's #4, #2, #5, ...

........................................................................
.............................. CYCLE   20 ..............................
........................................................................

 iter      E             dE          RMSdq      gap      omega  full diag
   1   -179.6438557 -0.179644E+03  0.759E-02    0.13       0.0  T
   2   -179.6429173  0.938405E-03  0.732E-02    0.13       1.0  T
   3   -179.6325648  0.103525E-01  0.202E-01    0.17       1.0  T
   4   -179.6438294 -0.112646E-01  0.141E-02    0.13       1.0  T
   5   -179.6438494 -0.199978E-04  0.885E-03    0.13       1.1  T
   6   -179.6438717 -0.222599E-04  0.840E-04    0.13      11.6  T
   7   -179.6438717 -0.224829E-07  0.506E-04    0.13      19.2  T
   8   -179.6438717  0.296086E-07  0.491E-04    0.13      19.8  T
     SCC iter.                  ...        0 min,  0.369 sec
     gradient                   ...        0 min,  0.035 sec
 * total energy  :  -176.4981065 Eh     change       -0.3413097E-03 Eh
   gradient norm :     0.0058268 Eh/α   predicted    -0.2588803E-03 ( -24.15%)
   displ. norm   :     0.4736185 α      lambda       -0.3728495E-03
   maximum displ.:     0.2585835 α      in ANC's #4, #2, #5, ...
 * RMSD in coord.:     0.9377785 α      energy gain  -0.5852760E+00 Eh

generating ANC from model Hessian ...
Using Lindh-Hessian (1995)
 Shifting diagonal of input Hessian by    9.9621427826440297E-003
 Lowest  eigenvalues of input Hessian
    0.000000    0.000000    0.000000    0.000000    0.000000    0.000000
    0.010000    0.010119    0.010131    0.010213    0.010470    0.010606
    0.010786    0.010940    0.011058    0.011233    0.011410    0.011809
 Highest eigenvalues
    2.199956    2.200629    2.306548    2.306793    2.342376    2.352093


........................................................................
.............................. CYCLE   21 ..............................
........................................................................

 iter      E             dE          RMSdq      gap      omega  full diag
   1   -179.6444539 -0.179644E+03  0.760E-02    0.13       0.0  T
   2   -179.6438885  0.565475E-03  0.635E-02    0.13       1.0  T
   3   -179.6312919  0.125966E-01  0.218E-01    0.18       1.0  T
   4   -179.6443991 -0.131072E-01  0.165E-02    0.13       1.0  T
   5   -179.6444443 -0.452495E-04  0.845E-03    0.13       1.2  T
   6   -179.6444647 -0.203538E-04  0.701E-04    0.13      13.9  T
   7   -179.6444647  0.169677E-07  0.511E-04    0.13      19.0  T
   8   -179.6444646  0.467096E-07  0.558E-04    0.13      17.4  T
     SCC iter.                  ...        0 min,  0.372 sec
     gradient                   ...        0 min,  0.036 sec
 * total energy  :  -176.4984135 Eh     change       -0.3070306E-03 Eh
   gradient norm :     0.0054843 Eh/α   predicted     0.0000000E+00 (-100.00%)
   displ. norm   :     0.0934050 α      lambda       -0.2413854E-03
   maximum displ.:     0.0337463 α      in ANC's #16, #12, #5, ...

........................................................................
.............................. CYCLE   22 ..............................
........................................................................

 iter      E             dE          RMSdq      gap      omega  full diag
   1   -179.6453708 -0.179645E+03  0.291E-02    0.13       0.0  T
   2   -179.6453283  0.425531E-04  0.210E-02    0.13       1.0  T
   3   -179.6419885  0.333973E-02  0.110E-01    0.14       1.0  T
   4   -179.6453623 -0.337374E-02  0.594E-03    0.13       1.6  T
   5   -179.6453720 -0.967487E-05  0.799E-04    0.13      12.2  T
   6   -179.6453721 -0.102521E-06  0.277E-04    0.13      35.1  T
   7   -179.6453721  0.162638E-08  0.204E-04    0.13      47.6  T
     SCC iter.                  ...        0 min,  0.285 sec
     gradient                   ...        0 min,  0.036 sec
 * total energy  :  -176.4985853 Eh     change       -0.1717602E-03 Eh
   gradient norm :     0.0022742 Eh/α   predicted    -0.1221174E-03 ( -28.90%)
   displ. norm   :     0.1673250 α      lambda       -0.1823362E-03
   maximum displ.:     0.0663090 α      in ANC's #16, #12, #5, ...

........................................................................
.............................. CYCLE   23 ..............................
........................................................................

 iter      E             dE          RMSdq      gap      omega  full diag
   1   -179.6460428 -0.179646E+03  0.354E-02    0.13       0.0  T
   2   -179.6459699  0.728725E-04  0.261E-02    0.13       1.0  T
   3   -179.6412332  0.473668E-02  0.131E-01    0.14       1.0  T
   4   -179.6460310 -0.479778E-02  0.711E-03    0.13       1.4  T
   5   -179.6460446 -0.136437E-04  0.929E-04    0.13      10.5  T
   6   -179.6460448 -0.128558E-06  0.351E-04    0.13      27.7  T
   7   -179.6460448  0.313730E-08  0.285E-04    0.13      34.1  T
     SCC iter.                  ...        0 min,  0.304 sec
     gradient                   ...        0 min,  0.047 sec
 * total energy  :  -176.4987192 Eh     change       -0.1339210E-03 Eh
   gradient norm :     0.0021973 Eh/α   predicted    -0.9372859E-04 ( -30.01%)
   displ. norm   :     0.2464607 α      lambda       -0.1711432E-03
   maximum displ.:     0.0963789 α      in ANC's #16, #12, #5, ...

........................................................................
.............................. CYCLE   24 ..............................
........................................................................

 iter      E             dE          RMSdq      gap      omega  full diag
   1   -179.6462433 -0.179646E+03  0.447E-02    0.13       0.0  T
   2   -179.6462239  0.194074E-04  0.274E-02    0.13       1.0  T
   3   -179.6411951  0.502873E-02  0.134E-01    0.14       1.0  T
   4   -179.6462257 -0.503053E-02  0.835E-03    0.13       1.2  T
   5   -179.6462446 -0.189193E-04  0.104E-03    0.13       9.4  T
   6   -179.6462448 -0.161844E-06  0.418E-04    0.13      23.2  T
   7   -179.6462448  0.324937E-08  0.316E-04    0.13      30.7  T
     SCC iter.                  ...        0 min,  0.290 sec
     gradient                   ...        0 min,  0.036 sec
 * total energy  :  -176.4988515 Eh     change       -0.1323372E-03 Eh
   gradient norm :     0.0033597 Eh/α   predicted    -0.9077569E-04 ( -31.41%)
   displ. norm   :     0.3328732 α      lambda       -0.1904058E-03
   maximum displ.:     0.1292241 α      in ANC's #5, #12, #16, ...

........................................................................
.............................. CYCLE   25 ..............................
........................................................................

 iter      E             dE          RMSdq      gap      omega  full diag
   1   -179.6460024 -0.179646E+03  0.566E-02    0.13       0.0  T
   2   -179.6460029 -0.445009E-06  0.332E-02    0.13       1.0  T
   3   -179.6458389  0.163975E-03  0.240E-02    0.13       1.0  T
   4   -179.6458972 -0.582743E-04  0.197E-02    0.13       1.0  T
   5   -179.6460037 -0.106497E-03  0.128E-03    0.13       7.6  T
   6   -179.6460039 -0.251702E-06  0.548E-04    0.13      17.7  T
   7   -179.6460039 -0.231711E-07  0.282E-04    0.13      34.4  T
     SCC iter.                  ...        0 min,  0.286 sec
     gradient                   ...        0 min,  0.035 sec
 * total energy  :  -176.4990013 Eh     change       -0.1497225E-03 Eh
   gradient norm :     0.0035808 Eh/α   predicted    -0.1057522E-03 ( -29.37%)
   displ. norm   :     0.3751482 α      lambda       -0.1915217E-03
   maximum displ.:     0.1537960 α      in ANC's #5, #3, #12, ...

........................................................................
.............................. CYCLE   26 ..............................
........................................................................

 iter      E             dE          RMSdq      gap      omega  full diag
   1   -179.6457362 -0.179646E+03  0.616E-02    0.13       0.0  T
   2   -179.6457153  0.208550E-04  0.373E-02    0.13       1.0  T
   3   -179.6395485  0.616683E-02  0.148E-01    0.15       1.0  T
   4   -179.6457349 -0.618640E-02  0.437E-03    0.13       2.2  T
   5   -179.6457374 -0.248016E-05  0.170E-03    0.13       5.7  T
   6   -179.6457380 -0.597923E-06  0.559E-04    0.13      17.4  T
   7   -179.6457380 -0.218023E-07  0.320E-04    0.13      30.4  T
     SCC iter.                  ...        0 min,  0.369 sec
     gradient                   ...        0 min,  0.036 sec
 * total energy  :  -176.4991517 Eh     change       -0.1504379E-03 Eh
   gradient norm :     0.0030077 Eh/α   predicted    -0.1092391E-03 ( -27.39%)
   displ. norm   :     0.3733815 α      lambda       -0.1730243E-03
   maximum displ.:     0.1608141 α      in ANC's #5, #3, #1, ...

........................................................................
.............................. CYCLE   27 ..............................
........................................................................

 iter      E             dE          RMSdq      gap      omega  full diag
   1   -179.6459308 -0.179646E+03  0.592E-02    0.13       0.0  T
   2   -179.6459007  0.300714E-04  0.364E-02    0.13       1.0  T
   3   -179.6385025  0.739818E-02  0.162E-01    0.16       1.0  T
   4   -179.6459296 -0.742705E-02  0.442E-03    0.13       2.2  T
   5   -179.6459316 -0.198319E-05  0.202E-03    0.13       4.8  T
   6   -179.6459326 -0.101951E-05  0.481E-04    0.13      20.2  T
   7   -179.6459326  0.702357E-08  0.375E-04    0.13      25.9  T
   8   -179.6459326 -0.274579E-07  0.119E-04    0.13      81.8  T
     SCC iter.                  ...        0 min,  0.337 sec
     gradient                   ...        0 min,  0.036 sec
 * total energy  :  -176.4992873 Eh     change       -0.1356139E-03 Eh
   gradient norm :     0.0023563 Eh/α   predicted    -0.9857646E-04 ( -27.31%)
   displ. norm   :     0.3623365 α      lambda       -0.1520485E-03
   maximum displ.:     0.1608125 α      in ANC's #5, #3, #1, ...

........................................................................
.............................. CYCLE   28 ..............................
........................................................................

 iter      E             dE          RMSdq      gap      omega  full diag
   1   -179.6465132 -0.179647E+03  0.548E-02    0.13       0.0  T
   2   -179.6463984  0.114787E-03  0.381E-02    0.13       1.0  T
   3   -179.6366214  0.977699E-02  0.187E-01    0.17       1.0  T
   4   -179.6465018 -0.988045E-02  0.789E-03    0.13       1.2  T
   5   -179.6465126 -0.107187E-04  0.353E-03    0.13       2.7  T
   6   -179.6465161 -0.350040E-05  0.482E-04    0.13      20.2  T
   7   -179.6465160  0.465856E-07  0.525E-04    0.13      18.5  T
   8   -179.6465161 -0.537001E-07  0.250E-04    0.13      38.8  T
     SCC iter.                  ...        0 min,  0.388 sec
     gradient                   ...        0 min,  0.035 sec
 * total energy  :  -176.4994074 Eh     change       -0.1200898E-03 Eh
   gradient norm :     0.0022857 Eh/α   predicted    -0.8603785E-04 ( -28.36%)
   displ. norm   :     0.3676349 α      lambda       -0.1402005E-03
   maximum displ.:     0.1646877 α      in ANC's #5, #3, #1, ...

........................................................................
.............................. CYCLE   29 ..............................
........................................................................

 iter      E             dE          RMSdq      gap      omega  full diag
   1   -179.6470608 -0.179647E+03  0.526E-02    0.13       0.0  T
   2   -179.6469271  0.133748E-03  0.379E-02    0.13       1.0  T
   3   -179.6376627  0.926440E-02  0.182E-01    0.16       1.0  T
   4   -179.6470422 -0.937957E-02  0.926E-03    0.13       1.0  T
   5   -179.6470605 -0.182090E-04  0.350E-03    0.13       2.8  T
   6   -179.6470639 -0.342494E-05  0.466E-04    0.13      20.8  T
   7   -179.6470638  0.436204E-07  0.507E-04    0.13      19.2  T
   8   -179.6470639 -0.497181E-07  0.234E-04    0.13      41.5  T
     SCC iter.                  ...        0 min,  0.454 sec
     gradient                   ...        0 min,  0.036 sec
 * total energy  :  -176.4995194 Eh     change       -0.1120193E-03 Eh
   gradient norm :     0.0025552 Eh/α   predicted    -0.7957506E-04 ( -28.96%)
   displ. norm   :     0.3970060 α      lambda       -0.1366389E-03
   maximum displ.:     0.1769905 α      in ANC's #5, #3, #1, ...

........................................................................
.............................. CYCLE   30 ..............................
........................................................................

 iter      E             dE          RMSdq      gap      omega  full diag
   1   -179.6472767 -0.179647E+03  0.541E-02    0.13       0.0  T
   2   -179.6472039  0.728273E-04  0.356E-02    0.13       1.0  T
   3   -179.6375290  0.967492E-02  0.185E-01    0.16       1.0  T
   4   -179.6472559 -0.972695E-02  0.935E-03    0.13       1.0  T
   5   -179.6472768 -0.208280E-04  0.291E-03    0.13       3.3  T
   6   -179.6472790 -0.229284E-05  0.498E-04    0.13      19.5  T
   7   -179.6472790  0.100624E-07  0.415E-04    0.13      23.4  T
   8   -179.6472791 -0.271721E-07  0.205E-04    0.13      47.3  T
     SCC iter.                  ...        0 min,  0.375 sec
     gradient                   ...        0 min,  0.036 sec
 * total energy  :  -176.4996284 Eh     change       -0.1089613E-03 Eh
   gradient norm :     0.0025593 Eh/α   predicted    -0.7909028E-04 ( -27.41%)
   displ. norm   :     0.4236604 α      lambda       -0.1267497E-03
   maximum displ.:     0.1868450 α      in ANC's #5, #3, #1, ...

........................................................................
.............................. CYCLE   31 ..............................
........................................................................

 iter      E             dE          RMSdq      gap      omega  full diag
   1   -179.6471176 -0.179647E+03  0.558E-02    0.12       0.0  T
   2   -179.6471003  0.173081E-04  0.337E-02    0.12       1.0  T
   3   -179.6415606  0.553968E-02  0.139E-01    0.15       1.0  T
   4   -179.6471095 -0.554897E-02  0.671E-03    0.13       1.4  T
   5   -179.6471187 -0.916705E-05  0.180E-03    0.12       5.4  T
   6   -179.6471195 -0.747728E-06  0.484E-04    0.12      20.1  T
   7   -179.6471195 -0.136860E-07  0.247E-04    0.12      39.4  T
     SCC iter.                  ...        0 min,  0.348 sec
     gradient                   ...        0 min,  0.035 sec
 * total energy  :  -176.4997284 Eh     change       -0.9999787E-04 Eh
   gradient norm :     0.0022054 Eh/α   predicted    -0.7475002E-04 ( -25.25%)
   displ. norm   :     0.4177075 α      lambda       -0.1088284E-03
   maximum displ.:     0.1802633 α      in ANC's #5, #1, #3, ...

........................................................................
.............................. CYCLE   32 ..............................
........................................................................

 iter      E             dE          RMSdq      gap      omega  full diag
   1   -179.6470701 -0.179647E+03  0.537E-02    0.12       0.0  T
   2   -179.6470663  0.382980E-05  0.316E-02    0.12       1.0  T
   3   -179.6451341  0.193218E-02  0.829E-02    0.13       1.0  T
   4   -179.6469932 -0.185911E-02  0.164E-02    0.12       1.0  T
   5   -179.6470717 -0.784851E-04  0.126E-03    0.12       7.7  T
   6   -179.6470719 -0.239254E-06  0.512E-04    0.12      19.0  T
   7   -179.6470719 -0.687356E-08  0.290E-04    0.12      33.5  T
     SCC iter.                  ...        0 min,  0.331 sec
     gradient                   ...        0 min,  0.034 sec
 * total energy  :  -176.4998125 Eh     change       -0.8410296E-04 Eh
   gradient norm :     0.0018441 Eh/α   predicted    -0.6391692E-04 ( -24.00%)
   displ. norm   :     0.5468764 α      lambda       -0.8232103E-04
   maximum displ.:     0.2432830 α      in ANC's #1, #5, #3, ...

........................................................................
.............................. CYCLE   33 ..............................
........................................................................

 iter      E             dE          RMSdq      gap      omega  full diag
   1   -179.6470568 -0.179647E+03  0.699E-02    0.12       0.0  T
   2   -179.6470568  0.764342E-07  0.409E-02    0.12       1.0  T
   3   -179.6463468  0.709991E-03  0.493E-02    0.12       1.0  T
   4   -179.6469465 -0.599744E-03  0.208E-02    0.12       1.0  T
   5   -179.6470595 -0.112954E-03  0.193E-03    0.12       5.0  T
   6   -179.6470601 -0.607772E-06  0.759E-04    0.12      12.8  T
   7   -179.6470601 -0.220305E-07  0.368E-04    0.12      26.4  T
     SCC iter.                  ...        0 min,  0.497 sec
     gradient                   ...        0 min,  0.035 sec
 * total energy  :  -176.4998897 Eh     change       -0.7716933E-04 Eh
   gradient norm :     0.0020264 Eh/α   predicted    -0.4663195E-04 ( -39.57%)
   displ. norm   :     0.1247405 α      lambda       -0.2797278E-04
   maximum displ.:     0.0631431 α      in ANC's #1, #3, #5, ...

........................................................................
.............................. CYCLE   34 ..............................
........................................................................

 iter      E             dE          RMSdq      gap      omega  full diag
   1   -179.6475224 -0.179648E+03  0.170E-02    0.12       0.0  T
   2   -179.6475201  0.232961E-05  0.104E-02    0.12       1.0  T
   3   -179.6467300  0.790105E-03  0.524E-02    0.12       1.0  T
   4   -179.6475218 -0.791795E-03  0.204E-03    0.12       4.8  T
   5   -179.6475226 -0.843670E-06  0.474E-04    0.12      20.5  T
   6   -179.6475226 -0.233668E-07  0.264E-04    0.12      36.7  T
     SCC iter.                  ...        0 min,  0.312 sec
     gradient                   ...        0 min,  0.036 sec
 * total energy  :  -176.4999131 Eh     change       -0.2340888E-04 Eh
   gradient norm :     0.0014267 Eh/α   predicted    -0.1420614E-04 ( -39.31%)
   displ. norm   :     0.2504201 α      lambda       -0.3896005E-04
   maximum displ.:     0.1348994 α      in ANC's #1, #2, #3, ...

........................................................................
.............................. CYCLE   35 ..............................
........................................................................

 iter      E             dE          RMSdq      gap      omega  full diag
   1   -179.6479281 -0.179648E+03  0.385E-02    0.12       0.0  T
   2   -179.6479266  0.153606E-05  0.227E-02    0.12       1.0  T
   3   -179.6470178  0.908775E-03  0.563E-02    0.12       1.0  T
   4   -179.6479132 -0.895354E-03  0.776E-03    0.12       1.3  T
   5   -179.6479290 -0.158162E-04  0.104E-03    0.12       9.3  T
   6   -179.6479291 -0.107722E-06  0.606E-04    0.12      16.0  T
   7   -179.6479292 -0.578739E-07  0.182E-04    0.12      53.4  T
     SCC iter.                  ...        0 min,  0.419 sec
     gradient                   ...        0 min,  0.039 sec
 * total energy  :  -176.4999437 Eh     change       -0.3061476E-04 Eh
   gradient norm :     0.0011967 Eh/α   predicted    -0.2002739E-04 ( -34.58%)
   displ. norm   :     0.2504404 α      lambda        0.3618378E-04
   maximum displ.:     0.1349119 α      in ANC's #1, #2, #3, ...

........................................................................
.............................. CYCLE   36 ..............................
........................................................................

 iter      E             dE          RMSdq      gap      omega  full diag
   1   -179.6478145 -0.179648E+03  0.385E-02    0.12       0.0  T
   2   -179.6478135  0.925158E-06  0.227E-02    0.12       1.0  T
   3   -179.6471508  0.662735E-03  0.481E-02    0.12       1.0  T
   4   -179.6477948 -0.644027E-03  0.872E-03    0.12       1.1  T
   5   -179.6478153 -0.204858E-04  0.104E-03    0.12       9.4  T
   6   -179.6478154 -0.104165E-06  0.603E-04    0.12      16.1  T
   7   -179.6478155 -0.571746E-07  0.177E-04    0.12      54.7  T
     SCC iter.                  ...        0 min,  0.340 sec
     gradient                   ...        0 min,  0.037 sec
 * total energy  :  -176.4999189 Eh     change        0.2477420E-04 Eh
   gradient norm :     0.0030549 Eh/α   predicted     0.1859623E-04 ( -24.94%)
   displ. norm   :     0.1135711 α      lambda       -0.4068874E-04
   maximum displ.:     0.0536931 α      in ANC's #1, #3, #2, ...

........................................................................
.............................. CYCLE   37 ..............................
........................................................................

 iter      E             dE          RMSdq      gap      omega  full diag
   1   -179.6477920 -0.179648E+03  0.200E-02    0.12       0.0  T
   2   -179.6477786  0.134744E-04  0.136E-02    0.12       1.0  T
   3   -179.6458339  0.194467E-02  0.825E-02    0.12       1.0  T
   4   -179.6477904 -0.195653E-02  0.295E-03    0.12       3.3  T
   5   -179.6477925 -0.205165E-05  0.526E-04    0.12      18.5  T
   6   -179.6477925 -0.137595E-07  0.366E-04    0.12      26.5  T
   7   -179.6477925 -0.246398E-07  0.114E-04    0.12      85.1  T
     SCC iter.                  ...        0 min,  0.276 sec
     gradient                   ...        0 min,  0.036 sec
 * total energy  :  -176.4999485 Eh     change       -0.2960719E-04 Eh
   gradient norm :     0.0016056 Eh/α   predicted    -0.2061164E-04 ( -30.38%)
   displ. norm   :     0.0927084 α      lambda       -0.2167508E-04
   maximum displ.:     0.0330879 α      in ANC's #20, #5, #3, ...

........................................................................
.............................. CYCLE   38 ..............................
........................................................................

 iter      E             dE          RMSdq      gap      omega  full diag
   1   -179.6476700 -0.179648E+03  0.209E-02    0.12       0.0  T
   2   -179.6476374  0.325817E-04  0.163E-02    0.12       1.0  T
   3   -179.6457118  0.192553E-02  0.827E-02    0.12       1.0  T
   4   -179.6476670 -0.195511E-02  0.374E-03    0.12       2.6  T
   5   -179.6476707 -0.372038E-05  0.514E-04    0.12      18.9  T
   6   -179.6476707 -0.314265E-08  0.395E-04    0.12      24.6  T
   7   -179.6476707 -0.290697E-07  0.130E-04    0.12      74.7  T
     SCC iter.                  ...        0 min,  0.299 sec
     gradient                   ...        0 min,  0.035 sec
 * total energy  :  -176.4999640 Eh     change       -0.1549703E-04 Eh
   gradient norm :     0.0004494 Eh/α   predicted    -0.1088090E-04 ( -29.79%)
   displ. norm   :     0.0517763 α      lambda       -0.6426472E-05
   maximum displ.:     0.0334386 α      in ANC's #1, #2, #13, ...

........................................................................
.............................. CYCLE   39 ..............................
........................................................................

 iter      E             dE          RMSdq      gap      omega  full diag
   1   -179.6481111 -0.179648E+03  0.780E-03    0.12       0.0  T
   2   -179.6481082  0.294555E-05  0.559E-03    0.12       1.7  T
   3   -179.6478047  0.303432E-03  0.327E-02    0.12       1.0  T
   4   -179.6481109 -0.306164E-03  0.107E-03    0.12       9.1  T
   5   -179.6481112 -0.273353E-06  0.155E-04    0.12      62.7  T
   6   -179.6481112 -0.353404E-08  0.708E-05    0.12     137.2  T
     SCC iter.                  ...        0 min,  0.237 sec
     gradient                   ...        0 min,  0.035 sec
 * total energy  :  -176.4999728 Eh     change       -0.8807795E-05 Eh
   gradient norm :     0.0004617 Eh/α   predicted    -0.3218214E-05 ( -63.46%)
   displ. norm   :     0.1443907 α      lambda       -0.1679565E-04
   maximum displ.:     0.0814085 α      in ANC's #1, #5, #2, ...

........................................................................
.............................. CYCLE   40 ..............................
........................................................................

 iter      E             dE          RMSdq      gap      omega  full diag
   1   -179.6477621 -0.179648E+03  0.224E-02    0.12       0.0  T
   2   -179.6477314  0.306720E-04  0.167E-02    0.12       1.0  T
   3   -179.6453599  0.237153E-02  0.916E-02    0.12       1.0  T
   4   -179.6477609 -0.240109E-02  0.278E-03    0.12       3.5  T
   5   -179.6477626 -0.168549E-05  0.419E-04    0.12      23.2  T
   6   -179.6477626 -0.223244E-07  0.193E-04    0.12      50.3  T
   7   -179.6477626 -0.295574E-08  0.906E-05    0.12     107.2  T
     SCC iter.                  ...        0 min,  0.417 sec
     gradient                   ...        0 min,  0.048 sec
 * total energy  :  -176.4999916 Eh     change       -0.1876107E-04 Eh
   gradient norm :     0.0007462 Eh/α   predicted    -0.8476474E-05 ( -54.82%)
   displ. norm   :     0.1621131 α      lambda       -0.1342443E-04
   maximum displ.:     0.0953205 α      in ANC's #1, #5, #2, ...

........................................................................
.............................. CYCLE   41 ..............................
........................................................................

 iter      E             dE          RMSdq      gap      omega  full diag
   1   -179.6479634 -0.179648E+03  0.234E-02    0.12       0.0  T
   2   -179.6479292  0.342791E-04  0.176E-02    0.12       1.0  T
   3   -179.6453473  0.258189E-02  0.956E-02    0.12       1.0  T
   4   -179.6479622 -0.261494E-02  0.270E-03    0.12       3.6  T
   5   -179.6479641 -0.184903E-05  0.402E-04    0.12      24.2  T
   6   -179.6479641 -0.112982E-07  0.252E-04    0.12      38.6  T
   7   -179.6479641 -0.867621E-08  0.103E-04    0.12      94.2  T
     SCC iter.                  ...        0 min,  0.380 sec
     gradient                   ...        0 min,  0.035 sec
 * total energy  :  -176.5000050 Eh     change       -0.1337503E-04 Eh
   gradient norm :     0.0008801 Eh/α   predicted    -0.6792024E-05 ( -49.22%)
   displ. norm   :     0.1590822 α      lambda        0.4811273E-05
   maximum displ.:     0.0934455 α      in ANC's #1, #5, #2, ...

........................................................................
.............................. CYCLE   42 ..............................
........................................................................

 iter      E             dE          RMSdq      gap      omega  full diag
   1   -179.6479677 -0.179648E+03  0.230E-02    0.12       0.0  T
   2   -179.6479340  0.337267E-04  0.174E-02    0.12       1.0  T
   3   -179.6454501  0.248389E-02  0.938E-02    0.12       1.0  T
   4   -179.6479665 -0.251637E-02  0.270E-03    0.12       3.6  T
   5   -179.6479683 -0.185733E-05  0.400E-04    0.12      24.3  T
   6   -179.6479684 -0.116189E-07  0.249E-04    0.12      39.0  T
   7   -179.6479684 -0.860234E-08  0.101E-04    0.12      96.2  T
     SCC iter.                  ...        0 min,  0.363 sec
     gradient                   ...        0 min,  0.036 sec
 * total energy  :  -176.5000047 Eh     change        0.2195921E-06 Eh
   gradient norm :     0.0022659 Eh/α   predicted     0.2430417E-05 (1006.79%)
   displ. norm   :     0.0200636 α      lambda       -0.9274028E-05
   maximum displ.:     0.0069998 α      in ANC's #3, #1, #8, ...
 * RMSD in coord.:     0.4119505 α      energy gain  -0.1898242E-02 Eh

generating ANC from model Hessian ...
Using Lindh-Hessian (1995)
 Shifting diagonal of input Hessian by    9.9569564622267997E-003
 Lowest  eigenvalues of input Hessian
    0.000000    0.000000    0.000000    0.000000    0.000000    0.000000
    0.010000    0.010111    0.010139    0.010207    0.010457    0.010615
    0.010794    0.010857    0.011042    0.011254    0.011411    0.011793
 Highest eigenvalues
    2.199391    2.201037    2.306812    2.307508    2.345411    2.353428


........................................................................
.............................. CYCLE   43 ..............................
........................................................................

 iter      E             dE          RMSdq      gap      omega  full diag
   1   -179.6482142 -0.179648E+03  0.448E-03    0.12       0.0  T
   2   -179.6482124  0.187567E-05  0.371E-03    0.12       2.6  T
   3   -179.6481311  0.812153E-04  0.171E-02    0.12       1.0  T
   4   -179.6482142 -0.830814E-04  0.514E-04    0.12      18.9  T
   5   -179.6482143 -0.507499E-07  0.109E-04    0.12      89.3  T
   6   -179.6482143 -0.991662E-09  0.639E-05    0.12     151.9  T
     SCC iter.                  ...        0 min,  0.280 sec
     gradient                   ...        0 min,  0.035 sec
 * total energy  :  -176.5000120 Eh     change       -0.7304629E-05 Eh
   gradient norm :     0.0011206 Eh/α   predicted     0.0000000E+00 (-100.00%)
   displ. norm   :     0.0285550 α      lambda       -0.5940617E-05
   maximum displ.:     0.0163514 α      in ANC's #1, #18, #21, ...

........................................................................
.............................. CYCLE   44 ..............................
........................................................................

 iter      E             dE          RMSdq      gap      omega  full diag
   1   -179.6478112 -0.179648E+03  0.593E-03    0.12       0.0  T
   2   -179.6478061  0.501816E-05  0.548E-03    0.12       1.8  T
   3   -179.6476919  0.114202E-03  0.205E-02    0.12       1.0  T
   4   -179.6478112 -0.119226E-03  0.674E-04    0.12      14.4  T
   5   -179.6478112 -0.843221E-07  0.114E-04    0.12      85.4  T
   6   -179.6478112 -0.107383E-08  0.653E-05    0.12     148.7  T
     SCC iter.                  ...        0 min,  0.289 sec
     gradient                   ...        0 min,  0.035 sec
 * total energy  :  -176.5000191 Eh     change       -0.7095128E-05 Eh
   gradient norm :     0.0003624 Eh/α   predicted    -0.3203029E-05 ( -54.86%)
   displ. norm   :     0.0684529 α      lambda       -0.8923295E-05
   maximum displ.:     0.0379874 α      in ANC's #1, #18, #15, ...

........................................................................
.............................. CYCLE   45 ..............................
........................................................................

 iter      E             dE          RMSdq      gap      omega  full diag
   1   -179.6476096 -0.179648E+03  0.129E-02    0.12       0.0  T
   2   -179.6475730  0.366350E-04  0.137E-02    0.12       1.0  T
   3   -179.6471915  0.381450E-03  0.385E-02    0.12       1.0  T
   4   -179.6476098 -0.418338E-03  0.130E-03    0.12       7.5  T
   5   -179.6476101 -0.293425E-06  0.242E-04    0.12      40.1  T
   6   -179.6476101 -0.759891E-08  0.124E-04    0.12      78.1  T
     SCC iter.                  ...        0 min,  0.266 sec
     gradient                   ...        0 min,  0.036 sec
 * total energy  :  -176.5000293 Eh     change       -0.1014250E-04 Eh
   gradient norm :     0.0010177 Eh/α   predicted    -0.4472280E-05 ( -55.91%)
   displ. norm   :     0.0911410 α      lambda       -0.8333765E-05
   maximum displ.:     0.0526991 α      in ANC's #1, #18, #15, ...

........................................................................
.............................. CYCLE   46 ..............................
........................................................................

 iter      E             dE          RMSdq      gap      omega  full diag
   1   -179.6477286 -0.179648E+03  0.161E-02    0.12       0.0  T
   2   -179.6476571  0.715010E-04  0.185E-02    0.12       1.0  T
   3   -179.6471750  0.482061E-03  0.445E-02    0.12       1.0  T
   4   -179.6477293 -0.554235E-03  0.146E-03    0.12       6.7  T
   5   -179.6477296 -0.344629E-06  0.286E-04    0.12      34.0  T
   6   -179.6477296 -0.109079E-07  0.152E-04    0.12      63.9  T
     SCC iter.                  ...        0 min,  0.278 sec
     gradient                   ...        0 min,  0.034 sec
 * total energy  :  -176.5000380 Eh     change       -0.8695179E-05 Eh
   gradient norm :     0.0007739 Eh/α   predicted    -0.4203359E-05 ( -51.66%)
   displ. norm   :     0.0611825 α      lambda       -0.4135492E-05
   maximum displ.:     0.0396529 α      in ANC's #1, #4, #9, ...

........................................................................
.............................. CYCLE   47 ..............................
........................................................................

 iter      E             dE          RMSdq      gap      omega  full diag
   1   -179.6478602 -0.179648E+03  0.898E-03    0.12       0.0  T
   2   -179.6478396  0.205939E-04  0.100E-02    0.12       1.0  T
   3   -179.6476730  0.166606E-03  0.258E-02    0.12       1.0  T
   4   -179.6478604 -0.187393E-03  0.871E-04    0.12      11.1  T
   5   -179.6478605 -0.110541E-06  0.146E-04    0.12      66.5  T
   6   -179.6478605 -0.100269E-08  0.101E-04    0.12      96.0  T
     SCC iter.                  ...        0 min,  0.351 sec
     gradient                   ...        0 min,  0.037 sec
 * total energy  :  -176.5000428 Eh     change       -0.4807965E-05 Eh
   gradient norm :     0.0003906 Eh/α   predicted    -0.2071946E-05 ( -56.91%)
   displ. norm   :     0.0520329 α      lambda       -0.3671642E-05
   maximum displ.:     0.0352850 α      in ANC's #1, #4, #2, ...

   *** GEOMETRY OPTIMIZATION CONVERGED AFTER 47 ITERATIONS ***

------------------------------------------------------------------------
 total energy gain   :        -0.5872123 Eh     -368.4813 kcal/mol
 total RMSD          :         1.1532623 a0        0.6103 Å
 total power (kW/mol):       -32.8026719 (step)  -71.6634 (real)
------------------------------------------------------------------------

 ANCopt (total)                0 d,  0 h,  0 min, 21.514 sec
 optimizer setup                ...        0 min,  0.000 sec (  0.001%)
 model hessian                  ...        0 min,  0.214 sec (  0.992%)
 ANC generation                 ...        0 min,  0.096 sec (  0.444%)
 coordinate transformation      ...        0 min,  0.002 sec (  0.009%)
 single point calculation       ...        0 min, 21.180 sec ( 98.450%)
 optimization log               ...        0 min,  0.009 sec (  0.042%)
 hessian update                 ...        0 min,  0.003 sec (  0.016%)
 rational function              ...        0 min,  0.008 sec (  0.036%)

================
 final structure:
================
 xtb: 6.6.1 (8d0f1dd)
          11012414453D

106120  0     0  0            999 V2000
   -2.4853   -0.8089    2.8387 C   0  0  0  0  0  0  0  0  0  0  0  0
   -1.9514    0.4997    2.5710 C   0  0  0  0  0  0  0  0  0  0  0  0
   -1.7121   -2.0149    2.8298 C   0  0  0  0  0  0  0  0  0  0  0  0
   -3.8532   -0.9049    3.1721 C   0  0  0  0  0  0  0  0  0  0  0  0
   -2.8419    1.5679    2.3010 C   0  0  0  0  0  0  0  0  0  0  0  0
   -2.2066   -3.1461    3.5328 C   0  0  0  0  0  0  0  0  0  0  0  0
   -4.7133    0.2061    2.9662 C   0  0  0  0  0  0  0  0  0  0  0  0
   -4.3704   -2.1049    3.7175 C   0  0  0  0  0  0  0  0  0  0  0  0
   -4.2377    1.3756    2.4733 C   0  0  0  0  0  0  0  0  0  0  0  0
   -3.5522   -3.1581    3.9749 C   0  0  0  0  0  0  0  0  0  0  0  0
   -0.5781    0.7998    2.6294 C   0  0  0  0  0  0  0  0  0  0  0  0
   -0.4872   -2.1991    2.1213 C   0  0  0  0  0  0  0  0  0  0  0  0
   -2.3279    2.8153    1.9098 C   0  0  0  0  0  0  0  0  0  0  0  0
   -1.3719   -4.2551    3.7661 C   0  0  0  0  0  0  0  0  0  0  0  0
   -0.0989    2.0330    2.2712 C   0  0  0  0  0  0  0  0  0  0  0  0
    0.3482   -3.2865    2.4244 C   0  0  0  0  0  0  0  0  0  0  0  0
   -0.9771    3.0356    1.8544 C   0  0  0  0  0  0  0  0  0  0  0  0
   -0.0932   -4.2992    3.2782 C   0  0  0  0  0  0  0  0  0  0  0  0
   -5.7628    0.0807    3.1864 H   0  0  0  0  0  0  0  0  0  0  0  0
   -5.4198   -2.1471    3.9662 H   0  0  0  0  0  0  0  0  0  0  0  0
   -4.9014    2.1972    2.2512 H   0  0  0  0  0  0  0  0  0  0  0  0
   -3.9215   -4.0427    4.4691 H   0  0  0  0  0  0  0  0  0  0  0  0
   -3.0228    3.6017    1.6563 H   0  0  0  0  0  0  0  0  0  0  0  0
   -1.7595   -5.0806    4.3411 H   0  0  0  0  0  0  0  0  0  0  0  0
   -0.5886    3.9877    1.5291 H   0  0  0  0  0  0  0  0  0  0  0  0
    0.5716   -5.1216    3.4803 H   0  0  0  0  0  0  0  0  0  0  0  0
    1.5850   -3.4408    1.8892 O   0  0  0  0  0  0  0  0  0  0  0  0
    2.0299   -2.4886    1.0231 C   0  0  0  0  0  0  0  0  0  0  0  0
    1.1461   -1.5177    0.5449 C   0  0  0  0  0  0  0  0  0  0  0  0
   -0.1370   -1.4331    1.0206 N   0  0  0  0  0  0  0  0  0  0  0  0
    1.5434   -0.5620   -0.4280 C   0  0  0  0  0  0  0  0  0  0  0  0
    3.3329   -2.4977    0.5634 C   0  0  0  0  0  0  0  0  0  0  0  0
    3.7379   -1.5427   -0.3694 C   0  0  0  0  0  0  0  0  0  0  0  0
    2.8739   -0.5918   -0.8654 C   0  0  0  0  0  0  0  0  0  0  0  0
    0.6477    0.3293   -0.8963 N   0  0  0  0  0  0  0  0  0  0  0  0
   -0.6040    0.1931   -0.4977 C   0  0  0  0  0  0  0  0  0  0  0  0
   -1.0202   -0.6544    0.4514 N   0  0  0  0  0  0  0  0  0  0  0  0
    0.9620    2.2299    2.3098 H   0  0  0  0  0  0  0  0  0  0  0  0
    0.1091    0.0497    2.9908 H   0  0  0  0  0  0  0  0  0  0  0  0
   -1.6304    1.0653   -1.0552 C   0  0  0  0  0  0  0  0  0  0  0  0
   -1.2606    2.1595   -1.8368 C   0  0  0  0  0  0  0  0  0  0  0  0
   -2.2288    3.0057   -2.3402 C   0  0  0  0  0  0  0  0  0  0  0  0
   -3.5687    2.7670   -2.0737 C   0  0  0  0  0  0  0  0  0  0  0  0
   -3.9412    1.6744   -1.3055 C   0  0  0  0  0  0  0  0  0  0  0  0
   -2.9799    0.8243   -0.7960 C   0  0  0  0  0  0  0  0  0  0  0  0
   -3.2582   -0.0336   -0.2044 H   0  0  0  0  0  0  0  0  0  0  0  0
   -4.9854    1.4840   -1.1073 H   0  0  0  0  0  0  0  0  0  0  0  0
   -4.3234    3.4293   -2.4706 H   0  0  0  0  0  0  0  0  0  0  0  0
   -1.9423    3.8526   -2.9449 H   0  0  0  0  0  0  0  0  0  0  0  0
   -0.2136    2.3274   -2.0325 H   0  0  0  0  0  0  0  0  0  0  0  0
    3.1853    0.1264   -1.6049 H   0  0  0  0  0  0  0  0  0  0  0  0
    4.7584   -1.5636   -0.7185 H   0  0  0  0  0  0  0  0  0  0  0  0
    4.0126   -3.2502    0.9259 H   0  0  0  0  0  0  0  0  0  0  0  0
    0.5943    2.1186    5.8504 C   0  0  0  0  0  0  0  0  0  0  0  0
    1.1528    1.1582    6.7613 C   0  0  0  0  0  0  0  0  0  0  0  0
   -0.8050    2.2631    5.5949 C   0  0  0  0  0  0  0  0  0  0  0  0
    1.4767    3.0173    5.2184 C   0  0  0  0  0  0  0  0  0  0  0  0
    2.5397    0.8751    6.6963 C   0  0  0  0  0  0  0  0  0  0  0  0
   -1.2838    3.5128    5.1198 C   0  0  0  0  0  0  0  0  0  0  0  0
    2.8705    2.7433    5.2103 C   0  0  0  0  0  0  0  0  0  0  0  0
    0.9704    4.1956    4.6175 C   0  0  0  0  0  0  0  0  0  0  0  0
    3.3718    1.6593    5.8525 C   0  0  0  0  0  0  0  0  0  0  0  0
   -0.3566    4.4812    4.6611 C   0  0  0  0  0  0  0  0  0  0  0  0
    0.4103    0.5574    7.7949 C   0  0  0  0  0  0  0  0  0  0  0  0
   -1.7670    1.2270    5.7601 C   0  0  0  0  0  0  0  0  0  0  0  0
    3.0803   -0.1267    7.5192 C   0  0  0  0  0  0  0  0  0  0  0  0
   -2.6659    3.7667    5.0811 C   0  0  0  0  0  0  0  0  0  0  0  0
    0.9695   -0.3883    8.6159 C   0  0  0  0  0  0  0  0  0  0  0  0
   -3.1348    1.5364    5.7974 C   0  0  0  0  0  0  0  0  0  0  0  0
    2.3023   -0.7716    8.4452 C   0  0  0  0  0  0  0  0  0  0  0  0
   -3.5753    2.8226    5.4809 C   0  0  0  0  0  0  0  0  0  0  0  0
    3.5179    3.4123    4.6629 H   0  0  0  0  0  0  0  0  0  0  0  0
    1.6715    4.8911    4.1808 H   0  0  0  0  0  0  0  0  0  0  0  0
    4.4225    1.4163    5.7977 H   0  0  0  0  0  0  0  0  0  0  0  0
   -0.7353    5.4273    4.3066 H   0  0  0  0  0  0  0  0  0  0  0  0
    4.1305   -0.3613    7.4282 H   0  0  0  0  0  0  0  0  0  0  0  0
   -3.0055    4.7351    4.7487 H   0  0  0  0  0  0  0  0  0  0  0  0
    2.7228   -1.5408    9.0741 H   0  0  0  0  0  0  0  0  0  0  0  0
   -4.6333    3.0221    5.5131 H   0  0  0  0  0  0  0  0  0  0  0  0
   -4.0913    0.6231    6.1139 O   0  0  0  0  0  0  0  0  0  0  0  0
   -3.6825   -0.6259    6.4688 C   0  0  0  0  0  0  0  0  0  0  0  0
   -2.3624   -1.0164    6.2361 C   0  0  0  0  0  0  0  0  0  0  0  0
   -1.4317   -0.1189    5.7789 N   0  0  0  0  0  0  0  0  0  0  0  0
   -1.9245   -2.3401    6.4942 C   0  0  0  0  0  0  0  0  0  0  0  0
   -4.5677   -1.5318    7.0240 C   0  0  0  0  0  0  0  0  0  0  0  0
   -4.1281   -2.8171    7.3327 C   0  0  0  0  0  0  0  0  0  0  0  0
   -2.8404   -3.2301    7.0670 C   0  0  0  0  0  0  0  0  0  0  0  0
   -0.6620   -2.7028    6.1823 N   0  0  0  0  0  0  0  0  0  0  0  0
    0.0928   -1.7932    5.5881 C   0  0  0  0  0  0  0  0  0  0  0  0
   -0.2446   -0.5190    5.3838 N   0  0  0  0  0  0  0  0  0  0  0  0
    0.3813   -0.8337    9.4044 H   0  0  0  0  0  0  0  0  0  0  0  0
   -0.6087    0.8751    7.9705 H   0  0  0  0  0  0  0  0  0  0  0  0
[...]
    99   1 H        0.926     0.040     2.451     2.448
   100   1 H        0.926     0.038     2.476     2.460
   101   1 H        0.926     0.050     2.322     2.383
   102   1 H        0.926     0.053     2.287     2.365
   103   1 H        0.926     0.065     2.144     2.290
   104   1 H        0.926     0.076     2.026     2.226
   105   1 H        0.926     0.072     2.061     2.245
   106   1 H        0.926     0.077     2.014     2.219

 Mol. C6AA /au·bohr⁶  :     176326.575518
 Mol. C8AA /au·bohr⁸  :    4527688.817529
 Mol. α(0) /au        :        677.927191


Wiberg/Mayer (AO) data.
largest (>0.10) Wiberg bond orders for each atom

 ---------------------------------------------------------------------------
     #   Z sym  total        # sym  WBO       # sym  WBO       # sym  WBO
 ---------------------------------------------------------------------------
     1   6 C    3.983 --     4 C    1.313     3 C    1.225     2 C    1.188
     2   6 C    3.988 --    11 C    1.307     5 C    1.270     1 C    1.188
     3   6 C    3.975 --     6 C    1.267     1 C    1.225    12 C    1.222
     4   6 C    3.982 --     1 C    1.313     8 C    1.248     7 C    1.228
     5   6 C    3.986 --    13 C    1.307     2 C    1.270     9 C    1.222
     6   6 C    3.977 --    14 C    1.285     3 C    1.267    10 C    1.240
     7   6 C    3.984 --     9 C    1.619     4 C    1.228    19 H    0.965
     8   6 C    3.975 --    10 C    1.591     4 C    1.248    20 H    0.965
     9   6 C    3.975 --     7 C    1.619     5 C    1.222    21 H    0.966
    10   6 C    3.976 --     8 C    1.591     6 C    1.240    22 H    0.965
    11   6 C    3.990 --    15 C    1.518     2 C    1.307    39 H    0.956
                            13 C    0.108
    12   6 C    3.947 --    16 C    1.305     3 C    1.222    30 N    1.100
    13   6 C    3.980 --    17 C    1.521     5 C    1.307    23 H    0.967
                            11 C    0.108
    14   6 C    3.949 --    18 C    1.505     6 C    1.285    24 H    0.963
    15   6 C    3.983 --    11 C    1.518    17 C    1.349    38 H    0.970
    16   6 C    3.903 --    18 C    1.316    12 C    1.305    27 O    1.068
    17   6 C    3.981 --    13 C    1.521    15 C    1.349    25 H    0.969
    18   6 C    3.966 --    14 C    1.505    16 C    1.316    26 H    0.962
    19   1 H    0.996 --     7 C    0.965
    20   1 H    0.996 --     8 C    0.965
    21   1 H    0.996 --     9 C    0.966
    22   1 H    0.996 --    10 C    0.965
    23   1 H    0.997 --    13 C    0.967
    24   1 H    0.993 --    14 C    0.963
    25   1 H    0.997 --    17 C    0.969
    26   1 H    0.992 --    18 C    0.962
    27   8 O    2.360 --    16 C    1.068    28 C    1.039
    28   6 C    3.913 --    32 C    1.407    29 C    1.275    27 O    1.039
    29   6 C    3.923 --    28 C    1.275    31 C    1.210    30 N    1.146
    30   7 N    3.686 --    37 N    1.242    29 C    1.146    12 C    1.100
    31   6 C    3.967 --    34 C    1.304    35 N    1.272    29 C    1.210
    32   6 C    3.958 --    28 C    1.407    33 C    1.380    53 H    0.965
    33   6 C    3.970 --    34 C    1.494    32 C    1.380    52 H    0.966
    34   6 C    3.966 --    33 C    1.494    31 C    1.304    51 H    0.964
    35   7 N    2.974 --    36 C    1.404    31 C    1.272
    36   6 C    3.952 --    35 N    1.404    37 N    1.308    40 C    1.068
    37   7 N    2.945 --    36 C    1.308    30 N    1.242
    38   1 H    0.998 --    15 C    0.970
    39   1 H    0.999 --    11 C    0.956
    40   6 C    3.983 --    41 C    1.369    45 C    1.368    36 C    1.068
    41   6 C    3.982 --    42 C    1.460    40 C    1.369    50 H    0.965
                            44 C    0.104
    42   6 C    3.989 --    41 C    1.460    43 C    1.428    49 H    0.969
                            45 C    0.105
    43   6 C    3.978 --    42 C    1.428    44 C    1.428    48 H    0.970
    44   6 C    3.991 --    45 C    1.461    43 C    1.428    47 H    0.970
                            41 C    0.104
    45   6 C    3.982 --    44 C    1.461    40 C    1.368    46 H    0.966
                            42 C    0.105
    46   1 H    0.998 --    45 C    0.966
    47   1 H    0.998 --    44 C    0.970
    48   1 H    0.997 --    43 C    0.970
    49   1 H    0.997 --    42 C    0.969
    50   1 H    0.996 --    41 C    0.965
    51   1 H    0.993 --    34 C    0.964
    52   1 H    0.994 --    33 C    0.966
    53   1 H    0.994 --    32 C    0.965
    54   6 C    3.983 --    57 C    1.314    56 C    1.223    55 C    1.187
    55   6 C    3.988 --    64 C    1.309    58 C    1.268    54 C    1.187
    56   6 C    3.968 --    59 C    1.262    65 C    1.231    54 C    1.223
    57   6 C    3.977 --    54 C    1.314    61 C    1.244    60 C    1.228
    58   6 C    3.986 --    66 C    1.310    55 C    1.268    62 C    1.219
    59   6 C    3.978 --    67 C    1.295    56 C    1.262    63 C    1.237
    60   6 C    3.984 --    62 C    1.620    57 C    1.228    72 H    0.965
    61   6 C    3.975 --    63 C    1.597    57 C    1.244    73 H    0.965
    62   6 C    3.973 --    60 C    1.620    58 C    1.219    74 H    0.966
    63   6 C    3.972 --    61 C    1.597    59 C    1.237    75 H    0.965
    64   6 C    3.989 --    68 C    1.519    55 C    1.309    92 H    0.966
                            66 C    0.109
    65   6 C    3.947 --    69 C    1.307    56 C    1.231    83 N    1.096
    66   6 C    3.981 --    70 C    1.520    58 C    1.310    76 H    0.967
                            64 C    0.109
    67   6 C    3.936 --    71 C    1.503    59 C    1.295    77 H    0.964
    68   6 C    3.984 --    64 C    1.519    70 C    1.350    91 H    0.970
    69   6 C    3.891 --    71 C    1.319    65 C    1.307    80 O    1.060
    70   6 C    3.980 --    66 C    1.520    68 C    1.350    78 H    0.970
    71   6 C    3.966 --    67 C    1.503    69 C    1.319    79 H    0.963
    72   1 H    0.997 --    60 C    0.965
    73   1 H    0.996 --    61 C    0.965
    74   1 H    0.996 --    62 C    0.966
    75   1 H    0.996 --    63 C    0.965
    76   1 H    0.998 --    66 C    0.967
    77   1 H    0.994 --    67 C    0.964
    78   1 H    0.997 --    70 C    0.970
    79   1 H    0.993 --    71 C    0.963
    80   8 O    2.350 --    69 C    1.060    81 C    1.043
    81   6 C    3.914 --    85 C    1.399    82 C    1.279    80 O    1.043
    82   6 C    3.926 --    81 C    1.279    84 C    1.215    83 N    1.143
    83   7 N    3.675 --    90 N    1.222    82 C    1.143    65 C    1.096
    84   6 C    3.968 --    87 C    1.308    88 N    1.261    82 C    1.215
    85   6 C    3.959 --    81 C    1.399    86 C    1.388   106 H    0.965
    86   6 C    3.970 --    87 C    1.485    85 C    1.388   105 H    0.967
    87   6 C    3.966 --    86 C    1.485    84 C    1.308   104 H    0.965
    88   7 N    2.972 --    89 C    1.393    84 C    1.261
    89   6 C    3.956 --    88 N    1.393    90 N    1.331    93 C    1.060
    90   7 N    2.974 --    89 C    1.331    83 N    1.222
    91   1 H    0.998 --    68 C    0.970
    92   1 H    0.999 --    64 C    0.966
    93   6 C    3.984 --    98 C    1.373    94 C    1.371    89 C    1.060
    94   6 C    3.981 --    95 C    1.459    93 C    1.371   103 H    0.965
                            97 C    0.104
    95   6 C    3.989 --    94 C    1.459    96 C    1.429   102 H    0.969
                            98 C    0.105
    96   6 C    3.979 --    95 C    1.429    97 C    1.428   101 H    0.970
    97   6 C    3.990 --    98 C    1.459    96 C    1.428   100 H    0.970
                            94 C    0.104
    98   6 C    3.984 --    97 C    1.459    93 C    1.373    99 H    0.961
                            95 C    0.105
    99   1 H    0.998 --    98 C    0.961
   100   1 H    0.998 --    97 C    0.970
   101   1 H    0.997 --    96 C    0.970
   102   1 H    0.997 --    95 C    0.969
   103   1 H    0.996 --    94 C    0.965
   104   1 H    0.994 --    87 C    0.965
   105   1 H    0.994 --    86 C    0.967
   106   1 H    0.993 --    85 C    0.965
 ---------------------------------------------------------------------------

Topologies differ in bond orders
Writing corrected topology to xtbtopo.mol

molecular dipole:
                 x           y           z       tot (Debye)
 q only:       -1.248      -0.419       6.670
   full:       -1.365      -0.583       6.904      17.949
molecular quadrupole (traceless):
                xx          xy          yy          xz          yz          zz
 q only:       -8.868      -9.397     -22.085     -24.261     -20.675      30.953
  q+dip:        2.557     -12.986     -21.352     -32.654     -30.690      18.795
   full:       -8.518      -9.342     -25.695     -26.655     -16.302      34.212

           -------------------------------------------------
          |                Geometry Summary                 |
           -------------------------------------------------

      molecular mass/u    :      896.9905219
   center of mass at/Å    :       -0.5892400      -0.2011579       3.5938603
  moments of inertia/u·Å² :        0.9832960E+04   0.1144845E+05   0.1314672E+05
rotational constants/cm⁻¹ :        0.1714400E-02   0.1472481E-02   0.1282269E-02

 * 116 selected distances

     #   Z          #   Z                                           value/Å
     1   6 C        3   6 C                                       1.4325610 (max)
     1   6 C        4   6 C                                       1.4112184
     2   6 C        5   6 C                                       1.4166276
     3   6 C        6   6 C                                       1.4207046
     4   6 C        7   6 C                                       1.4200871
     4   6 C        8   6 C                                       1.4158947
     5   6 C        9   6 C                                       1.4195200
     7   6 C        9   6 C                                       1.3552952
     6   6 C       10   6 C                                       1.4163668
     8   6 C       10   6 C                                       1.3583001
     2   6 C       11   6 C                                       1.4069918
     3   6 C       12   6 C                                       1.4270179
     5   6 C       13   6 C                                       1.4046895
     6   6 C       14   6 C                                       1.4076125
    11   6 C       15   6 C                                       1.3706352
    12   6 C       16   6 C                                       1.4043217
    13   6 C       17   6 C                                       1.3697272
    15   6 C       17   6 C                                       1.3964766
    14   6 C       18   6 C                                       1.3693432
    16   6 C       18   6 C                                       1.3961928
     7   6 C       19   1 H                                       1.0795782
     8   6 C       20   1 H                                       1.0793045
     9   6 C       21   1 H                                       1.0793280
    10   6 C       22   1 H                                       1.0785381
    13   6 C       23   1 H                                       1.0796266
    14   6 C       24   1 H                                       1.0781057
    17   6 C       25   1 H                                       1.0785509
    18   6 C       26   1 H                                       1.0766304 (min)
    16   6 C       27   8 O                                       1.3564711
    27   8 O       28   6 C                                       1.3618730
    28   6 C       29   6 C                                       1.3973405
    12   6 C       30   7 N                                       1.3859424
    29   6 C       30   7 N                                       1.3710610
    29   6 C       31   6 C                                       1.4204747
    28   6 C       32   6 C                                       1.3817261
    32   6 C       33   6 C                                       1.3950267
    31   6 C       34   6 C                                       1.4008723
    33   6 C       34   6 C                                       1.3772683
    31   6 C       35   7 N                                       1.3475529
    35   7 N       36   6 C                                       1.3206663
    30   7 N       37   7 N                                       1.3078881
    36   6 C       37   7 N                                       1.3387021
    15   6 C       38   1 H                                       1.0797542
    11   6 C       39   1 H                                       1.0795215
    40   6 C       41   6 C                                       1.3945608
    41   6 C       42   6 C                                       1.3809073
    42   6 C       43   6 C                                       1.3867557
    43   6 C       44   6 C                                       1.3866975
    40   6 C       45   6 C                                       1.3951376
    44   6 C       45   6 C                                       1.3806830
    45   6 C       46   1 H                                       1.0786204
    44   6 C       47   1 H                                       1.0797084
    43   6 C       48   1 H                                       1.0796439
    42   6 C       49   1 H                                       1.0793973
    41   6 C       50   1 H                                       1.0782957
    34   6 C       51   1 H                                       1.0768024
    33   6 C       52   1 H                                       1.0787663
    32   6 C       53   1 H                                       1.0768157
    54   6 C       56   6 C                                       1.4297592
    54   6 C       57   6 C                                       1.4091635
    55   6 C       58   6 C                                       1.4169817
    56   6 C       59   6 C                                       1.4201665
    57   6 C       60   6 C                                       1.4204872
    57   6 C       61   6 C                                       1.4162258
    58   6 C       62   6 C                                       1.4210859
    60   6 C       62   6 C                                       1.3560723
    59   6 C       63   6 C                                       1.4170199
    61   6 C       63   6 C                                       1.3581051
    55   6 C       64   6 C                                       1.4073174
    56   6 C       65   6 C                                       1.4234438
    58   6 C       66   6 C                                       1.4046459
    59   6 C       67   6 C                                       1.4057773
    64   6 C       68   6 C                                       1.3715931
    65   6 C       69   6 C                                       1.4028581
    66   6 C       70   6 C                                       1.3706370
    68   6 C       70   6 C                                       1.3972750
    67   6 C       71   6 C                                       1.3704271
    69   6 C       71   6 C                                       1.3958910
    60   6 C       72   1 H                                       1.0800132
    61   6 C       73   1 H                                       1.0798054
    62   6 C       74   1 H                                       1.0798025
    63   6 C       75   1 H                                       1.0789167
    66   6 C       76   1 H                                       1.0799543
    67   6 C       77   1 H                                       1.0787172
    70   6 C       78   1 H                                       1.0789163
    71   6 C       79   1 H                                       1.0771553
    69   6 C       80   8 O                                       1.3598986
    80   8 O       81   6 C                                       1.3612923
    81   6 C       82   6 C                                       1.3961957
    65   6 C       83   7 N                                       1.3871317
    82   6 C       83   7 N                                       1.3714681
    82   6 C       84   6 C                                       1.4178279
    81   6 C       85   6 C                                       1.3829898
Note: The following floating-point exceptions are signalling: IEEE_UNDERFLOW_FLAG
normal termination of xtb
    85   6 C       86   6 C                                       1.3929630
    84   6 C       87   6 C                                       1.3997205
    86   6 C       87   6 C                                       1.3782036
    84   6 C       88   7 N                                       1.3501003
    88   7 N       89   6 C                                       1.3229886
    83   7 N       90   7 N                                       1.3135057
    89   6 C       90   7 N                                       1.3337898
    68   6 C       91   1 H                                       1.0798831
    64   6 C       92   1 H                                       1.0816772
    93   6 C       94   6 C                                       1.3944681
    94   6 C       95   6 C                                       1.3810686
    95   6 C       96   6 C                                       1.3862440
    96   6 C       97   6 C                                       1.3864162
    93   6 C       98   6 C                                       1.3946173
    97   6 C       98   6 C                                       1.3811845
    98   6 C       99   1 H                                       1.0787127
    97   6 C      100   1 H                                       1.0803175
    96   6 C      101   1 H                                       1.0795163
    95   6 C      102   1 H                                       1.0793823
    94   6 C      103   1 H                                       1.0781112
    87   6 C      104   1 H                                       1.0769061
    86   6 C      105   1 H                                       1.0787109
    85   6 C      106   1 H                                       1.0770192

 * 5 distinct bonds (by element types)

   Z      Z             #   av. dist./Å        max./Å        min./Å
   1 H    6 C          36     1.0789029     1.0816772     1.0766304
   6 C    6 C          64     1.3972479     1.4325610     1.3552952
   6 C    7 N          10     1.3529403     1.3871317     1.3206663
   7 N    7 N           2     1.3106969     1.3135057     1.3078881
   6 C    8 O           4     1.3598837     1.3618730     1.3564711


optimized geometry written to: xtbopt.mol


           -------------------------------------------------
          | TOTAL ENERGY             -176.500042784020 Eh   |
          | GRADIENT NORM               0.000389951518 Eh/α |
          | HOMO-LUMO GAP               0.118535650442 eV   |
           -------------------------------------------------
########################################################################
[WARNING] Runtime exception occurred
-1- restart_readRestart: Number of electron missmatch in restart file.
########################################################################

------------------------------------------------------------------------
 * finished run on 2024/11/01 at 14:45:41.107     
------------------------------------------------------------------------
 total:
 * wall-time:     0 d,  0 h,  0 min, 22.880 sec
 *  cpu-time:     0 d,  0 h,  1 min, 11.965 sec
 * ratio c/w:     3.145 speedup
 SCF:
 * wall-time:     0 d,  0 h,  0 min,  1.145 sec
 *  cpu-time:     0 d,  0 h,  0 min,  3.900 sec
 * ratio c/w:     3.406 speedup
 ANC optimizer:
 * wall-time:     0 d,  0 h,  0 min, 21.716 sec
 *  cpu-time:     0 d,  0 h,  1 min,  8.030 sec
 * ratio c/w:     3.133 speedup

