      -----------------------------------------------------------      
     |                   =====================                   |     
     |                           x T B                           |     
     |                   =====================                   |     
     |                         S. Grimme                         |     
     |          Mulliken Center for Theoretical Chemistry        |     
     |                    University of Bonn                     |     
      -----------------------------------------------------------      

   * xtb version 6.6.1 (8d0f1dd) compiled by 'runner@Mac-1690902418499.local' on 2023-08-01

   xtb is free software: you can redistribute it and/or modify it under
   the terms of the GNU Lesser General Public License as published by
   the Free Software Foundation, either version 3 of the License, or
   (at your option) any later version.
   
   xtb is distributed in the hope that it will be useful,
   but WITHOUT ANY WARRANTY; without even the implied warranty of
   MERCHANTABILITY or FITNESS FOR A PARTICULAR PURPOSE.  See the
   GNU Lesser General Public License for more details.
   
   Cite this work as:
   * C. Bannwarth, E. Caldeweyher, S. Ehlert, A. Hansen, P. Pracht,
     J. Seibert, S. Spicher, S. Grimme, WIREs Comput. Mol. Sci., 2020, 11,
     e01493. DOI: 10.1002/wcms.1493
   
   for GFN2-xTB:
   * C. Bannwarth, S. Ehlert and S. Grimme., J. Chem. Theory Comput., 2019,
     15, 1652-1671. DOI: 10.1021/acs.jctc.8b01176
   for GFN1-xTB:
   * S. Grimme, C. Bannwarth, P. Shushkov, J. Chem. Theory Comput., 2017,
     13, 1989-2009. DOI: 10.1021/acs.jctc.7b00118
   for GFN0-xTB:
   * P. Pracht, E. Caldeweyher, S. Ehlert, S. Grimme, ChemRxiv, 2019, preprint.
     DOI: 10.26434/chemrxiv.8326202.v1
   for GFN-FF:
   * S. Spicher and S. Grimme, Angew. Chem. Int. Ed., 2020, 59, 15665-15673.
     DOI: 10.1002/anie.202004239
   
   for ALPB and GBSA implicit solvation:
   * S. Ehlert, M. Stahn, S. Spicher, S. Grimme, J. Chem. Theory Comput.,
     2021, 17, 4250-4261. DOI: 10.1021/acs.jctc.1c00471
   
   for DFT-D4:
   * E. Caldeweyher, C. Bannwarth and S. Grimme, J. Chem. Phys., 2017,
     147, 034112. DOI: 10.1063/1.4993215
   * E. Caldeweyher, S. Ehlert, A. Hansen, H. Neugebauer, S. Spicher,
     C. Bannwarth and S. Grimme, J. Chem. Phys., 2019, 150, 154122.
     DOI: 10.1063/1.5090222
   * E. Caldeweyher, J.-M. Mewes, S. Ehlert and S. Grimme, Phys. Chem. Chem. Phys.
     2020, 22, 8499-8512. DOI: 10.1039/D0CP00502A
   
   for sTDA-xTB:
   * S. Grimme and C. Bannwarth, J. Chem. Phys., 2016, 145, 054103.
     DOI: 10.1063/1.4959605
   
   in the mass-spec context:
   * V. Asgeirsson, C. Bauer and S. Grimme, Chem. Sci., 2017, 8, 4879.
     DOI: 10.1039/c7sc00601b
   * J. Koopman and S. Grimme, ACS Omega 2019, 4, 12, 15120-15133.
     DOI: 10.1021/acsomega.9b02011
   
   for metadynamics refer to:
   * S. Grimme, J. Chem. Theory Comput., 2019, 155, 2847-2862
     DOI: 10.1021/acs.jctc.9b00143
   
   for SPH calculations refer to:
   * S. Spicher and S. Grimme, J. Chem. Theory Comput., 2021, 17, 1701-1714
     DOI: 10.1021/acs.jctc.0c01306
   
   with help from (in alphabetical order)
   P. Atkinson, C. Bannwarth, F. Bohle, G. Brandenburg, E. Caldeweyher
   M. Checinski, S. Dohm, S. Ehlert, S. Ehrlich, I. Gerasimov, C. Hölzer
   A. Katbashev, J. Koopman, C. Lavigne, S. Lehtola, F. März, M. Müller,
   F. Musil, H. Neugebauer, J. Pisarek, C. Plett, P. Pracht, F. Pultar,
   J. Seibert, P. Shushkov, S. Spicher, M. Stahn, M. Steiner, T. Strunk,
   J. Stückrath, T. Rose, and J. Unsleber
   
 * started run on 2024/11/01 at 14:02:03.717     

           -------------------------------------------------
          |                Calculation Setup                |
           -------------------------------------------------

          program call               : xtb opt_cation_Blatter1.mol --gfn2 --sp --chrg 0 --uhf 0
          coordinate file            : opt_cation_Blatter1.mol
          omp threads                :                     8

   ID    Z sym.   atoms
    1    6 C      1-18, 28, 29, 31-34, 36, 40-45
    2    1 H      19-26, 38, 39, 46-53
    3    8 O      27
    4    7 N      30, 35, 37
########################################################################
[WARNING] Please study the warnings concerning your input carefully
-1- prog_main: Charge in sdf/mol input was overwritten
########################################################################

           -------------------------------------------------
          |                 G F N 2 - x T B                 |
           -------------------------------------------------

        Reference                      10.1021/acs.jctc.8b01176
      * Hamiltonian:
        H0-scaling (s, p, d)           1.850000    2.230000    2.230000
        zeta-weighting                 0.500000
      * Dispersion:
        s8                             2.700000
        a1                             0.520000
        a2                             5.000000
        s9                             5.000000
      * Repulsion:
        kExp                           1.500000    1.000000
        rExp                           1.000000
      * Coulomb:
        alpha                          2.000000
        third order                    shell-resolved
        anisotropic                    true
        a3                             3.000000
        a5                             4.000000
        cn-shift                       1.200000
        cn-exp                         4.000000
        max-rad                        5.000000

q/qsh data taken from xtbrestart
CAMM data taken from xtbrestart

          ...................................................
          :                      SETUP                      :
          :.................................................:
          :  # basis functions                 158          :
          :  # atomic orbitals                 158          :
          :  # shells                           88          :
          :  # electrons                       163          :
          :  max. iterations                   250          :
          :  Hamiltonian                  GFN2-xTB          :
          :  restarted?                       true          :
          :  GBSA solvation                  false          :
          :  PC potential                    false          :
          :  electronic temp.          300.0000000     K    :
          :  accuracy                    1.0000000          :
          :  -> integral cutoff          0.2500000E+02      :
          :  -> integral neglect         0.1000000E-07      :
          :  -> SCF convergence          0.1000000E-05 Eh   :
          :  -> wf. convergence          0.1000000E-03 e    :
          :  Broyden damping             0.4000000          :
          ...................................................

 iter      E             dE          RMSdq      gap      omega  full diag
   1    -89.9453146 -0.899453E+02  0.648E-01    1.48       0.0  T
   2    -89.9644397 -0.191252E-01  0.510E-01    0.92       1.0  T
   3    -89.9752020 -0.107622E-01  0.254E-01    1.05       1.0  T
   4    -89.9753173 -0.115282E-03  0.212E-01    1.01       1.0  T
   5    -89.9760186 -0.701314E-03  0.831E-02    0.99       1.0  T
   6    -89.9762144 -0.195793E-03  0.265E-02    1.01       1.0  T
   7    -89.9762477 -0.333140E-04  0.768E-03    1.01       1.8  T
   8    -89.9762496 -0.188357E-05  0.357E-03    1.01       3.8  T
   9    -89.9762496 -0.580417E-07  0.162E-03    1.01       8.5  T
  10    -89.9762497 -0.104116E-06  0.447E-04    1.01      30.8  T
  11    -89.9762497 -0.222724E-08  0.257E-04    1.01      53.5  T

   *** convergence criteria satisfied after 11 iterations ***

         #    Occupation            Energy/Eh            Energy/eV
      -------------------------------------------------------------
         1        2.0000           -0.7496712             -20.3996
       ...           ...                  ...                  ...
        76        2.0000           -0.4014795             -10.9248
        77        2.0000           -0.3932813             -10.7017
        78        2.0000           -0.3857691             -10.4973
        79        2.0000           -0.3756257             -10.2213
        80        2.0000           -0.3707607             -10.0889
        81        2.0000           -0.3578995              -9.7389
        82        1.0000           -0.3097902              -8.4298 (HOMO)
        83                         -0.2725656              -7.4169 (LUMO)
        84                         -0.2674593              -7.2779
        85                         -0.2576393              -7.0107
        86                         -0.2378911              -6.4733
        87                         -0.2241569              -6.0996
       ...                                ...                  ...
       158                          0.7118377              19.3701
      -------------------------------------------------------------
                  HL-Gap            0.0372246 Eh            1.0129 eV
             Fermi-level           -0.3125125 Eh           -8.5039 eV

 SCC (total)                   0 d,  0 h,  0 min,  0.315 sec
 SCC setup                      ...        0 min,  0.000 sec (  0.040%)
 Dispersion                     ...        0 min,  0.000 sec (  0.119%)
 classical contributions        ...        0 min,  0.000 sec (  0.029%)
 integral evaluation            ...        0 min,  0.002 sec (  0.708%)
 iterations                     ...        0 min,  0.276 sec ( 87.594%)
 molecular gradient             ...        0 min,  0.009 sec (  2.706%)
 printout                       ...        0 min,  0.028 sec (  8.801%)

         :::::::::::::::::::::::::::::::::::::::::::::::::::::
         ::                     SUMMARY                     ::
         :::::::::::::::::::::::::::::::::::::::::::::::::::::
         :: total energy             -88.410661005175 Eh    ::
         :: gradient norm              0.081318423927 Eh/a0 ::
         :: HOMO-LUMO gap              1.012933844838 eV    ::
         ::.................................................::
         :: SCC energy               -89.976249725381 Eh    ::
         :: -> isotropic ES            0.032484648811 Eh    ::
         :: -> anisotropic ES          0.009173095686 Eh    ::
         :: -> anisotropic XC          0.050824609862 Eh    ::
         :: -> dispersion             -0.086459705560 Eh    ::
         :: repulsion energy           1.563602658824 Eh    ::
         :: add. restraining           0.000000000000 Eh    ::
         :: total charge              -0.000041406830 e     ::
         :::::::::::::::::::::::::::::::::::::::::::::::::::::

           -------------------------------------------------
          |                Property Printout                |
           -------------------------------------------------

    * Orbital Energies and Occupations

         #    Occupation            Energy/Eh            Energy/eV
      -------------------------------------------------------------
         1        2.0000           -0.7496712             -20.3996
       ...           ...                  ...                  ...
        70        2.0000           -0.4199064             -11.4262
        71        2.0000           -0.4178383             -11.3700
        72        2.0000           -0.4149596             -11.2916
        73        2.0000           -0.4136728             -11.2566
        74        2.0000           -0.4060766             -11.0499
        75        2.0000           -0.4037491             -10.9866
        76        2.0000           -0.4014795             -10.9248
        77        2.0000           -0.3932813             -10.7017
        78        2.0000           -0.3857691             -10.4973
        79        2.0000           -0.3756257             -10.2213
        80        2.0000           -0.3707607             -10.0889
        81        2.0000           -0.3578995              -9.7389
        82        1.0000           -0.3097902              -8.4298 (HOMO)
        83                         -0.2725656              -7.4169 (LUMO)
        84                         -0.2674593              -7.2779
        85                         -0.2576393              -7.0107
        86                         -0.2378911              -6.4733
        87                         -0.2241569              -6.0996
        88                         -0.2192335              -5.9656
        89                         -0.2144977              -5.8368
        90                         -0.2039377              -5.5494
        91                         -0.1839294              -5.0050
        92                         -0.1722199              -4.6863
        93                         -0.1584142              -4.3107
       ...                                ...                  ...
       158                          0.7118377              19.3701
      -------------------------------------------------------------
                  HL-Gap            0.0372246 Eh            1.0129 eV
             Fermi-level           -0.3125125 Eh           -8.5039 eV

     #   Z          covCN         q      C6AA      α(0)
     1   6 C        2.977     0.011    27.767     8.644
     2   6 C        2.982     0.019    27.588     8.616
     3   6 C        2.977    -0.000    28.026     8.684
     4   6 C        2.988     0.011    27.751     8.641
     5   6 C        2.988     0.015    27.665     8.628
     6   6 C        2.987     0.006    27.882     8.662
     7   6 C        2.916    -0.038    28.935     8.821
     8   6 C        2.917    -0.035    28.880     8.813
     9   6 C        2.915    -0.035    28.865     8.810
    10   6 C        2.917    -0.037    28.930     8.820
    11   6 C        2.920    -0.029    28.717     8.788
    12   6 C        2.939     0.010    27.802     8.648
    13   6 C        2.922    -0.034    28.847     8.808
    14   6 C        2.922    -0.043    29.068     8.841
    15   6 C        2.916    -0.031    28.784     8.798
    16   6 C        2.890     0.126    25.229     8.235
    17   6 C        2.916    -0.029    28.725     8.789
    18   6 C        2.911    -0.059    29.474     8.902
    19   1 H        0.926     0.033     2.545     2.495
    20   1 H        0.926     0.036     2.507     2.476
    21   1 H        0.926     0.032     2.557     2.501
    22   1 H        0.926     0.036     2.502     2.474
    23   1 H        0.926     0.031     2.571     2.507
    24   1 H        0.926     0.045     2.387     2.416
    25   1 H        0.926     0.031     2.570     2.507
    26   1 H        0.926     0.054     2.275     2.359
    27   8 O        1.711    -0.227    17.764     5.691
    28   6 C        2.883     0.123    25.303     8.247
    29   6 C        2.952     0.003    27.964     8.673
    30   7 N        2.857     0.133    18.969     6.469
    31   6 C        2.972     0.097    25.853     8.340
    32   6 C        2.915    -0.064    29.599     8.921
    33   6 C        2.919    -0.030    28.754     8.793
    34   6 C        2.915    -0.059    29.460     8.901
    35   7 N        1.844    -0.300    28.623     7.929
    36   6 C        2.917     0.173    24.276     8.080
    37   7 N        1.945    -0.252    27.402     7.762
    38   1 H        0.926     0.028     2.611     2.527
    39   1 H        0.925     0.020     2.738     2.588
    40   6 C        2.987     0.003    27.939     8.671
    41   6 C        2.923    -0.026    28.649     8.778
    42   6 C        2.918    -0.029    28.718     8.788
    43   6 C        2.920    -0.027    28.686     8.783
    44   6 C        2.918    -0.028    28.699     8.785
    45   6 C        2.922    -0.026    28.643     8.777
    46   1 H        0.926     0.048     2.351     2.398
    47   1 H        0.926     0.033     2.543     2.494
    48   1 H        0.926     0.033     2.539     2.492
    49   1 H        0.926     0.035     2.516     2.481
    50   1 H        0.926     0.056     2.247     2.344
    51   1 H        0.926     0.057     2.230     2.335
    52   1 H        0.926     0.047     2.358     2.401
    53   1 H        0.926     0.054     2.275     2.359

 Mol. C6AA /au·bohr⁶  :      44759.293966
 Mol. C8AA /au·bohr⁸  :    1145612.508154
 Mol. α(0) /au        :        341.483799


Wiberg/Mayer (AO) data.
largest (>0.10) Wiberg bond orders for each atom

 ---------------------------------------------------------------------------
     #   Z sym  total        # sym  WBO       # sym  WBO       # sym  WBO
 ---------------------------------------------------------------------------
     1   6 C    3.984 --     4 C    1.311     3 C    1.230     2 C    1.185
     2   6 C    3.988 --    11 C    1.311     5 C    1.267     1 C    1.185
     3   6 C    3.978 --     6 C    1.255     1 C    1.230    12 C    1.228
     4   6 C    3.981 --     1 C    1.311     8 C    1.245     7 C    1.231
     5   6 C    3.986 --    13 C    1.310     2 C    1.267     9 C    1.221
     6   6 C    3.979 --    14 C    1.302     3 C    1.255    10 C    1.238
     7   6 C    3.983 --     9 C    1.616     4 C    1.231    19 H    0.967
     8   6 C    3.978 --    10 C    1.599     4 C    1.245    20 H    0.967
     9   6 C    3.975 --     7 C    1.616     5 C    1.221    21 H    0.968
    10   6 C    3.977 --     8 C    1.599     6 C    1.238    22 H    0.967
    11   6 C    3.992 --    15 C    1.516     2 C    1.311    39 H    0.967
                            13 C    0.111
    12   6 C    3.951 --    16 C    1.311     3 C    1.228    30 N    1.093
    13   6 C    3.984 --    17 C    1.519     5 C    1.310    23 H    0.968
                            11 C    0.111
    14   6 C    3.950 --    18 C    1.486     6 C    1.302    24 H    0.967
    15   6 C    3.986 --    11 C    1.516    17 C    1.353    38 H    0.971
    16   6 C    3.915 --    18 C    1.329    12 C    1.311    27 O    1.051
    17   6 C    3.982 --    13 C    1.519    15 C    1.353    25 H    0.971
    18   6 C    3.966 --    14 C    1.486    16 C    1.329    26 H    0.966
    19   1 H    0.998 --     7 C    0.967
    20   1 H    0.998 --     8 C    0.967
    21   1 H    0.998 --     9 C    0.968
    22   1 H    0.997 --    10 C    0.967
    23   1 H    0.998 --    13 C    0.968
    24   1 H    0.997 --    14 C    0.967
    25   1 H    0.998 --    17 C    0.971
    26   1 H    0.996 --    18 C    0.966
    27   8 O    2.342 --    16 C    1.051    28 C    1.034
    28   6 C    3.922 --    32 C    1.394    29 C    1.296    27 O    1.034
    29   6 C    3.953 --    28 C    1.296    31 C    1.229    30 N    1.123
    30   7 N    3.697 --    37 N    1.225    29 C    1.123    12 C    1.093
    31   6 C    3.977 --    34 C    1.310    35 N    1.256    29 C    1.229
    32   6 C    3.966 --    28 C    1.394    33 C    1.390    53 H    0.968
    33   6 C    3.980 --    34 C    1.481    32 C    1.390    52 H    0.970
    34   6 C    3.971 --    33 C    1.481    31 C    1.310    51 H    0.967
    35   7 N    2.992 --    36 C    1.391    31 C    1.256
    36   6 C    3.961 --    35 N    1.391    37 N    1.328    40 C    1.064
    37   7 N    2.989 --    36 C    1.328    30 N    1.225
    38   1 H    0.999 --    15 C    0.971
    39   1 H    0.999 --    11 C    0.967
    40   6 C    3.986 --    41 C    1.374    45 C    1.373    36 C    1.064
                            43 C    0.101
    41   6 C    3.983 --    42 C    1.460    40 C    1.374    50 H    0.967
                            44 C    0.105
    42   6 C    3.991 --    41 C    1.460    43 C    1.429    49 H    0.971
                            45 C    0.105
    43   6 C    3.981 --    44 C    1.430    42 C    1.429    48 H    0.972
                            40 C    0.101
    44   6 C    3.992 --    45 C    1.459    43 C    1.430    47 H    0.971
                            41 C    0.105
    45   6 C    3.983 --    44 C    1.459    40 C    1.373    46 H    0.966
                            42 C    0.105
    46   1 H    0.998 --    45 C    0.966
    47   1 H    0.998 --    44 C    0.971
    48   1 H    0.998 --    43 C    0.972
    49   1 H    0.998 --    42 C    0.971
    50   1 H    0.997 --    41 C    0.967
    51   1 H    0.996 --    34 C    0.967
    52   1 H    0.997 --    33 C    0.970
    53   1 H    0.996 --    32 C    0.968
 ---------------------------------------------------------------------------

Topologies differ in bond orders
Note: The following floating-point exceptions are signalling: IEEE_UNDERFLOW_FLAG
normal termination of xtb
Writing corrected topology to xtbtopo.mol

molecular dipole:
                 x           y           z       tot (Debye)
 q only:        0.237       0.422      -0.103
   full:       -0.102       0.516      -0.082       1.354
molecular quadrupole (traceless):
                xx          xy          yy          xz          yz          zz
 q only:        5.016      -1.061      -0.779      -2.337      -6.040      -4.237
  q+dip:       13.758      -2.265      -6.452      -3.659     -13.960      -7.306
   full:        7.976      -0.542      -5.432      -1.835      -5.868      -2.544


           -------------------------------------------------
          | TOTAL ENERGY              -88.410661005175 Eh   |
          | GRADIENT NORM               0.081318423927 Eh/α |
          | HOMO-LUMO GAP               1.012933844838 eV   |
           -------------------------------------------------
########################################################################
[WARNING] Runtime exception occurred
-2- restart_readRestart: Multiplicity missmatch in restart file.
-1- restart_readRestart: Number of electron missmatch in restart file.
########################################################################

------------------------------------------------------------------------
 * finished run on 2024/11/01 at 14:02:04.046     
------------------------------------------------------------------------
 total:
 * wall-time:     0 d,  0 h,  0 min,  0.328 sec
 *  cpu-time:     0 d,  0 h,  0 min,  1.221 sec
 * ratio c/w:     3.726 speedup
 SCF:
 * wall-time:     0 d,  0 h,  0 min,  0.316 sec
 *  cpu-time:     0 d,  0 h,  0 min,  1.208 sec
 * ratio c/w:     3.828 speedup

