      -----------------------------------------------------------      
     |                   =====================                   |     
     |                           x T B                           |     
     |                   =====================                   |     
     |                         S. Grimme                         |     
     |          Mulliken Center for Theoretical Chemistry        |     
     |                    University of Bonn                     |     
      -----------------------------------------------------------      

   * xtb version 6.6.1 (8d0f1dd) compiled by 'runner@Mac-1690902418499.local' on 2023-08-01

   xtb is free software: you can redistribute it and/or modify it under
   the terms of the GNU Lesser General Public License as published by
   the Free Software Foundation, either version 3 of the License, or
   (at your option) any later version.
   
   xtb is distributed in the hope that it will be useful,
   but WITHOUT ANY WARRANTY; without even the implied warranty of
   MERCHANTABILITY or FITNESS FOR A PARTICULAR PURPOSE.  See the
   GNU Lesser General Public License for more details.
   
   Cite this work as:
   * C. Bannwarth, E. Caldeweyher, S. Ehlert, A. Hansen, P. Pracht,
     J. Seibert, S. Spicher, S. Grimme, WIREs Comput. Mol. Sci., 2020, 11,
     e01493. DOI: 10.1002/wcms.1493
   
   for GFN2-xTB:
   * C. Bannwarth, S. Ehlert and S. Grimme., J. Chem. Theory Comput., 2019,
     15, 1652-1671. DOI: 10.1021/acs.jctc.8b01176
   for GFN1-xTB:
   * S. Grimme, C. Bannwarth, P. Shushkov, J. Chem. Theory Comput., 2017,
     13, 1989-2009. DOI: 10.1021/acs.jctc.7b00118
   for GFN0-xTB:
   * P. Pracht, E. Caldeweyher, S. Ehlert, S. Grimme, ChemRxiv, 2019, preprint.
     DOI: 10.26434/chemrxiv.8326202.v1
   for GFN-FF:
   * S. Spicher and S. Grimme, Angew. Chem. Int. Ed., 2020, 59, 15665-15673.
     DOI: 10.1002/anie.202004239
   
   for ALPB and GBSA implicit solvation:
   * S. Ehlert, M. Stahn, S. Spicher, S. Grimme, J. Chem. Theory Comput.,
     2021, 17, 4250-4261. DOI: 10.1021/acs.jctc.1c00471
   
   for DFT-D4:
   * E. Caldeweyher, C. Bannwarth and S. Grimme, J. Chem. Phys., 2017,
     147, 034112. DOI: 10.1063/1.4993215
   * E. Caldeweyher, S. Ehlert, A. Hansen, H. Neugebauer, S. Spicher,
     C. Bannwarth and S. Grimme, J. Chem. Phys., 2019, 150, 154122.
     DOI: 10.1063/1.5090222
   * E. Caldeweyher, J.-M. Mewes, S. Ehlert and S. Grimme, Phys. Chem. Chem. Phys.
     2020, 22, 8499-8512. DOI: 10.1039/D0CP00502A
   
   for sTDA-xTB:
   * S. Grimme and C. Bannwarth, J. Chem. Phys., 2016, 145, 054103.
     DOI: 10.1063/1.4959605
   
   in the mass-spec context:
   * V. Asgeirsson, C. Bauer and S. Grimme, Chem. Sci., 2017, 8, 4879.
     DOI: 10.1039/c7sc00601b
   * J. Koopman and S. Grimme, ACS Omega 2019, 4, 12, 15120-15133.
     DOI: 10.1021/acsomega.9b02011
   
   for metadynamics refer to:
   * S. Grimme, J. Chem. Theory Comput., 2019, 155, 2847-2862
     DOI: 10.1021/acs.jctc.9b00143
   
   for SPH calculations refer to:
   * S. Spicher and S. Grimme, J. Chem. Theory Comput., 2021, 17, 1701-1714
     DOI: 10.1021/acs.jctc.0c01306
   
   with help from (in alphabetical order)
   P. Atkinson, C. Bannwarth, F. Bohle, G. Brandenburg, E. Caldeweyher
   M. Checinski, S. Dohm, S. Ehlert, S. Ehrlich, I. Gerasimov, C. Hölzer
   A. Katbashev, J. Koopman, C. Lavigne, S. Lehtola, F. März, M. Müller,
   F. Musil, H. Neugebauer, J. Pisarek, C. Plett, P. Pracht, F. Pultar,
   J. Seibert, P. Shushkov, S. Spicher, M. Stahn, M. Steiner, T. Strunk,
   J. Stückrath, T. Rose, and J. Unsleber
   
 * started run on 2024/11/01 at 14:00:52.062     

           -------------------------------------------------
          |                Calculation Setup                |
           -------------------------------------------------

          program call               : xtb Blatter1.mol --opt --gfn2 --chrg 0 --uhf 1 --tight
          coordinate file            : Blatter1.mol
          omp threads                :                     8

   ID    Z sym.   atoms
    1    6 C      1-18, 28, 29, 31-34, 36, 40-45
    2    1 H      19-26, 38, 39, 46-53
    3    8 O      27
    4    7 N      30, 35, 37
########################################################################
[WARNING] Please study the warnings concerning your input carefully
-1- prog_main_parseArguments: Unknown option '--tight' provided
########################################################################

           -------------------------------------------------
          |                 G F N 2 - x T B                 |
           -------------------------------------------------

        Reference                      10.1021/acs.jctc.8b01176
      * Hamiltonian:
        H0-scaling (s, p, d)           1.850000    2.230000    2.230000
        zeta-weighting                 0.500000
      * Dispersion:
        s8                             2.700000
        a1                             0.520000
        a2                             5.000000
        s9                             5.000000
      * Repulsion:
        kExp                           1.500000    1.000000
        rExp                           1.000000
      * Coulomb:
        alpha                          2.000000
        third order                    shell-resolved
        anisotropic                    true
        a3                             3.000000
        a5                             4.000000
        cn-shift                       1.200000
        cn-exp                         4.000000
        max-rad                        5.000000


          ...................................................
          :                      SETUP                      :
          :.................................................:
          :  # basis functions                 158          :
          :  # atomic orbitals                 158          :
          :  # shells                           88          :
          :  # electrons                       163          :
          :  max. iterations                   250          :
          :  Hamiltonian                  GFN2-xTB          :
          :  restarted?                      false          :
          :  GBSA solvation                  false          :
          :  PC potential                    false          :
          :  electronic temp.          300.0000000     K    :
          :  accuracy                    1.0000000          :
          :  -> integral cutoff          0.2500000E+02      :
          :  -> integral neglect         0.1000000E-07      :
          :  -> SCF convergence          0.1000000E-05 Eh   :
          :  -> wf. convergence          0.1000000E-03 e    :
          :  Broyden damping             0.4000000          :
          ...................................................

 iter      E             dE          RMSdq      gap      omega  full diag
   1    -87.3792121 -0.873792E+02  0.601E+00    0.61       0.0  T
   2    -87.3655465  0.136656E-01  0.389E+00    1.00       1.0  T
   3    -86.5687728  0.796774E+00  0.349E+00    0.95       1.0  T
   4    -87.3403768 -0.771604E+00  0.127E+00    0.67       1.0  T
   5    -87.4880943 -0.147717E+00  0.518E-01    1.16       1.0  T
   6    -87.5035049 -0.154107E-01  0.182E-01    1.10       1.0  T
   7    -87.5048484 -0.134351E-02  0.119E-01    1.07       1.0  T
   8    -87.5051506 -0.302110E-03  0.833E-02    1.07       1.0  T
   9    -87.5054084 -0.257792E-03  0.365E-02    1.07       1.0  T
  10    -87.5054370 -0.286455E-04  0.239E-02    1.08       1.0  T
  11    -87.5054705 -0.335237E-04  0.644E-03    1.07       2.1  T
  12    -87.5054719 -0.136601E-05  0.315E-03    1.07       4.4  T
  13    -87.5054720 -0.161774E-06  0.191E-03    1.08       7.2  T
  14    -87.5054722 -0.193708E-06  0.681E-04    1.08      20.2  T
  15    -87.5054723 -0.980546E-08  0.396E-04    1.08      34.7  T

   *** convergence criteria satisfied after 15 iterations ***

         #    Occupation            Energy/Eh            Energy/eV
      -------------------------------------------------------------
         1        2.0000           -0.6765613             -18.4102
       ...           ...                  ...                  ...
        76        2.0000           -0.3826611             -10.4127
        77        2.0000           -0.3789724             -10.3124
        78        2.0000           -0.3766635             -10.2495
        79        2.0000           -0.3698626             -10.0645
        80        2.0000           -0.3669079              -9.9841
        81        1.9999           -0.3591768              -9.7737
        82        1.0001           -0.3410419              -9.2802 (HOMO)
        83                         -0.3015299              -8.2050 (LUMO)
        84                         -0.2945494              -8.0151
        85                         -0.2872915              -7.8176
        86                         -0.2764321              -7.5221
        87                         -0.2689792              -7.3193
       ...                                ...                  ...
       158                          0.2888168               7.8591
      -------------------------------------------------------------
                  HL-Gap            0.0395121 Eh            1.0752 eV
             Fermi-level           -0.3356977 Eh           -9.1348 eV

 SCC (total)                   0 d,  0 h,  0 min,  0.306 sec
 SCC setup                      ...        0 min,  0.000 sec (  0.074%)
 Dispersion                     ...        0 min,  0.001 sec (  0.248%)
 classical contributions        ...        0 min,  0.000 sec (  0.074%)
 integral evaluation            ...        0 min,  0.003 sec (  0.967%)
 iterations                     ...        0 min,  0.290 sec ( 94.775%)
 molecular gradient             ...        0 min,  0.010 sec (  3.315%)
 printout                       ...        0 min,  0.002 sec (  0.543%)

         :::::::::::::::::::::::::::::::::::::::::::::::::::::
         ::                     SUMMARY                     ::
         :::::::::::::::::::::::::::::::::::::::::::::::::::::
         :: total energy             -87.061993870008 Eh    ::
         :: gradient norm              0.430774324804 Eh/a0 ::
         :: HOMO-LUMO gap              1.075178535548 eV    ::
         ::.................................................::
         :: SCC energy               -87.505472251830 Eh    ::
         :: -> isotropic ES            0.036227783319 Eh    ::
         :: -> anisotropic ES          0.005728074780 Eh    ::
         :: -> anisotropic XC          0.103163433019 Eh    ::
         :: -> dispersion             -0.073451584418 Eh    ::
         :: repulsion energy           0.442267456065 Eh    ::
         :: add. restraining           0.000000000000 Eh    ::
         :: total charge              -0.000000000001 e     ::
         :::::::::::::::::::::::::::::::::::::::::::::::::::::

      ----------------------------------------------------------- 
     |                   =====================                   |
     |                        A N C O P T                        |
     |                   =====================                   |
     |               Approximate Normal Coordinate               |
     |                Rational Function Optimizer                |
      ----------------------------------------------------------- 

          ...................................................
          :                      SETUP                      :
          :.................................................:
          :   optimization level            normal          :
          :   max. optcycles                   200          :
          :   ANC micro-cycles                  20          :
          :   degrees of freedom               153          :
          :.................................................:
          :   RF solver                   davidson          :
          :   write xtbopt.log                true          :
          :   linear?                        false          :
          :   energy convergence         0.5000000E-05 Eh   :
          :   grad. convergence          0.1000000E-02 Eh/α :
          :   maxmium RF displ.          1.0000000          :
          :   Hlow (freq-cutoff)         0.1000000E-01      :
          :   Hmax (freq-cutoff)         5.0000000          :
          :   S6 in model hess.         20.0000000          :
          ...................................................

generating ANC from model Hessian ...
Using Lindh-Hessian (1995)
 Shifting diagonal of input Hessian by    1.0666936238287295E-002
 Lowest  eigenvalues of input Hessian
    0.010000    0.010636    0.010644    0.000000    0.000000    0.000000
    0.000000    0.000000    0.000000    0.010683    0.010734    0.010911
    0.010993    0.011151    0.011296    0.011349    0.011793    0.011977
 Highest eigenvalues
    1.042491    1.045795    1.062004    1.093966    1.111144    1.172688


........................................................................
.............................. CYCLE    1 ..............................
........................................................................

 iter      E             dE          RMSdq      gap      omega  full diag
   1    -87.5054723 -0.875055E+02  0.162E-04    1.08       0.0  T
   2    -87.5054723  0.232379E-08  0.208E-04    1.08      66.2  T
   3    -87.5054723 -0.321553E-08  0.728E-05    1.08     188.7  T
     SCC iter.                  ...        0 min,  0.053 sec
     gradient                   ...        0 min,  0.013 sec
 * total energy  :   -87.0619939 Eh     change       -0.7597308E-08 Eh
   gradient norm :     0.4307739 Eh/α   predicted     0.0000000E+00 (-100.00%)
   displ. norm   :     0.8644753 α      lambda       -0.3615699E+00
   maximum displ.:     0.4876131 α      in ANC's #86, #97, #82, ...

........................................................................
.............................. CYCLE    2 ..............................
........................................................................

 iter      E             dE          RMSdq      gap      omega  full diag
   1    -87.9472815 -0.879473E+02  0.478E-01    1.11       0.0  T
   2    -87.9460085  0.127293E-02  0.331E-01    1.13       1.0  T
   3    -87.9446821  0.132641E-02  0.294E-01    1.14       1.0  T
   4    -87.9482898 -0.360769E-02  0.815E-02    1.12       1.0  T
   5    -87.9487914 -0.501532E-03  0.228E-02    1.14       1.0  T
   6    -87.9488180 -0.266114E-04  0.120E-02    1.13       1.1  T
   7    -87.9488214 -0.339985E-05  0.682E-03    1.13       2.0  T
   8    -87.9488231 -0.173911E-05  0.337E-03    1.13       4.1  T
   9    -87.9488236 -0.439478E-06  0.185E-03    1.13       7.4  T
  10    -87.9488237 -0.163644E-06  0.641E-04    1.13      21.4  T
  11    -87.9488237 -0.138426E-07  0.300E-04    1.13      45.9  T
     SCC iter.                  ...        0 min,  0.222 sec
     gradient                   ...        0 min,  0.008 sec
 * total energy  :   -87.3972190 Eh     change       -0.3352251E+00 Eh
   gradient norm :     0.3634749 Eh/α   predicted    -0.3158888E+00 (  -5.77%)
   displ. norm   :     0.9182464 α      lambda       -0.3281597E+00
   maximum displ.:     0.5036820 α      in ANC's #86, #82, #97, ...

........................................................................
.............................. CYCLE    3 ..............................
........................................................................

 iter      E             dE          RMSdq      gap      omega  full diag
   1    -88.3938215 -0.883938E+02  0.447E-01    1.18       0.0  T
   2    -88.3933268  0.494635E-03  0.302E-01    1.23       1.0  T
   3    -88.3923289  0.997943E-03  0.246E-01    1.21       1.0  T
   4    -88.3949212 -0.259228E-02  0.481E-02    1.21       1.0  T
   5    -88.3950609 -0.139714E-03  0.150E-02    1.22       1.0  T
   6    -88.3950678 -0.696766E-05  0.804E-03    1.22       1.7  T
   7    -88.3950694 -0.155778E-05  0.416E-03    1.22       3.3  T
   8    -88.3950702 -0.788015E-06  0.198E-03    1.22       6.9  T
   9    -88.3950703 -0.129492E-06  0.105E-03    1.22      13.1  T
  10    -88.3950704 -0.712185E-07  0.407E-04    1.22      33.8  T
  11    -88.3950704 -0.760799E-08  0.151E-04    1.22      91.0  T
     SCC iter.                  ...        0 min,  0.189 sec
     gradient                   ...        0 min,  0.022 sec
 * total energy  :   -87.6932681 Eh     change       -0.2960491E+00 Eh
   gradient norm :     0.2876194 Eh/α   predicted    -0.3024349E+00 (   2.16%)
   displ. norm   :     0.8947783 α      lambda       -0.2544381E+00
   maximum displ.:     0.4982169 α      in ANC's #86, #82, #97, ...

........................................................................
.............................. CYCLE    4 ..............................
........................................................................

 iter      E             dE          RMSdq      gap      omega  full diag
   1    -88.7924003 -0.887924E+02  0.422E-01    1.22       0.0  T
   2    -88.7923171  0.832695E-04  0.274E-01    1.29       1.0  T
   3    -88.7915198  0.797275E-03  0.215E-01    1.24       1.0  T
   4    -88.7934407 -0.192095E-02  0.440E-02    1.26       1.0  T
   5    -88.7935363 -0.955487E-04  0.143E-02    1.27       1.0  T
   6    -88.7935455 -0.916663E-05  0.668E-03    1.27       2.1  T
   7    -88.7935460 -0.548614E-06  0.386E-03    1.27       3.6  T
   8    -88.7935467 -0.706827E-06  0.138E-03    1.27       9.9  T
   9    -88.7935468 -0.732255E-07  0.584E-04    1.27      23.5  T
  10    -88.7935468 -0.170697E-07  0.255E-04    1.27      53.9  T
     SCC iter.                  ...        0 min,  0.231 sec
     gradient                   ...        0 min,  0.008 sec
 * total energy  :   -87.9176266 Eh     change       -0.2243585E+00 Eh
   gradient norm :     0.2191930 Eh/α   predicted    -0.2290743E+00 (   2.10%)
   displ. norm   :     0.8702028 α      lambda       -0.1874194E+00
   maximum displ.:     0.4682043 α      in ANC's #86, #82, #44, ...

........................................................................
.............................. CYCLE    5 ..............................
........................................................................

 iter      E             dE          RMSdq      gap      omega  full diag
   1    -89.1262136 -0.891262E+02  0.403E-01    1.20       0.0  T
   2    -89.1265128 -0.299210E-03  0.262E-01    1.28       1.0  T
   3    -89.1261004  0.412393E-03  0.188E-01    1.23       1.0  T
   4    -89.1274530 -0.135266E-02  0.529E-02    1.25       1.0  T
   5    -89.1276034 -0.150403E-03  0.166E-02    1.26       1.0  T
   6    -89.1276186 -0.151316E-04  0.639E-03    1.25       2.1  T
   7    -89.1276191 -0.543519E-06  0.332E-03    1.25       4.1  T
   8    -89.1276195 -0.365247E-06  0.130E-03    1.25      10.6  T
   9    -89.1276196 -0.714135E-07  0.470E-04    1.25      29.2  T
  10    -89.1276196 -0.761263E-08  0.206E-04    1.25      66.7  T
     SCC iter.                  ...        0 min,  0.178 sec
     gradient                   ...        0 min,  0.007 sec
 * total energy  :   -88.0792350 Eh     change       -0.1616084E+00 Eh
   gradient norm :     0.1587544 Eh/α   predicted    -0.1646720E+00 (   1.90%)
   displ. norm   :     0.8470855 α      lambda       -0.1306256E+00
   maximum displ.:     0.3967846 α      in ANC's #86, #82, #44, ...

........................................................................
.............................. CYCLE    6 ..............................
........................................................................

 iter      E             dE          RMSdq      gap      omega  full diag
   1    -89.3918953 -0.893919E+02  0.365E-01    1.15       0.0  T
   2    -89.3924828 -0.587575E-03  0.237E-01    1.23       1.0  T
   3    -89.3924606  0.222547E-04  0.157E-01    1.20       1.0  T
   4    -89.3932368 -0.776250E-03  0.563E-02    1.21       1.0  T
   5    -89.3934155 -0.178645E-03  0.164E-02    1.21       1.0  T
   6    -89.3934307 -0.151966E-04  0.557E-03    1.21       2.5  T
   7    -89.3934312 -0.542547E-06  0.267E-03    1.21       5.1  T
   8    -89.3934314 -0.200942E-06  0.113E-03    1.21      12.1  T
   9    -89.3934315 -0.414392E-07  0.418E-04    1.21      32.8  T
  10    -89.3934315 -0.676464E-08  0.168E-04    1.21      81.6  T
     SCC iter.                  ...        0 min,  0.166 sec
     gradient                   ...        0 min,  0.007 sec
 * total energy  :   -88.1902739 Eh     change       -0.1110389E+00 Eh
   gradient norm :     0.1147223 Eh/α   predicted    -0.1121787E+00 (   1.03%)
   displ. norm   :     0.8325808 α      lambda       -0.8978891E-01
   maximum displ.:     0.3061037 α      in ANC's #86, #44, #42, ...

........................................................................
.............................. CYCLE    7 ..............................
........................................................................

 iter      E             dE          RMSdq      gap      omega  full diag
   1    -89.5891987 -0.895892E+02  0.321E-01    1.14       0.0  T
   2    -89.5898538 -0.655074E-03  0.211E-01    1.21       1.0  T
   3    -89.5900078 -0.153944E-03  0.133E-01    1.19       1.0  T
   4    -89.5904981 -0.490386E-03  0.541E-02    1.19       1.0  T
   5    -89.5906464 -0.148263E-03  0.139E-02    1.19       1.0  T
   6    -89.5906568 -0.103545E-04  0.543E-03    1.19       2.5  T
   7    -89.5906576 -0.860545E-06  0.235E-03    1.19       5.9  T
   8    -89.5906578 -0.160279E-06  0.964E-04    1.19      14.3  T
   9    -89.5906578 -0.202204E-07  0.399E-04    1.19      34.4  T
     SCC iter.                  ...        0 min,  0.161 sec
     gradient                   ...        0 min,  0.008 sec
 * total energy  :   -88.2659928 Eh     change       -0.7571890E-01 Eh
   gradient norm :     0.0837288 Eh/α   predicted    -0.7601487E-01 (   0.39%)
   displ. norm   :     0.8234668 α      lambda       -0.6192441E-01
   maximum displ.:     0.3148547 α      in ANC's #44, #42, #28, ...

........................................................................
.............................. CYCLE    8 ..............................
........................................................................

 iter      E             dE          RMSdq      gap      omega  full diag
   1    -89.7342480 -0.897342E+02  0.275E-01    1.19       0.0  T
   2    -89.7347033 -0.455339E-03  0.181E-01    1.23       1.0  T
   3    -89.7347743 -0.710248E-04  0.110E-01    1.22       1.0  T
   4    -89.7351040 -0.329643E-03  0.440E-02    1.22       1.0  T
   5    -89.7352017 -0.976918E-04  0.109E-02    1.22       1.3  T
   6    -89.7352086 -0.689327E-05  0.370E-03    1.22       3.7  T
   7    -89.7352088 -0.261570E-06  0.180E-03    1.22       7.6  T
   8    -89.7352089 -0.105525E-06  0.723E-04    1.22      19.0  T
   9    -89.7352089 -0.885237E-08  0.289E-04    1.22      47.5  T
     SCC iter.                  ...        0 min,  0.164 sec
     gradient                   ...        0 min,  0.008 sec
 * total energy  :   -88.3177740 Eh     change       -0.5178120E-01 Eh
   gradient norm :     0.0661921 Eh/α   predicted    -0.5195762E-01 (   0.34%)
   displ. norm   :     0.8378127 α      lambda       -0.4589234E-01
   maximum displ.:     0.2993792 α      in ANC's #25, #44, #28, ...

........................................................................
.............................. CYCLE    9 ..............................
........................................................................

 iter      E             dE          RMSdq      gap      omega  full diag
   1    -89.8274902 -0.898275E+02  0.273E-01    1.22       0.0  T
   2    -89.8278922 -0.401957E-03  0.186E-01    1.25       1.0  T
   3    -89.8279603 -0.680908E-04  0.109E-01    1.25       1.0  T
   4    -89.8283123 -0.352003E-03  0.345E-02    1.25       1.0  T
   5    -89.8283719 -0.595945E-04  0.112E-02    1.25       1.2  T
   6    -89.8283795 -0.763038E-05  0.413E-03    1.25       3.3  T
   7    -89.8283799 -0.423742E-06  0.201E-03    1.25       6.8  T
   8    -89.8283801 -0.130988E-06  0.762E-04    1.25      18.0  T
   9    -89.8283801 -0.110998E-07  0.319E-04    1.25      43.1  T
     SCC iter.                  ...        0 min,  0.116 sec
     gradient                   ...        0 min,  0.008 sec
 * total energy  :   -88.3542784 Eh     change       -0.3650446E-01 Eh
   gradient norm :     0.0627152 Eh/α   predicted    -0.3905280E-01 (   6.98%)
   displ. norm   :     0.8454083 α      lambda       -0.3841058E-01
   maximum displ.:     0.3488781 α      in ANC's #25, #28, #44, ...

........................................................................
.............................. CYCLE   10 ..............................
........................................................................

 iter      E             dE          RMSdq      gap      omega  full diag
   1    -89.9037254 -0.899037E+02  0.282E-01    1.29       0.0  T
   2    -89.9038802 -0.154795E-03  0.180E-01    1.29       1.0  T
   3    -89.9036455  0.234744E-03  0.837E-02    1.29       1.0  T
   4    -89.9039679 -0.322447E-03  0.175E-02    1.29       1.0  T
   5    -89.9039853 -0.173890E-04  0.693E-03    1.29       2.0  T
   6    -89.9039870 -0.165933E-05  0.309E-03    1.29       4.4  T
   7    -89.9039872 -0.200334E-06  0.131E-03    1.29      10.5  T
   8    -89.9039872 -0.706200E-07  0.455E-04    1.29      30.2  T
   9    -89.9039872 -0.400007E-08  0.234E-04    1.29      58.7  T
     SCC iter.                  ...        0 min,  0.167 sec
     gradient                   ...        0 min,  0.009 sec
 * total energy  :   -88.3808239 Eh     change       -0.2654553E-01 Eh
   gradient norm :     0.0489017 Eh/α   predicted    -0.3293166E-01 (  24.06%)
   displ. norm   :     0.7745248 α      lambda       -0.2460725E-01
   maximum displ.:     0.4053638 α      in ANC's #25, #28, #23, ...

........................................................................
.............................. CYCLE   11 ..............................
........................................................................

 iter      E             dE          RMSdq      gap      omega  full diag
   1    -89.9464274 -0.899464E+02  0.269E-01    1.19       0.0  T
   2    -89.9465611 -0.133695E-03  0.166E-01    1.21       1.0  T
   3    -89.9463147  0.246408E-03  0.818E-02    1.20       1.0  T
   4    -89.9466481 -0.333406E-03  0.129E-02    1.21       1.1  T
   5    -89.9466521 -0.406227E-05  0.664E-03    1.21       2.1  T
   6    -89.9466536 -0.150748E-05  0.224E-03    1.21       6.1  T
   7    -89.9466537 -0.937164E-07  0.105E-03    1.21      13.1  T
   8    -89.9466538 -0.462161E-07  0.377E-04    1.21      36.4  T
   9    -89.9466538 -0.564640E-09  0.213E-04    1.21      64.4  T
     SCC iter.                  ...        0 min,  0.118 sec
     gradient                   ...        0 min,  0.007 sec
 * total energy  :   -88.3967890 Eh     change       -0.1596505E-01 Eh
   gradient norm :     0.0379805 Eh/α   predicted    -0.1968443E-01 (  23.30%)
   displ. norm   :     0.7033267 α      lambda       -0.1616229E-01
   maximum displ.:     0.3582430 α      in ANC's #25, #23, #28, ...

........................................................................
.............................. CYCLE   12 ..............................
........................................................................

 iter      E             dE          RMSdq      gap      omega  full diag
   1    -89.9522811 -0.899523E+02  0.339E-01    1.21       0.0  T
   2    -89.9523880 -0.106901E-03  0.192E-01    1.21       1.0  T
   3    -89.9522944  0.936229E-04  0.542E-02    1.21       1.0  T
   4    -89.9524224 -0.127998E-03  0.132E-02    1.21       1.0  T
   5    -89.9524253 -0.288647E-05  0.757E-03    1.21       1.8  T
   6    -89.9524270 -0.170394E-05  0.261E-03    1.21       5.3  T
   7    -89.9524274 -0.367140E-06  0.967E-04    1.21      14.2  T
   8    -89.9524274 -0.431503E-07  0.458E-04    1.21      30.0  T
     SCC iter.                  ...        0 min,  0.105 sec
     gradient                   ...        0 min,  0.008 sec
 * total energy  :   -88.4026379 Eh     change       -0.5848869E-02 Eh
   gradient norm :     0.0444103 Eh/α   predicted    -0.1207865E-01 ( 106.51%)
   displ. norm   :     0.4899645 α      lambda       -0.1131202E-01
   maximum displ.:     0.2188342 α      in ANC's #25, #23, #24, ...

........................................................................
.............................. CYCLE   13 ..............................
........................................................................

 iter      E             dE          RMSdq      gap      omega  full diag
   1    -89.9616751 -0.899617E+02  0.234E-01    1.18       0.0  T
   2    -89.9618006 -0.125494E-03  0.145E-01    1.21       1.0  T
   3    -89.9615117  0.288834E-03  0.873E-02    1.19       1.0  T
   4    -89.9619364 -0.424658E-03  0.180E-02    1.20       1.0  T
   5    -89.9619513 -0.148816E-04  0.655E-03    1.20       2.1  T
   6    -89.9619521 -0.884335E-06  0.310E-03    1.20       4.4  T
   7    -89.9619524 -0.222058E-06  0.134E-03    1.20      10.3  T
   8    -89.9619525 -0.974214E-07  0.383E-04    1.20      35.9  T
   9    -89.9619525 -0.524356E-08  0.179E-04    1.20      76.6  T
     SCC iter.                  ...        0 min,  0.129 sec
     gradient                   ...        0 min,  0.007 sec
 * total energy  :   -88.4070161 Eh     change       -0.4378253E-02 Eh
   gradient norm :     0.0332120 Eh/α   predicted    -0.7013823E-02 (  60.20%)
   displ. norm   :     0.4150599 α      lambda       -0.7256717E-02
   maximum displ.:     0.1457720 α      in ANC's #11, #23, #14, ...

........................................................................
.............................. CYCLE   14 ..............................
........................................................................

 iter      E             dE          RMSdq      gap      omega  full diag
   1    -89.9784463 -0.899784E+02  0.267E-01    1.20       0.0  T
   2    -89.9785811 -0.134854E-03  0.154E-01    1.19       1.0  T
   3    -89.9784387  0.142408E-03  0.734E-02    1.19       1.0  T
   4    -89.9786302 -0.191435E-03  0.158E-02    1.20       1.0  T
   5    -89.9786464 -0.162214E-04  0.567E-03    1.19       2.4  T
   6    -89.9786469 -0.476304E-06  0.303E-03    1.19       4.5  T
   7    -89.9786472 -0.307338E-06  0.111E-03    1.19      12.4  T
   8    -89.9786472 -0.607861E-07  0.390E-04    1.19      35.2  T
   9    -89.9786472 -0.279250E-08  0.207E-04    1.19      66.3  T
     SCC iter.                  ...        0 min,  0.147 sec
     gradient                   ...        0 min,  0.008 sec
 * total energy  :   -88.4070644 Eh     change       -0.4825894E-04 Eh
   gradient norm :     0.0436090 Eh/α   predicted    -0.4253441E-02 (8713.79%)
   displ. norm   :     0.2712936 α      lambda       -0.6382986E-02
   maximum displ.:     0.1005247 α      in ANC's #11, #5, #56, ...

........................................................................
.............................. CYCLE   15 ..............................
........................................................................

 iter      E             dE          RMSdq      gap      omega  full diag
   1    -89.9762346 -0.899762E+02  0.193E-01    1.20       0.0  T
   2    -89.9762663 -0.316934E-04  0.113E-01    1.20       1.0  T
   3    -89.9761595  0.106788E-03  0.487E-02    1.20       1.0  T
   4    -89.9762862 -0.126657E-03  0.742E-03    1.20       1.9  T
   5    -89.9762888 -0.258509E-05  0.338E-03    1.20       4.1  T
   6    -89.9762889 -0.160025E-06  0.160E-03    1.20       8.6  T
   7    -89.9762890 -0.882064E-07  0.565E-04    1.20      24.3  T
   8    -89.9762890 -0.140945E-07  0.216E-04    1.20      63.6  T
     SCC iter.                  ...        0 min,  0.136 sec
     gradient                   ...        0 min,  0.008 sec
 * total energy  :   -88.4097261 Eh     change       -0.2661700E-02 Eh
   gradient norm :     0.0209727 Eh/α   predicted    -0.3426385E-02 (  28.73%)
   displ. norm   :     0.3160041 α      lambda       -0.4112531E-02
   maximum displ.:     0.1164583 α      in ANC's #11, #4, #5, ...

........................................................................
.............................. CYCLE   16 ..............................
........................................................................

 iter      E             dE          RMSdq      gap      omega  full diag
   1    -89.9592072 -0.899592E+02  0.244E-01    1.21       0.0  T
   2    -89.9592938 -0.866673E-04  0.143E-01    1.22       1.0  T
   3    -89.9591450  0.148799E-03  0.655E-02    1.22       1.0  T
   4    -89.9593386 -0.193600E-03  0.115E-02    1.22       1.2  T
   5    -89.9593450 -0.637126E-05  0.475E-03    1.22       2.9  T
   6    -89.9593452 -0.231832E-06  0.215E-03    1.22       6.4  T
   7    -89.9593454 -0.124746E-06  0.812E-04    1.22      16.9  T
   8    -89.9593454 -0.323162E-07  0.296E-04    1.22      46.5  T
     SCC iter.                  ...        0 min,  0.102 sec
     gradient                   ...        0 min,  0.008 sec
 * total energy  :   -88.4083709 Eh     change        0.1355217E-02 Eh
   gradient norm :     0.0423015 Eh/α   predicted    -0.2261613E-02 (-266.88%)
   displ. norm   :     0.1961507 α      lambda       -0.5279566E-02
   maximum displ.:     0.0667555 α      in ANC's #35, #4, #11, ...

........................................................................
.............................. CYCLE   17 ..............................
........................................................................

 iter      E             dE          RMSdq      gap      omega  full diag
   1    -89.9713831 -0.899714E+02  0.173E-01    1.21       0.0  T
   2    -89.9714129 -0.297975E-04  0.100E-01    1.21       1.0  T
   3    -89.9713444  0.685597E-04  0.389E-02    1.21       1.0  T
   4    -89.9714268 -0.823965E-04  0.733E-03    1.21       1.9  T
   5    -89.9714295 -0.275404E-05  0.322E-03    1.21       4.3  T
   6    -89.9714296 -0.116155E-06  0.173E-03    1.21       7.9  T
   7    -89.9714297 -0.123504E-06  0.569E-04    1.21      24.1  T
   8    -89.9714298 -0.163396E-07  0.217E-04    1.21      63.3  T
     SCC iter.                  ...        0 min,  0.108 sec
     gradient                   ...        0 min,  0.008 sec
 * total energy  :   -88.4110575 Eh     change       -0.2686626E-02 Eh
   gradient norm :     0.0106944 Eh/α   predicted    -0.2741350E-02 (   2.04%)
   displ. norm   :     0.2701591 α      lambda       -0.1541066E-02
   maximum displ.:     0.1211227 α      in ANC's #4, #5, #11, ...

........................................................................
.............................. CYCLE   18 ..............................
........................................................................

 iter      E             dE          RMSdq      gap      omega  full diag
   1    -89.9760032 -0.899760E+02  0.157E-01    1.20       0.0  T
   2    -89.9760231 -0.198337E-04  0.928E-02    1.20       1.0  T
   3    -89.9759750  0.480910E-04  0.302E-02    1.20       1.0  T
   4    -89.9760292 -0.542557E-04  0.759E-03    1.20       1.8  T
   5    -89.9760328 -0.360892E-05  0.296E-03    1.20       4.6  T
   6    -89.9760329 -0.116575E-06  0.132E-03    1.20      10.4  T
   7    -89.9760330 -0.765073E-07  0.443E-04    1.20      31.0  T
   8    -89.9760330 -0.809281E-08  0.185E-04    1.20      74.2  T
     SCC iter.                  ...        0 min,  0.107 sec
     gradient                   ...        0 min,  0.008 sec
 * total energy  :   -88.4104641 Eh     change        0.5934184E-03 Eh
   gradient norm :     0.0264680 Eh/α   predicted    -0.8267742E-03 (-239.32%)
   displ. norm   :     0.1761758 α      lambda       -0.2420492E-02
   maximum displ.:     0.0774791 α      in ANC's #4, #5, #11, ...

........................................................................
.............................. CYCLE   19 ..............................
........................................................................

 iter      E             dE          RMSdq      gap      omega  full diag
   1    -89.9744108 -0.899744E+02  0.110E-01    1.21       0.0  T
   2    -89.9744182 -0.743078E-05  0.645E-02    1.21       1.0  T
   3    -89.9744038  0.144196E-04  0.166E-02    1.21       1.0  T
   4    -89.9744205 -0.166790E-04  0.437E-03    1.21       3.1  T
   5    -89.9744213 -0.842151E-06  0.209E-03    1.21       6.6  T
   6    -89.9744214 -0.900371E-07  0.789E-04    1.21      17.4  T
   7    -89.9744215 -0.305878E-07  0.293E-04    1.21      47.0  T
     SCC iter.                  ...        0 min,  0.140 sec
     gradient                   ...        0 min,  0.008 sec
 * total energy  :   -88.4117496 Eh     change       -0.1285560E-02 Eh
   gradient norm :     0.0085018 Eh/α   predicted    -0.1247812E-02 (  -2.94%)
   displ. norm   :     0.2552288 α      lambda       -0.9540836E-03
   maximum displ.:     0.1408010 α      in ANC's #4, #5, #11, ...

........................................................................
.............................. CYCLE   20 ..............................
........................................................................

 iter      E             dE          RMSdq      gap      omega  full diag
   1    -89.9714041 -0.899714E+02  0.123E-01    1.20       0.0  T
   2    -89.9714143 -0.102264E-04  0.737E-02    1.20       1.0  T
   3    -89.9713763  0.380407E-04  0.245E-02    1.20       1.0  T
   4    -89.9714195 -0.431772E-04  0.463E-03    1.20       3.0  T
   5    -89.9714208 -0.136515E-05  0.183E-03    1.20       7.5  T
   6    -89.9714209 -0.572602E-07  0.695E-04    1.20      19.8  T
   7    -89.9714209 -0.165895E-07  0.282E-04    1.20      48.6  T
     SCC iter.                  ...        0 min,  0.124 sec
     gradient                   ...        0 min,  0.009 sec
 * total energy  :   -88.4117142 Eh     change        0.3542930E-04 Eh
   gradient norm :     0.0160142 Eh/α   predicted    -0.5081197E-03 (*******%)
   displ. norm   :     0.2073307 α      lambda       -0.1128997E-02
   maximum displ.:     0.1183965 α      in ANC's #4, #5, #11, ...
 * RMSD in coord.:     1.1165678 α      energy gain  -0.1349720E+01 Eh

generating ANC from model Hessian ...
Using Lindh-Hessian (1995)
 Shifting diagonal of input Hessian by    9.4546269199873422E-003
 Lowest  eigenvalues of input Hessian
    0.000000    0.000000    0.000000    0.000000    0.000000    0.000000
    0.010000    0.010257    0.010445    0.010873    0.011365    0.011748
    0.012455    0.013203    0.014724    0.015060    0.016806    0.018094
 Highest eigenvalues
    2.059617    2.095020    2.125183    2.177262    2.272790    2.297568


........................................................................
.............................. CYCLE   21 ..............................
........................................................................

 iter      E             dE          RMSdq      gap      omega  full diag
   1    -89.9729897 -0.899730E+02  0.845E-02    1.20       0.0  T
   2    -89.9729938 -0.413907E-05  0.503E-02    1.21       1.0  T
   3    -89.9729662  0.275653E-04  0.211E-02    1.20       1.0  T
   4    -89.9729974 -0.311528E-04  0.270E-03    1.21       5.1  T
   5    -89.9729977 -0.289150E-06  0.132E-03    1.21      10.4  T
   6    -89.9729977 -0.489629E-07  0.588E-04    1.21      23.4  T
   7    -89.9729977 -0.237665E-08  0.256E-04    1.21      53.7  T
     SCC iter.                  ...        0 min,  0.121 sec
     gradient                   ...        0 min,  0.007 sec
 * total energy  :   -88.4123337 Eh     change       -0.6194848E-03 Eh
   gradient norm :     0.0088995 Eh/α   predicted     0.0000000E+00 (-100.00%)
   displ. norm   :     0.1338746 α      lambda       -0.3734865E-03
   maximum displ.:     0.1009342 α      in ANC's #3, #2, #4, ...

........................................................................
.............................. CYCLE   22 ..............................
........................................................................

 iter      E             dE          RMSdq      gap      omega  full diag
   1    -89.9750302 -0.899750E+02  0.414E-02    1.21       0.0  T
   2    -89.9750323 -0.212754E-05  0.254E-02    1.21       1.0  T
   3    -89.9750239  0.836439E-05  0.126E-02    1.21       1.1  T
   4    -89.9750340 -0.100806E-04  0.194E-03    1.21       7.1  T
   5    -89.9750343 -0.243442E-06  0.626E-04    1.21      22.0  T
   6    -89.9750343 -0.146458E-07  0.296E-04    1.21      46.3  T
     SCC iter.                  ...        0 min,  0.090 sec
     gradient                   ...        0 min,  0.007 sec
 * total energy  :   -88.4126251 Eh     change       -0.2913758E-03 Eh
   gradient norm :     0.0037587 Eh/α   predicted    -0.1901607E-03 ( -34.74%)
   displ. norm   :     0.2618603 α      lambda       -0.4032756E-03
   maximum displ.:     0.1833153 α      in ANC's #3, #2, #4, ...

........................................................................
.............................. CYCLE   23 ..............................
........................................................................

 iter      E             dE          RMSdq      gap      omega  full diag
   1    -89.9768199 -0.899768E+02  0.688E-02    1.20       0.0  T
   2    -89.9768236 -0.368586E-05  0.415E-02    1.20       1.0  T
   3    -89.9767986  0.249566E-04  0.195E-02    1.20       1.0  T
   4    -89.9768271 -0.285267E-04  0.270E-03    1.20       5.1  T
   5    -89.9768276 -0.430303E-06  0.107E-03    1.20      12.9  T
   6    -89.9768276 -0.451541E-07  0.489E-04    1.20      28.1  T
   7    -89.9768276 -0.386892E-08  0.250E-04    1.20      55.0  T
     SCC iter.                  ...        0 min,  0.094 sec
     gradient                   ...        0 min,  0.008 sec
 * total energy  :   -88.4129446 Eh     change       -0.3195349E-03 Eh
   gradient norm :     0.0042420 Eh/α   predicted    -0.2154644E-03 ( -32.57%)
   displ. norm   :     0.3325791 α      lambda       -0.3723195E-03
   maximum displ.:     0.2205978 α      in ANC's #3, #2, #4, ...

........................................................................
.............................. CYCLE   24 ..............................
........................................................................

 iter      E             dE          RMSdq      gap      omega  full diag
   1    -89.9770402 -0.899770E+02  0.836E-02    1.20       0.0  T
   2    -89.9770425 -0.234504E-05  0.494E-02    1.20       1.0  T
   3    -89.9770221  0.204732E-04  0.165E-02    1.20       1.0  T
   4    -89.9770446 -0.225706E-04  0.235E-03    1.20       5.8  T
   5    -89.9770449 -0.256119E-06  0.110E-03    1.20      12.4  T
   6    -89.9770449 -0.337249E-07  0.530E-04    1.20      25.9  T
   7    -89.9770449 -0.595675E-08  0.232E-04    1.20      59.3  T
     SCC iter.                  ...        0 min,  0.105 sec
     gradient                   ...        0 min,  0.008 sec
 * total energy  :   -88.4132710 Eh     change       -0.3264528E-03 Eh
   gradient norm :     0.0072107 Eh/α   predicted    -0.2067506E-03 ( -36.67%)
   displ. norm   :     0.4387296 α      lambda       -0.4656145E-03
   maximum displ.:     0.2822289 α      in ANC's #3, #2, #4, ...

........................................................................
.............................. CYCLE   25 ..............................
........................................................................

 iter      E             dE          RMSdq      gap      omega  full diag
   1    -89.9760093 -0.899760E+02  0.110E-01    1.19       0.0  T
   2    -89.9760116 -0.236826E-05  0.647E-02    1.20       1.0  T
   3    -89.9759963  0.153749E-04  0.142E-02    1.20       1.0  T
   4    -89.9760132 -0.169245E-04  0.278E-03    1.20       4.9  T
   5    -89.9760135 -0.322752E-06  0.132E-03    1.20      10.4  T
   6    -89.9760135 -0.273564E-07  0.554E-04    1.20      24.8  T
   7    -89.9760135 -0.103041E-07  0.215E-04    1.20      64.0  T
     SCC iter.                  ...        0 min,  0.145 sec
     gradient                   ...        0 min,  0.007 sec
 * total energy  :   -88.4136812 Eh     change       -0.4101360E-03 Eh
   gradient norm :     0.0075580 Eh/α   predicted    -0.2776209E-03 ( -32.31%)
   displ. norm   :     0.5192081 α      lambda       -0.4935741E-03
   maximum displ.:     0.3368932 α      in ANC's #3, #2, #4, ...

........................................................................
.............................. CYCLE   26 ..............................
........................................................................

 iter      E             dE          RMSdq      gap      omega  full diag
   1    -89.9747037 -0.899747E+02  0.131E-01    1.19       0.0  T
   2    -89.9747073 -0.362642E-05  0.765E-02    1.20       1.0  T
   3    -89.9746837  0.236419E-04  0.186E-02    1.19       1.0  T
   4    -89.9747099 -0.262114E-04  0.326E-03    1.20       4.2  T
   5    -89.9747103 -0.398795E-06  0.166E-03    1.20       8.3  T
   6    -89.9747103 -0.583546E-07  0.703E-04    1.20      19.5  T
   7    -89.9747103 -0.174445E-07  0.250E-04    1.20      55.0  T
     SCC iter.                  ...        0 min,  0.106 sec
     gradient                   ...        0 min,  0.008 sec
 * total energy  :   -88.4140883 Eh     change       -0.4071188E-03 Eh
   gradient norm :     0.0054275 Eh/α   predicted    -0.3133160E-03 ( -23.04%)
   displ. norm   :     0.4807469 α      lambda       -0.3398828E-03
   maximum displ.:     0.3195493 α      in ANC's #3, #2, #4, ...

........................................................................
.............................. CYCLE   27 ..............................
........................................................................

 iter      E             dE          RMSdq      gap      omega  full diag
   1    -89.9745525 -0.899746E+02  0.120E-01    1.19       0.0  T
   2    -89.9745559 -0.340007E-05  0.703E-02    1.20       1.0  T
   3    -89.9745297  0.261267E-04  0.197E-02    1.20       1.0  T
   4    -89.9745587 -0.289623E-04  0.289E-03    1.20       4.7  T
   5    -89.9745590 -0.282762E-06  0.154E-03    1.20       8.9  T
   6    -89.9745590 -0.646612E-07  0.674E-04    1.20      20.4  T
   7    -89.9745591 -0.118869E-07  0.261E-04    1.20      52.6  T
     SCC iter.                  ...        0 min,  0.092 sec
     gradient                   ...        0 min,  0.008 sec
 * total energy  :   -88.4143535 Eh     change       -0.2651708E-03 Eh
   gradient norm :     0.0035090 Eh/α   predicted    -0.2092180E-03 ( -21.10%)
   displ. norm   :     0.3624292 α      lambda       -0.1818080E-03
   maximum displ.:     0.2470020 α      in ANC's #3, #2, #4, ...

........................................................................
.............................. CYCLE   28 ..............................
........................................................................

 iter      E             dE          RMSdq      gap      omega  full diag
   1    -89.9758389 -0.899758E+02  0.896E-02    1.20       0.0  T
   2    -89.9758405 -0.156134E-05  0.525E-02    1.20       1.0  T
   3    -89.9758289  0.115477E-04  0.130E-02    1.20       1.1  T
   4    -89.9758417 -0.127853E-04  0.194E-03    1.20       7.1  T
   5    -89.9758418 -0.117382E-06  0.105E-03    1.20      13.1  T
   6    -89.9758419 -0.310158E-07  0.459E-04    1.20      29.9  T
   7    -89.9758419 -0.503697E-08  0.173E-04    1.20      79.4  T
     SCC iter.                  ...        0 min,  0.094 sec
     gradient                   ...        0 min,  0.008 sec
 * total energy  :   -88.4144973 Eh     change       -0.1438664E-03 Eh
   gradient norm :     0.0029470 Eh/α   predicted    -0.1028491E-03 ( -28.51%)
   displ. norm   :     0.2774261 α      lambda       -0.1123764E-03
   maximum displ.:     0.1927471 α      in ANC's #3, #2, #4, ...

........................................................................
.............................. CYCLE   29 ..............................
........................................................................

 iter      E             dE          RMSdq      gap      omega  full diag
   1    -89.9775357 -0.899775E+02  0.690E-02    1.20       0.0  T
   2    -89.9775364 -0.746407E-06  0.405E-02    1.20       1.0  T
   3    -89.9775320  0.439674E-05  0.788E-03    1.20       1.7  T
   4    -89.9775369 -0.488447E-05  0.142E-03    1.20       9.7  T
   5    -89.9775370 -0.787099E-07  0.708E-04    1.20      19.4  T
   6    -89.9775370 -0.104160E-07  0.312E-04    1.20      44.0  T
     SCC iter.                  ...        0 min,  0.080 sec
     gradient                   ...        0 min,  0.007 sec
 * total energy  :   -88.4145883 Eh     change       -0.9099009E-04 Eh
   gradient norm :     0.0024839 Eh/α   predicted    -0.6051973E-04 ( -33.49%)
   displ. norm   :     0.2361223 α      lambda       -0.7931949E-04
   maximum displ.:     0.1658999 α      in ANC's #3, #2, #4, ...

........................................................................
.............................. CYCLE   30 ..............................
........................................................................

 iter      E             dE          RMSdq      gap      omega  full diag
   1    -89.9786798 -0.899787E+02  0.598E-02    1.20       0.0  T
   2    -89.9786803 -0.541032E-06  0.351E-02    1.20       1.0  T
   3    -89.9786776  0.268010E-05  0.613E-03    1.20       2.2  T
   4    -89.9786806 -0.299839E-05  0.118E-03    1.20      11.6  T
   5    -89.9786807 -0.632097E-07  0.556E-04    1.20      24.7  T
   6    -89.9786807 -0.467385E-08  0.254E-04    1.20      54.1  T
     SCC iter.                  ...        0 min,  0.076 sec
     gradient                   ...        0 min,  0.008 sec
 * total energy  :   -88.4146519 Eh     change       -0.6358131E-04 Eh
   gradient norm :     0.0018006 Eh/α   predicted    -0.4187217E-04 ( -34.14%)
   displ. norm   :     0.2960623 α      lambda       -0.5273007E-04
   maximum displ.:     0.2084167 α      in ANC's #3, #2, #4, ...

........................................................................
.............................. CYCLE   31 ..............................
........................................................................

 iter      E             dE          RMSdq      gap      omega  full diag
   1    -89.9793571 -0.899794E+02  0.759E-02    1.20       0.0  T
   2    -89.9793578 -0.744651E-06  0.446E-02    1.20       1.0  T
   3    -89.9793547  0.317314E-05  0.663E-03    1.20       2.1  T
   4    -89.9793583 -0.360998E-05  0.128E-03    1.20      10.7  T
   5    -89.9793583 -0.638463E-07  0.640E-04    1.20      21.5  T
   6    -89.9793583 -0.634050E-08  0.282E-04    1.20      48.6  T
     SCC iter.                  ...        0 min,  0.081 sec
     gradient                   ...        0 min,  0.007 sec
 * total energy  :   -88.4147069 Eh     change       -0.5501506E-04 Eh
   gradient norm :     0.0014398 Eh/α   predicted    -0.2739708E-04 ( -50.20%)
   displ. norm   :     0.1535626 α      lambda       -0.2075842E-04
   maximum displ.:     0.1042746 α      in ANC's #3, #2, #5, ...

........................................................................
.............................. CYCLE   32 ..............................
........................................................................

 iter      E             dE          RMSdq      gap      omega  full diag
   1    -89.9792898 -0.899793E+02  0.389E-02    1.20       0.0  T
   2    -89.9792899 -0.156398E-06  0.228E-02    1.20       1.0  T
   3    -89.9792890  0.941670E-06  0.346E-03    1.20       4.0  T
   4    -89.9792901 -0.106911E-05  0.552E-04    1.20      24.9  T
   5    -89.9792901 -0.819585E-08  0.298E-04    1.20      46.1  T
   6    -89.9792901 -0.118067E-08  0.131E-04    1.20     104.7  T
     SCC iter.                  ...        0 min,  0.108 sec
     gradient                   ...        0 min,  0.008 sec
 * total energy  :   -88.4147321 Eh     change       -0.2516185E-04 Eh
   gradient norm :     0.0010253 Eh/α   predicted    -0.1049233E-04 ( -58.30%)
   displ. norm   :     0.1668944 α      lambda       -0.2095919E-04
   maximum displ.:     0.1027999 α      in ANC's #3, #2, #1, ...

........................................................................
.............................. CYCLE   33 ..............................
........................................................................

 iter      E             dE          RMSdq      gap      omega  full diag
   1    -89.9791282 -0.899791E+02  0.412E-02    1.21       0.0  T
   2    -89.9791284 -0.187175E-06  0.242E-02    1.20       1.0  T
   3    -89.9791272  0.125954E-05  0.405E-03    1.21       3.4  T
   4    -89.9791286 -0.141532E-05  0.617E-04    1.21      22.3  T
   5    -89.9791286 -0.146743E-07  0.308E-04    1.21      44.6  T
   6    -89.9791286 -0.110597E-08  0.154E-04    1.21      88.9  T
     SCC iter.                  ...        0 min,  0.080 sec
     gradient                   ...        0 min,  0.008 sec
 * total energy  :   -88.4147558 Eh     change       -0.2374316E-04 Eh
   gradient norm :     0.0007066 Eh/α   predicted    -0.1061051E-04 ( -55.31%)
   displ. norm   :     0.1296592 α      lambda       -0.1241454E-04
   maximum displ.:     0.0689472 α      in ANC's #3, #1, #2, ...

........................................................................
.............................. CYCLE   34 ..............................
........................................................................

 iter      E             dE          RMSdq      gap      omega  full diag
   1    -89.9789180 -0.899789E+02  0.309E-02    1.21       0.0  T
   2    -89.9789181 -0.909850E-07  0.181E-02    1.21       1.0  T
   3    -89.9789176  0.495268E-06  0.259E-03    1.21       5.3  T
   4    -89.9789182 -0.565413E-06  0.405E-04    1.21      33.9  T
   5    -89.9789182 -0.483470E-08  0.222E-04    1.21      62.0  T
     SCC iter.                  ...        0 min,  0.066 sec
     gradient                   ...        0 min,  0.008 sec
 * total energy  :   -88.4147695 Eh     change       -0.1363188E-04 Eh
   gradient norm :     0.0006924 Eh/α   predicted    -0.6254425E-05 ( -54.12%)
   displ. norm   :     0.0558837 α      lambda       -0.5722110E-05
   maximum displ.:     0.0454136 α      in ANC's #1, #5, #4, ...

........................................................................
.............................. CYCLE   35 ..............................
........................................................................

 iter      E             dE          RMSdq      gap      omega  full diag
   1    -89.9790792 -0.899791E+02  0.125E-02    1.21       0.0  T
   2    -89.9790792 -0.186692E-07  0.736E-03    1.21       1.9  T
   3    -89.9790791  0.739202E-07  0.110E-03    1.21      12.5  T
   4    -89.9790792 -0.857962E-07  0.156E-04    1.21      87.9  T
   5    -89.9790792 -0.735625E-09  0.881E-05    1.21     155.9  T
     SCC iter.                  ...        0 min,  0.088 sec
     gradient                   ...        0 min,  0.008 sec
 * total energy  :   -88.4147768 Eh     change       -0.7303671E-05 Eh
   gradient norm :     0.0005599 Eh/α   predicted    -0.2866853E-05 ( -60.75%)
   displ. norm   :     0.0467553 α      lambda       -0.4836298E-05
   maximum displ.:     0.0346091 α      in ANC's #1, #4, #3, ...

........................................................................
.............................. CYCLE   36 ..............................
........................................................................

 iter      E             dE          RMSdq      gap      omega  full diag
   1    -89.9789932 -0.899790E+02  0.110E-02    1.21       0.0  T
   2    -89.9789932 -0.244586E-07  0.646E-03    1.21       2.1  T
   3    -89.9789931  0.127391E-06  0.135E-03    1.21      10.2  T
   4    -89.9789932 -0.139192E-06  0.272E-04    1.21      50.5  T
   5    -89.9789932 -0.505845E-08  0.854E-05    1.21     160.8  T
     SCC iter.                  ...        0 min,  0.142 sec
     gradient                   ...        0 min,  0.009 sec
 * total energy  :   -88.4147830 Eh     change       -0.6230113E-05 Eh
   gradient norm :     0.0004100 Eh/α   predicted    -0.2424279E-05 ( -61.09%)
   displ. norm   :     0.0548810 α      lambda       -0.4540684E-05
   maximum displ.:     0.0344414 α      in ANC's #1, #3, #4, ...

........................................................................
.............................. CYCLE   37 ..............................
........................................................................

 iter      E             dE          RMSdq      gap      omega  full diag
   1    -89.9788707 -0.899789E+02  0.124E-02    1.21       0.0  T
   2    -89.9788707 -0.238258E-07  0.729E-03    1.21       1.9  T
   3    -89.9788706  0.162608E-06  0.149E-03    1.21       9.2  T
   4    -89.9788707 -0.180755E-06  0.215E-04    1.21      64.0  T
   5    -89.9788707 -0.239511E-08  0.822E-05    1.21     167.1  T
     SCC iter.                  ...        0 min,  0.118 sec
     gradient                   ...        0 min,  0.008 sec
 * total energy  :   -88.4147887 Eh     change       -0.5729974E-05 Eh
   gradient norm :     0.0004016 Eh/α   predicted    -0.2275559E-05 ( -60.29%)
   displ. norm   :     0.0439423 α      lambda       -0.3572929E-05
   maximum displ.:     0.0323314 α      in ANC's #1, #4, #2, ...

........................................................................
.............................. CYCLE   38 ..............................
........................................................................

 iter      E             dE          RMSdq      gap      omega  full diag
   1    -89.9789007 -0.899789E+02  0.891E-03    1.21       0.0  T
   2    -89.9789007 -0.132502E-07  0.525E-03    1.21       2.6  T
   3    -89.9789006  0.106176E-06  0.117E-03    1.21      11.7  T
   4    -89.9789008 -0.117006E-06  0.188E-04    1.21      73.2  T
   5    -89.9789008 -0.175902E-08  0.726E-05    1.21     189.1  T
     SCC iter.                  ...        0 min,  0.123 sec
     gradient                   ...        0 min,  0.013 sec
 * total energy  :   -88.4147935 Eh     change       -0.4769086E-05 Eh
   gradient norm :     0.0004082 Eh/α   predicted    -0.1791572E-05 ( -62.43%)
   displ. norm   :     0.0393506 α      lambda       -0.3475159E-05
   maximum displ.:     0.0325137 α      in ANC's #1, #5, #4, ...

   *** GEOMETRY OPTIMIZATION CONVERGED AFTER 38 ITERATIONS ***

------------------------------------------------------------------------
 total energy gain   :        -1.3527996 Eh     -848.8946 kcal/mol
 total RMSD          :         1.3201724 a0        0.6986 Å
 total power (kW/mol):       -93.4677609 (step) -669.4770 (real)
------------------------------------------------------------------------

 ANCopt (total)                0 d,  0 h,  0 min,  5.305 sec
 optimizer setup                ...        0 min,  0.000 sec (  0.008%)
 model hessian                  ...        0 min,  0.023 sec (  0.440%)
 ANC generation                 ...        0 min,  0.013 sec (  0.245%)
 coordinate transformation      ...        0 min,  0.000 sec (  0.008%)
 single point calculation       ...        0 min,  5.255 sec ( 99.051%)
 optimization log               ...        0 min,  0.004 sec (  0.077%)
 hessian update                 ...        0 min,  0.002 sec (  0.037%)
 rational function              ...        0 min,  0.006 sec (  0.107%)

================
 final structure:
================
 xtb: 6.6.1 (8d0f1dd)
          11012414003D

 53 60  0     0  0            999 V2000
    0.7169    1.8056   -0.7414 C   0  0  0  0  0  0  0  0  0  0  0  0
    1.1887    1.0399    0.3778 C   0  0  0  0  0  0  0  0  0  0  0  0
   -0.6593    1.8963   -1.1151 C   0  0  0  0  0  0  0  0  0  0  0  0
    1.6553    2.5535   -1.4754 C   0  0  0  0  0  0  0  0  0  0  0  0
    2.5702    0.7444    0.4741 C   0  0  0  0  0  0  0  0  0  0  0  0
   -1.0919    3.0293   -1.8537 C   0  0  0  0  0  0  0  0  0  0  0  0
    3.0396    2.2798   -1.3233 C   0  0  0  0  0  0  0  0  0  0  0  0
    1.2050    3.5807   -2.3436 C   0  0  0  0  0  0  0  0  0  0  0  0
    3.4741    1.3445   -0.4415 C   0  0  0  0  0  0  0  0  0  0  0  0
   -0.1164    3.8743   -2.4448 C   0  0  0  0  0  0  0  0  0  0  0  0
    0.3576    0.6548    1.4463 C   0  0  0  0  0  0  0  0  0  0  0  0
   -1.6283    0.8931   -0.8342 C   0  0  0  0  0  0  0  0  0  0  0  0
    3.0254   -0.0867    1.5116 C   0  0  0  0  0  0  0  0  0  0  0  0
   -2.4647    3.2692   -2.0183 C   0  0  0  0  0  0  0  0  0  0  0  0
    0.8317   -0.1253    2.4683 C   0  0  0  0  0  0  0  0  0  0  0  0
   -2.9926    1.1950   -0.9454 C   0  0  0  0  0  0  0  0  0  0  0  0
    2.1662   -0.5419    2.4760 C   0  0  0  0  0  0  0  0  0  0  0  0
   -3.4015    2.4037   -1.5034 C   0  0  0  0  0  0  0  0  0  0  0  0
    3.7371    2.8181   -1.9492 H   0  0  0  0  0  0  0  0  0  0  0  0
    1.9433    4.1646   -2.8744 H   0  0  0  0  0  0  0  0  0  0  0  0
    4.5214    1.0890   -0.3717 H   0  0  0  0  0  0  0  0  0  0  0  0
   -0.4557    4.7230   -3.0204 H   0  0  0  0  0  0  0  0  0  0  0  0
    4.0735   -0.3476    1.5441 H   0  0  0  0  0  0  0  0  0  0  0  0
   -2.7822    4.1509   -2.5532 H   0  0  0  0  0  0  0  0  0  0  0  0
    2.5198   -1.1890    3.2646 H   0  0  0  0  0  0  0  0  0  0  0  0
   -4.4587    2.5991   -1.5809 H   0  0  0  0  0  0  0  0  0  0  0  0
   -3.9797    0.3296   -0.5503 O   0  0  0  0  0  0  0  0  0  0  0  0
   -3.5874   -0.8637   -0.0023 C   0  0  0  0  0  0  0  0  0  0  0  0
   -2.2554   -1.2586   -0.0494 C   0  0  0  0  0  0  0  0  0  0  0  0
   -1.2880   -0.4180   -0.5690 N   0  0  0  0  0  0  0  0  0  0  0  0
   -1.8283   -2.5097    0.4539 C   0  0  0  0  0  0  0  0  0  0  0  0
   -4.5230   -1.7035    0.5790 C   0  0  0  0  0  0  0  0  0  0  0  0
   -4.1103   -2.9267    1.0981 C   0  0  0  0  0  0  0  0  0  0  0  0
   -2.7948   -3.3359    1.0399 C   0  0  0  0  0  0  0  0  0  0  0  0
   -0.5297   -2.8790    0.3544 N   0  0  0  0  0  0  0  0  0  0  0  0
    0.2643   -2.0611   -0.3277 C   0  0  0  0  0  0  0  0  0  0  0  0
   -0.0547   -0.8649   -0.7969 N   0  0  0  0  0  0  0  0  0  0  0  0
    0.1741   -0.4190    3.2736 H   0  0  0  0  0  0  0  0  0  0  0  0
   -0.6668    1.0005    1.4728 H   0  0  0  0  0  0  0  0  0  0  0  0
    1.6542   -2.4651   -0.5521 C   0  0  0  0  0  0  0  0  0  0  0  0
    2.1882   -3.5381    0.1560 C   0  0  0  0  0  0  0  0  0  0  0  0
    3.5115   -3.8934   -0.0205 C   0  0  0  0  0  0  0  0  0  0  0  0
    4.3100   -3.1866   -0.9057 C   0  0  0  0  0  0  0  0  0  0  0  0
    3.7794   -2.1237   -1.6196 C   0  0  0  0  0  0  0  0  0  0  0  0
    2.4581   -1.7612   -1.4460 C   0  0  0  0  0  0  0  0  0  0  0  0
    2.0331   -0.9355   -1.9943 H   0  0  0  0  0  0  0  0  0  0  0  0
    4.4000   -1.5751   -2.3134 H   0  0  0  0  0  0  0  0  0  0  0  0
    5.3450   -3.4660   -1.0414 H   0  0  0  0  0  0  0  0  0  0  0  0
    3.9253   -4.7237    0.5331 H   0  0  0  0  0  0  0  0  0  0  0  0
    1.5502   -4.0725    0.8419 H   0  0  0  0  0  0  0  0  0  0  0  0
   -2.4836   -4.2915    1.4278 H   0  0  0  0  0  0  0  0  0  0  0  0
   -4.8471   -3.5719    1.5520 H   0  0  0  0  0  0  0  0  0  0  0  0
   -5.5549   -1.3964    0.6166 H   0  0  0  0  0  0  0  0  0  0  0  0
  1  2  1  0  0  0  0
  1  3  1  0  0  0  0
  1  4  2  0  0  0  0
  2  5  1  0  0  0  0
  2 11  2  0  0  0  0
  3  6  1  0  0  0  0
  3 12  2  0  0  0  0
  4  7  1  0  0  0  0
  4  8  1  0  0  0  0
  5  9  1  0  0  0  0
  5 13  2  0  0  0  0
  6 10  1  0  0  0  0
  6 14  2  0  0  0  0
  7  9  2  0  0  0  0
  7 19  1  0  0  0  0
  8 10  2  0  0  0  0
  8 20  1  0  0  0  0
  9 21  1  0  0  0  0
 10 22  1  0  0  0  0
 11 15  1  0  0  0  0
 12 16  1  0  0  0  0
 13 17  1  0  0  0  0
 13 23  1  0  0  0  0
 14 18  1  0  0  0  0
 14 24  1  0  0  0  0
 15 17  2  0  0  0  0
 16 18  2  0  0  0  0
 17 25  1  0  0  0  0
 18 26  1  0  0  0  0
 27 28  1  0  0  0  0
 28 29  2  0  0  0  0
 29 30  1  0  0  0  0
 30 12  1  0  0  0  0
 29 31  1  0  0  0  0
 28 32  1  0  0  0  0
 32 33  2  0  0  0  0
 33 34  1  0  0  0  0
 34 31  2  0  0  0  0
 16 27  1  0  0  0  0
 31 35  1  0  0  0  0
 35 36  1  0  0  0  0
 36 37  2  0  0  0  0
 37 30  1  0  0  0  0
 15 38  1  0  0  0  0
 11 39  1  0  0  0  0
 36 40  1  0  0  0  0
 40 41  2  0  0  0  0
 41 42  1  0  0  0  0
 42 43  2  0  0  0  0
 43 44  1  0  0  0  0
 44 45  2  0  0  0  0
 45 40  1  0  0  0  0
 45 46  1  0  0  0  0
 44 47  1  0  0  0  0
 43 48  1  0  0  0  0
 42 49  1  0  0  0  0
 41 50  1  0  0  0  0
 34 51  1  0  0  0  0
 33 52  1  0  0  0  0
 32 53  1  0  0  0  0
M  END

 Bond Distances (Angstroems)
 ---------------------------
C1-C2=1.4358         C1-C3=1.4289         C1-C4=1.4067         C2-C1=1.4358         C2-C5=1.4159         C2-C11=1.4075        
C3-C1=1.4289         C3-C6=1.4200         C3-C12=1.4228        C4-C1=1.4067         C4-C7=1.4192         C4-C8=1.4183         
C5-C2=1.4159         C5-C9=1.4197         C5-C13=1.4051        C6-C3=1.4200         C6-C10=1.4195        C6-C14=1.4034        
C7-C4=1.4192         C7-C9=1.3568         C7-H19=1.0808        C8-C4=1.4183         C8-C10=1.3574        C8-H20=1.0807        
C9-C5=1.4197         C9-C7=1.3568         C9-H21=1.0803        C10-C6=1.4195        C10-C8=1.3574        C10-H22=1.0801       
C11-C2=1.4075        C11-C15=1.3703       C11-H39=1.0815       C12-C3=1.4228        C12-C16=1.4016       C12-N30=1.3803       
C13-C5=1.4051        C13-C17=1.3695       C13-H23=1.0806       C14-C6=1.4034        C14-C18=1.3754       C14-H24=1.0790       
C15-C11=1.3703       C15-C17=1.3980       C15-H38=1.0804       C16-C12=1.4016       C16-C18=1.3927       C16-O27=1.3709       
C17-C13=1.3695       C17-C15=1.3980       C17-H25=1.0797       C18-C14=1.3754       C18-C16=1.3927       C18-H26=1.0778       
H19-C7=1.0808        H20-C8=1.0807        H21-C9=1.0803        H22-C10=1.0801       H23-C13=1.0806       H24-C14=1.0790       
H25-C17=1.0797       H26-C18=1.0778       O27-C16=1.3709       O27-C28=1.3704       C28-O27=1.3704       C28-C29=1.3901       
C28-C32=1.3851       C29-C28=1.3901       C29-N30=1.3830       C29-C31=1.4145       N30-C12=1.3803       N30-C29=1.3830       
N30-N37=1.3314       C31-C29=1.4145       C31-C34=1.4001       C31-N35=1.3538       C32-C28=1.3851       C32-C33=1.3913       
C32-H53=1.0773       C33-C32=1.3913       C33-C34=1.3789       C33-H52=1.0795       C34-C31=1.4001       C34-C33=1.3789       
C34-H51=1.0772       N35-C31=1.3538       N35-C36=1.3284       C36-N35=1.3284       C36-N37=1.3239       C36-C40=1.4647       
N37-N30=1.3314       N37-C36=1.3239       H38-C15=1.0804       H39-C11=1.0815       C40-C36=1.4647       C40-C41=1.3921       
C40-C45=1.3931       C41-C40=1.3921       C41-C42=1.3815       C41-H50=1.0785       C42-C41=1.3815       C42-C43=1.3858       
C42-H49=1.0804       C43-C42=1.3858       C43-C44=1.3860       C43-H48=1.0806       C44-C43=1.3860       C44-C45=1.3811       
C44-H47=1.0804       C45-C40=1.3931       C45-C44=1.3811       C45-H46=1.0785       H46-C45=1.0785       H47-C44=1.0804       
H48-C43=1.0806       H49-C42=1.0804       H50-C41=1.0785       H51-C34=1.0772       H52-C33=1.0795       H53-C32=1.0773       
 C  H  Rav=1.0796 sigma=0.0012  Rmin=1.0772  Rmax=1.0815    18
 C  C  Rav=1.3997 sigma=0.0227  Rmin=1.3568  Rmax=1.4647    34
 N  C  Rav=1.3539 sigma=0.0249  Rmin=1.3239  Rmax=1.3830     5
 N  N  Rav=1.3314 sigma=0.0000  Rmin=1.3314  Rmax=1.3314     1
 O  C  Rav=1.3706 sigma=0.0003  Rmin=1.3704  Rmax=1.3709     2

 selected bond angles (degree)
 --------------------
C3-C1-C2=123.65                C4-C1-C2=118.10                C4-C1-C3=118.18                C5-C2-C1=119.00                
C11-C2-C1=122.93               C11-C2-C5=117.87               C6-C3-C1=118.69                C12-C3-C1=124.03               
C12-C3-C6=117.24               C7-C4-C1=119.48                C8-C4-C1=119.51                C8-C4-C7=121.00                
C9-C5-C2=119.28                C13-C5-C2=119.32               C13-C5-C9=121.33               C10-C6-C3=118.83               
C14-C6-C3=119.70               C14-C6-C10=121.45              C9-C7-C4=120.99                H19-C7-C4=118.12               
H19-C7-C9=120.86               C10-C8-C4=120.76               H20-C8-C4=118.36               H20-C8-C10=120.76              
C7-C9-C5=120.44                H21-C9-C5=118.40               H21-C9-C7=121.03               C8-C10-C6=120.61               
H22-C10-C6=118.28              H22-C10-C8=121.03              

 selected dihedral angles (degree)
 ---------------------------------
C5-C2-C1-C3=164.62            C5-C2-C1-C4=341.79            C11-C2-C1-C3=339.44           C11-C2-C1-C4=156.60           
C6-C3-C1-C2=155.61            C6-C3-C1-C4=338.44            C12-C3-C1-C2=333.29           C12-C3-C1-C4=156.12           
C7-C4-C1-C2= 15.82            C7-C4-C1-C3=193.14            C8-C4-C1-C2=196.60            C8-C4-C1-C3= 13.92            
C9-C5-C2-C1=  7.62            C9-C5-C2-C11=192.55           C13-C5-C2-C1=184.67           C13-C5-C2-C11=  9.60          
C10-C6-C3-C1= 13.69           C10-C6-C3-C12=195.86          C14-C6-C3-C1=191.81           C14-C6-C3-C12= 13.98          
C9-C7-C4-C1=357.35            C9-C7-C4-C8=176.56            H19-C7-C4-C1=175.70           H19-C7-C4-C8=354.91           
C10-C8-C4-C1=  1.88           C10-C8-C4-C7=182.67           H20-C8-C4-C1=178.07           H20-C8-C4-C7=358.86           
C7-C9-C5-C2=  5.75            C7-C9-C5-C13=188.76           H21-C9-C5-C2=181.59           H21-C9-C5-C13=  4.60          
C5-C9-C7-C4=351.63            C5-C9-C7-H19=173.33           H21-C9-C7-C4=175.90           H21-C9-C7-H19=357.59          
C8-C10-C6-C3=  2.15           C8-C10-C6-C14=184.06          H22-C10-C6-C3=178.85          H22-C10-C6-C14=  0.77         
C6-C10-C8-C4=349.91           C6-C10-C8-H20=173.81          H22-C10-C8-C4=173.30          H22-C10-C8-H20=357.20         
           -------------------------------------------------
          |                Final Singlepoint                |
           -------------------------------------------------

          ...................................................
          :                      SETUP                      :
          :.................................................:
          :  # basis functions                 158          :
          :  # atomic orbitals                 158          :
          :  # shells                           88          :
          :  # electrons                       163          :
          :  max. iterations                   250          :
          :  Hamiltonian                  GFN2-xTB          :
          :  restarted?                      false          :
          :  GBSA solvation                  false          :
          :  PC potential                    false          :
          :  electronic temp.          300.0000000     K    :
          :  accuracy                    1.0000000          :
          :  -> integral cutoff          0.2500000E+02      :
          :  -> integral neglect         0.1000000E-07      :
          :  -> SCF convergence          0.1000000E-05 Eh   :
          :  -> wf. convergence          0.1000000E-03 e    :
          :  Broyden damping             0.4000000          :
          ...................................................

 iter      E             dE          RMSdq      gap      omega  full diag
   1    -89.9789008 -0.899789E+02  0.425E-05    1.21       0.0  T
   2    -89.9789008 -0.376588E-11  0.330E-05    1.21     416.6  T
   3    -89.9789008 -0.594014E-10  0.152E-05    1.21     906.3  T

   *** convergence criteria satisfied after 3 iterations ***

         #    Occupation            Energy/Eh            Energy/eV
      -------------------------------------------------------------
         1        2.0000           -0.7445561             -20.2604
       ...           ...                  ...                  ...
        76        2.0000           -0.4009754             -10.9111
        77        2.0000           -0.3940382             -10.7223
        78        2.0000           -0.3864393             -10.5155
        79        2.0000           -0.3772748             -10.2662
        80        2.0000           -0.3713460             -10.1048
        81        2.0000           -0.3601365              -9.7998
        82        1.0000           -0.3173336              -8.6351 (HOMO)
        83                         -0.2730110              -7.4290 (LUMO)
        84                         -0.2647207              -7.2034
        85                         -0.2589772              -7.0471
        86                         -0.2377946              -6.4707
        87                         -0.2254139              -6.1338
       ...                                ...                  ...
       158                          0.7110479              19.3486
      -------------------------------------------------------------
                  HL-Gap            0.0443226 Eh            1.2061 eV
             Fermi-level           -0.3169538 Eh           -8.6248 eV

 SCC (total)                   0 d,  0 h,  0 min,  0.074 sec
 SCC setup                      ...        0 min,  0.000 sec (  0.169%)
 Dispersion                     ...        0 min,  0.000 sec (  0.412%)
 classical contributions        ...        0 min,  0.000 sec (  0.106%)
 integral evaluation            ...        0 min,  0.002 sec (  2.682%)
 iterations                     ...        0 min,  0.062 sec ( 83.603%)
 molecular gradient             ...        0 min,  0.008 sec ( 10.231%)
 printout                       ...        0 min,  0.002 sec (  2.782%)

         :::::::::::::::::::::::::::::::::::::::::::::::::::::
         ::                     SUMMARY                     ::
         :::::::::::::::::::::::::::::::::::::::::::::::::::::
         :: total energy             -88.414793489536 Eh    ::
         :: gradient norm              0.000408028607 Eh/a0 ::
         :: HOMO-LUMO gap              1.206078644625 eV    ::
         ::.................................................::
         :: SCC energy               -89.978900755839 Eh    ::
         :: -> isotropic ES            0.033663373690 Eh    ::
         :: -> anisotropic ES          0.008195727155 Eh    ::
         :: -> anisotropic XC          0.050765279370 Eh    ::
         :: -> dispersion             -0.086715956176 Eh    ::
         :: repulsion energy           1.562041119214 Eh    ::
         :: add. restraining           0.000000000000 Eh    ::
         :: total charge              -0.000000000000 e     ::
         :::::::::::::::::::::::::::::::::::::::::::::::::::::

           -------------------------------------------------
          |                Property Printout                |
           -------------------------------------------------

    * Orbital Energies and Occupations

         #    Occupation            Energy/Eh            Energy/eV
      -------------------------------------------------------------
         1        2.0000           -0.7445561             -20.2604
       ...           ...                  ...                  ...
        70        2.0000           -0.4200623             -11.4305
        71        2.0000           -0.4176621             -11.3652
        72        2.0000           -0.4161016             -11.3227
        73        2.0000           -0.4145777             -11.2812
        74        2.0000           -0.4069277             -11.0731
        75        2.0000           -0.4037528             -10.9867
        76        2.0000           -0.4009754             -10.9111
        77        2.0000           -0.3940382             -10.7223
        78        2.0000           -0.3864393             -10.5155
        79        2.0000           -0.3772748             -10.2662
        80        2.0000           -0.3713460             -10.1048
        81        2.0000           -0.3601365              -9.7998
        82        1.0000           -0.3173336              -8.6351 (HOMO)
        83                         -0.2730110              -7.4290 (LUMO)
        84                         -0.2647207              -7.2034
        85                         -0.2589772              -7.0471
        86                         -0.2377946              -6.4707
        87                         -0.2254139              -6.1338
        88                         -0.2187050              -5.9513
        89                         -0.2142385              -5.8297
        90                         -0.2064234              -5.6171
        91                         -0.1856801              -5.0526
        92                         -0.1737509              -4.7280
        93                         -0.1585404              -4.3141
       ...                                ...                  ...
       158                          0.7110479              19.3486
      -------------------------------------------------------------
                  HL-Gap            0.0443226 Eh            1.2061 eV
             Fermi-level           -0.3169538 Eh           -8.6248 eV

     #   Z          covCN         q      C6AA      α(0)
     1   6 C        2.981     0.012    27.748     8.641
     2   6 C        2.984     0.018    27.611     8.619
     3   6 C        2.983    -0.001    28.046     8.687
     4   6 C        2.988     0.013    27.725     8.637
     5   6 C        2.989     0.016    27.656     8.627
     6   6 C        2.987     0.007    27.857     8.658
     7   6 C        2.916    -0.037    28.919     8.818
     8   6 C        2.916    -0.035    28.864     8.810
     9   6 C        2.915    -0.033    28.833     8.805
    10   6 C        2.916    -0.037    28.915     8.818
    11   6 C        2.920    -0.030    28.753     8.793
    12   6 C        2.930     0.021    27.545     8.607
    13   6 C        2.922    -0.033    28.824     8.804
    14   6 C        2.921    -0.042    29.040     8.837
    15   6 C        2.917    -0.030    28.749     8.792
    16   6 C        2.884     0.125    25.248     8.238
    17   6 C        2.917    -0.028    28.709     8.786
    18   6 C        2.913    -0.057    29.409     8.893
    19   1 H        0.926     0.034     2.536     2.491
    20   1 H        0.926     0.037     2.496     2.470
    21   1 H        0.926     0.033     2.543     2.494
    22   1 H        0.926     0.037     2.495     2.470
    23   1 H        0.926     0.032     2.564     2.504
    24   1 H        0.926     0.046     2.368     2.407
    25   1 H        0.926     0.032     2.555     2.500
    26   1 H        0.926     0.055     2.253     2.347
    27   8 O        1.708    -0.240    17.969     5.723
    28   6 C        2.879     0.123    25.289     8.244
    29   6 C        2.944     0.010    27.794     8.647
    30   7 N        2.857     0.109    19.364     6.536
    31   6 C        2.969     0.096    25.864     8.342
    32   6 C        2.917    -0.063    29.556     8.915
    33   6 C        2.919    -0.030    28.749     8.793
    34   6 C        2.919    -0.058    29.451     8.899
    35   7 N        1.841    -0.305    28.744     7.945
    36   6 C        2.913     0.177    24.206     8.068
    37   7 N        1.929    -0.249    27.340     7.753
    38   1 H        0.926     0.029     2.600     2.521
    39   1 H        0.925     0.020     2.735     2.586
    40   6 C        2.989     0.003    27.952     8.673
    41   6 C        2.924    -0.026    28.655     8.778
    42   6 C        2.919    -0.029    28.718     8.788
    43   6 C        2.920    -0.027    28.687     8.783
    44   6 C        2.919    -0.028    28.704     8.786
    45   6 C        2.924    -0.026    28.660     8.779
    46   1 H        0.926     0.047     2.358     2.401
    47   1 H        0.926     0.032     2.555     2.500
    48   1 H        0.926     0.033     2.548     2.496
    49   1 H        0.926     0.034     2.526     2.485
    50   1 H        0.926     0.057     2.239     2.340
    51   1 H        0.926     0.057     2.231     2.336
    52   1 H        0.926     0.047     2.358     2.401
    53   1 H        0.926     0.054     2.269     2.356

 Mol. C6AA /au·bohr⁶  :      44748.177144
 Mol. C8AA /au·bohr⁸  :    1145313.503613
 Mol. α(0) /au        :        341.427387


Wiberg/Mayer (AO) data.
largest (>0.10) Wiberg bond orders for each atom

 ---------------------------------------------------------------------------
     #   Z sym  total        # sym  WBO       # sym  WBO       # sym  WBO
 ---------------------------------------------------------------------------
     1   6 C    3.985 --     4 C    1.322     3 C    1.220     2 C    1.184
     2   6 C    3.988 --    11 C    1.308     5 C    1.270     1 C    1.184
     3   6 C    3.979 --     6 C    1.259    12 C    1.230     1 C    1.220
     4   6 C    3.982 --     1 C    1.322     8 C    1.236     7 C    1.231
     5   6 C    3.986 --    13 C    1.305     2 C    1.270     9 C    1.224
     6   6 C    3.980 --    14 C    1.309     3 C    1.259    10 C    1.229
     7   6 C    3.984 --     9 C    1.615     4 C    1.231    19 H    0.967
     8   6 C    3.979 --    10 C    1.610     4 C    1.236    20 H    0.967
     9   6 C    3.977 --     7 C    1.615     5 C    1.224    21 H    0.967
    10   6 C    3.978 --     8 C    1.610     6 C    1.229    22 H    0.967
    11   6 C    3.992 --    15 C    1.526     2 C    1.308    39 H    0.966
                            13 C    0.111
    12   6 C    3.956 --    16 C    1.313     3 C    1.230    30 N    1.112
    13   6 C    3.985 --    17 C    1.527     5 C    1.305    23 H    0.968
                            11 C    0.111
    14   6 C    3.953 --    18 C    1.479     6 C    1.309    24 H    0.967
    15   6 C    3.987 --    11 C    1.526    17 C    1.345    38 H    0.971
    16   6 C    3.917 --    18 C    1.341    12 C    1.313    27 O    1.038
    17   6 C    3.982 --    13 C    1.527    15 C    1.345    25 H    0.971
    18   6 C    3.968 --    14 C    1.479    16 C    1.341    26 H    0.966
    19   1 H    0.998 --     7 C    0.967
    20   1 H    0.997 --     8 C    0.967
    21   1 H    0.997 --     9 C    0.967
    22   1 H    0.997 --    10 C    0.967
    23   1 H    0.998 --    13 C    0.968
    24   1 H    0.997 --    14 C    0.967
    25   1 H    0.998 --    17 C    0.971
    26   1 H    0.995 --    18 C    0.966
    27   8 O    2.321 --    16 C    1.038    28 C    1.027
    28   6 C    3.924 --    32 C    1.388    29 C    1.312    27 O    1.027
    29   6 C    3.953 --    28 C    1.312    31 C    1.235    30 N    1.111
    30   7 N    3.673 --    37 N    1.182    12 C    1.112    29 C    1.111
    31   6 C    3.978 --    34 C    1.310    35 N    1.252    29 C    1.235
    32   6 C    3.968 --    33 C    1.397    28 C    1.388    53 H    0.968
    33   6 C    3.982 --    34 C    1.480    32 C    1.397    52 H    0.970
    34   6 C    3.973 --    33 C    1.480    31 C    1.310    51 H    0.968
    35   7 N    2.978 --    36 C    1.368    31 C    1.252
    36   6 C    3.963 --    37 N    1.384    35 N    1.368    40 C    1.048
    37   7 N    2.983 --    36 C    1.384    30 N    1.182
    38   1 H    0.999 --    15 C    0.971
    39   1 H    0.999 --    11 C    0.966
    40   6 C    3.986 --    41 C    1.382    45 C    1.379    36 C    1.048
                            43 C    0.102
    41   6 C    3.985 --    42 C    1.455    40 C    1.382    50 H    0.966
                            44 C    0.106
    42   6 C    3.991 --    41 C    1.455    43 C    1.432    49 H    0.971
                            45 C    0.107
    43   6 C    3.983 --    42 C    1.432    44 C    1.431    48 H    0.971
                            40 C    0.102
    44   6 C    3.991 --    45 C    1.457    43 C    1.431    47 H    0.971
                            41 C    0.106
    45   6 C    3.984 --    44 C    1.457    40 C    1.379    46 H    0.966
                            42 C    0.107
    46   1 H    0.998 --    45 C    0.966
    47   1 H    0.999 --    44 C    0.971
    48   1 H    0.998 --    43 C    0.971
    49   1 H    0.998 --    42 C    0.971
    50   1 H    0.997 --    41 C    0.966
    51   1 H    0.996 --    34 C    0.968
    52   1 H    0.997 --    33 C    0.970
    53   1 H    0.996 --    32 C    0.968
 ---------------------------------------------------------------------------

Topologies differ in bond orders
Writing corrected topology to xtbtopo.mol

molecular dipole:
                 x           y           z       tot (Debye)
 q only:        0.278       0.541      -0.082
   full:       -0.067       0.638      -0.066       1.638
molecular quadrupole (traceless):
                xx          xy          yy          xz          yz          zz
 q only:        4.519      -1.020      -0.551      -2.328      -6.737      -3.969
  q+dip:       13.238      -2.256      -6.177      -3.671     -14.619      -7.061
   full:        7.504      -0.385      -5.065      -1.789      -6.431      -2.438

           -------------------------------------------------
          |                Geometry Summary                 |
           -------------------------------------------------

      molecular mass/u    :      448.4952609
   center of mass at/Å    :        0.0146300      -0.1791083      -0.3230081
  moments of inertia/u·Å² :        0.2905542E+04   0.3502234E+04   0.5455602E+04
rotational constants/cm⁻¹ :        0.5801889E-02   0.4813394E-02   0.3089968E-02

 * 58 selected distances

     #   Z          #   Z                                           value/Å
     1   6 C        3   6 C                                       1.4289273 (max)
     1   6 C        4   6 C                                       1.4066838
     2   6 C        5   6 C                                       1.4159454
     3   6 C        6   6 C                                       1.4200146
     4   6 C        7   6 C                                       1.4192077
     4   6 C        8   6 C                                       1.4182948
     5   6 C        9   6 C                                       1.4197183
     7   6 C        9   6 C                                       1.3568321
     6   6 C       10   6 C                                       1.4195327
     8   6 C       10   6 C                                       1.3573935
     2   6 C       11   6 C                                       1.4074547
     3   6 C       12   6 C                                       1.4227882
     5   6 C       13   6 C                                       1.4051078
     6   6 C       14   6 C                                       1.4033502
    11   6 C       15   6 C                                       1.3702945
    12   6 C       16   6 C                                       1.4016494
    13   6 C       17   6 C                                       1.3695052
    15   6 C       17   6 C                                       1.3979891
    14   6 C       18   6 C                                       1.3754188
    16   6 C       18   6 C                                       1.3926858
     7   6 C       19   1 H                                       1.0808035
     8   6 C       20   1 H                                       1.0806508
     9   6 C       21   1 H                                       1.0803231
    10   6 C       22   1 H                                       1.0801004
    13   6 C       23   1 H                                       1.0806011
    14   6 C       24   1 H                                       1.0790421
    17   6 C       25   1 H                                       1.0796708
    18   6 C       26   1 H                                       1.0778366
    16   6 C       27   8 O                                       1.3709302
    27   8 O       28   6 C                                       1.3703566
    28   6 C       29   6 C                                       1.3901400
    12   6 C       30   7 N                                       1.3803232
    29   6 C       30   7 N                                       1.3829637
    29   6 C       31   6 C                                       1.4144738
    28   6 C       32   6 C                                       1.3850927
    32   6 C       33   6 C                                       1.3913352
    31   6 C       34   6 C                                       1.4000805
    33   6 C       34   6 C                                       1.3789050
    31   6 C       35   7 N                                       1.3538146
    35   7 N       36   6 C                                       1.3284367
    30   7 N       37   7 N                                       1.3313743
    36   6 C       37   7 N                                       1.3239110
    15   6 C       38   1 H                                       1.0804190
    11   6 C       39   1 H                                       1.0815226
    40   6 C       41   6 C                                       1.3920738
    41   6 C       42   6 C                                       1.3815402
    42   6 C       43   6 C                                       1.3858204
    43   6 C       44   6 C                                       1.3859817
    40   6 C       45   6 C                                       1.3931005
Note: The following floating-point exceptions are signalling: IEEE_UNDERFLOW_FLAG
normal termination of xtb
    44   6 C       45   6 C                                       1.3810715
    45   6 C       46   1 H                                       1.0785342
    44   6 C       47   1 H                                       1.0804407
    43   6 C       48   1 H                                       1.0806224
    42   6 C       49   1 H                                       1.0804425
    41   6 C       50   1 H                                       1.0784705
    34   6 C       51   1 H                                       1.0772266 (min)
    33   6 C       52   1 H                                       1.0794572
    32   6 C       53   1 H                                       1.0773275

 * 5 distinct bonds (by element types)

   Z      Z             #   av. dist./Å        max./Å        min./Å
   1 H    6 C          18     1.0796384     1.0815226     1.0772266
   6 C    6 C          32     1.3965128     1.4289273     1.3568321
   6 C    7 N           5     1.3538898     1.3829637     1.3239110
   7 N    7 N           1     1.3313743     1.3313743     1.3313743
   6 C    8 O           2     1.3706434     1.3709302     1.3703566


optimized geometry written to: xtbopt.mol


           -------------------------------------------------
          | TOTAL ENERGY              -88.414793489536 Eh   |
          | GRADIENT NORM               0.000408028607 Eh/α |
          | HOMO-LUMO GAP               1.206078644625 eV   |
           -------------------------------------------------

------------------------------------------------------------------------
 * finished run on 2024/11/01 at 14:00:57.770     
------------------------------------------------------------------------
 total:
 * wall-time:     0 d,  0 h,  0 min,  5.706 sec
 *  cpu-time:     0 d,  0 h,  0 min, 16.220 sec
 * ratio c/w:     2.842 speedup
 SCF:
 * wall-time:     0 d,  0 h,  0 min,  0.306 sec
 *  cpu-time:     0 d,  0 h,  0 min,  0.960 sec
 * ratio c/w:     3.137 speedup
 ANC optimizer:
 * wall-time:     0 d,  0 h,  0 min,  5.385 sec
 *  cpu-time:     0 d,  0 h,  0 min, 15.244 sec
 * ratio c/w:     2.831 speedup

