106
 energy: -175.912830526560 gnorm: 0.385165059238 xtb: 6.6.1 (8d0f1dd)
C           -2.60730000000000       -0.69620000000000        3.01480000000000
C           -2.08130000000000        0.62580000000000        2.82190000000000
C           -1.80620000000000       -1.87910000000000        2.98710000000000
C           -3.97760000000000       -0.82850000000000        3.30380000000000
C           -2.97610000000000        1.68660000000000        2.54100000000000
C           -2.26710000000000       -3.03090000000000        3.67800000000000
C           -4.85020000000000        0.26570000000000        3.06760000000000
C           -4.46370000000000       -2.04720000000000        3.84250000000000
C           -4.37460000000000        1.45410000000000        2.61760000000000
C           -3.61650000000000       -3.07170000000000        4.11680000000000
C           -0.72190000000000        0.94230000000000        3.00290000000000
C           -0.58530000000000       -1.99710000000000        2.26610000000000
C           -2.46230000000000        2.96240000000000        2.25360000000000
C           -1.39920000000000       -4.11530000000000        3.87800000000000
C           -0.24790000000000        2.20350000000000        2.75300000000000
C            0.28600000000000       -3.05900000000000        2.54520000000000
C           -1.11760000000000        3.21140000000000        2.32610000000000
C           -0.11550000000000       -4.09530000000000        3.38450000000000
H           -5.90830000000000        0.11770000000000        3.23020000000000
H           -5.51390000000000       -2.11770000000000        4.08710000000000
H           -5.04450000000000        2.26620000000000        2.37510000000000
H           -3.96270000000000       -3.95970000000000        4.62480000000000
H           -3.15210000000000        3.75110000000000        1.98940000000000
H           -1.74980000000000       -4.97170000000000        4.43290000000000
H           -0.72770000000000        4.19100000000000        2.09360000000000
H            0.57720000000000       -4.89990000000000        3.57040000000000
O            1.54010000000000       -3.15420000000000        1.99960000000000
C            1.94350000000000       -2.14050000000000        1.17010000000000
C            1.03760000000000       -1.17890000000000        0.73780000000000
N           -0.26380000000000       -1.17430000000000        1.20550000000000
C            1.40820000000000       -0.15490000000000       -0.16500000000000
C            3.25540000000000       -2.08220000000000        0.72970000000000
C            3.63680000000000       -1.06560000000000       -0.14040000000000
C            2.74180000000000       -0.11780000000000       -0.58980000000000
N            0.48960000000000        0.74080000000000       -0.59690000000000
C           -0.76490000000000        0.52780000000000       -0.21550000000000
N           -1.18020000000000       -0.38480000000000        0.64910000000000
H            0.80140000000000        2.42280000000000        2.88770000000000
H           -0.04450000000000        0.18260000000000        3.36830000000000
C           -1.81190000000000        1.40810000000000       -0.73920000000000
C           -1.46470000000000        2.58580000000000       -1.39520000000000
C           -2.45010000000000        3.44020000000000       -1.85080000000000
C           -3.78650000000000        3.12580000000000       -1.66080000000000
C           -4.13620000000000        1.94960000000000       -1.01660000000000
C           -3.15630000000000        1.09220000000000       -0.55600000000000
H           -3.41470000000000        0.17440000000000       -0.05210000000000
H           -5.17790000000000        1.70150000000000       -0.87230000000000
H           -4.55540000000000        3.79610000000000       -2.01750000000000
H           -2.17870000000000        4.35580000000000       -2.35590000000000
H           -0.41900000000000        2.81260000000000       -1.52970000000000
H            3.03820000000000        0.65700000000000       -1.27710000000000
H            4.66250000000000       -1.02750000000000       -0.47460000000000
H            3.95740000000000       -2.82680000000000        1.06620000000000
C            0.71690000000000        1.80560000000000        5.25860000000000
C            1.18870000000000        1.03990000000000        6.37780000000000
C           -0.65930000000000        1.89630000000000        4.88490000000000
C            1.65530000000000        2.55350000000000        4.52460000000000
C            2.57020000000000        0.74440000000000        6.47410000000000
C           -1.09190000000000        3.02930000000000        4.14630000000000
C            3.03960000000000        2.27980000000000        4.67670000000000
C            1.20500000000000        3.58070000000000        3.65640000000000
C            3.47410000000000        1.34450000000000        5.55850000000000
C           -0.11640000000000        3.87430000000000        3.55520000000000
C            0.35760000000000        0.65480000000000        7.44630000000000
C           -1.62830000000000        0.89310000000000        5.16580000000000
C            3.02540000000000       -0.08670000000000        7.51160000000000
C           -2.46470000000000        3.26920000000000        3.98170000000000
C            0.83170000000000       -0.12530000000000        8.46830000000000
C           -2.99260000000000        1.19500000000000        5.05460000000000
C            2.16620000000000       -0.54190000000000        8.47600000000000
C           -3.40150000000000        2.40370000000000        4.49660000000000
H            3.73710000000000        2.81810000000000        4.05080000000000
H            1.94330000000000        4.16460000000000        3.12560000000000
H            4.52140000000000        1.08900000000000        5.62830000000000
H           -0.45570000000000        4.72300000000000        2.97960000000000
H            4.07350000000000       -0.34760000000000        7.54410000000000
H           -2.78220000000000        4.15090000000000        3.44680000000000
H            2.51980000000000       -1.18900000000000        9.26460000000000
H           -4.45870000000000        2.59910000000000        4.41910000000000
O           -3.97970000000000        0.32960000000000        5.44970000000000
C           -3.58740000000000       -0.86370000000000        5.99770000000000
C           -2.25540000000000       -1.25860000000000        5.95060000000000
N           -1.28800000000000       -0.41800000000000        5.43100000000000
C           -1.82830000000000       -2.50970000000000        6.45390000000000
C           -4.52300000000000       -1.70350000000000        6.57900000000000
C           -4.11030000000000       -2.92670000000000        7.09810000000000
C           -2.79480000000000       -3.33590000000000        7.03990000000000
N           -0.52970000000000       -2.87900000000000        6.35440000000000
C            0.26430000000000       -2.06110000000000        5.67230000000000
N           -0.05470000000000       -0.86490000000000        5.20310000000000
H            0.17410000000000       -0.41900000000000        9.27360000000000
H           -0.66680000000000        1.00050000000000        7.47280000000000
C            1.65420000000000       -2.46510000000000        5.44790000000000
C            2.18820000000000       -3.53810000000000        6.15600000000000
C            3.51150000000000       -3.89340000000000        5.97950000000000
C            4.31000000000000       -3.18660000000000        5.09430000000000
C            3.77940000000000       -2.12370000000000        4.38040000000000
C            2.45810000000000       -1.76120000000000        4.55400000000000
H            2.03310000000000       -0.93550000000000        4.00570000000000
H            4.40000000000000       -1.57510000000000        3.68660000000000
H            5.34500000000000       -3.46600000000000        4.95860000000000
H            3.92530000000000       -4.72370000000000        6.53310000000000
H            1.55020000000000       -4.07250000000000        6.84190000000000
H           -2.48360000000000       -4.29150000000000        7.42780000000000
H           -4.84710000000000       -3.57190000000000        7.55200000000000
H           -5.55490000000000       -1.39640000000000        6.61660000000000
106
 energy: -176.106101849240 gnorm: 0.270471349957 xtb: 6.6.1 (8d0f1dd)
C           -2.61569183142506       -0.71024395614346        2.99627885651350
C           -2.09408797107465        0.59624899038900        2.76926847981786
C           -1.80668329980868       -1.88469923607028        2.98142126443434
C           -3.98829224833182       -0.84017272388967        3.28159791074585
C           -2.99003490877713        1.64399212832449        2.46646875025566
C           -2.26798679862786       -3.03670815217181        3.66963686718750
C           -4.85711782961971        0.25141692297652        3.05308135090399
C           -4.46776723337922       -2.05488172312348        3.83041967070671
C           -4.37871931792600        1.43795538413152        2.58316574748542
C           -3.61833253768899       -3.07918105086757        4.10409037665415
C           -0.72547963755428        0.89364200387269        2.93363923643831
C           -0.58391502714258       -1.99815757644599        2.26437976056476
C           -2.48296390009269        2.95235890048874        2.23290989041139
C           -1.39823697810213       -4.11735925306771        3.87545709626572
C           -0.24533133684876        2.14902038606430        2.67401238098804
C            0.28840233249019       -3.06084465190822        2.54474092247716
C           -1.09783665545599        3.19393813671453        2.23664680030650
C           -0.11455641850466       -4.09718410996744        3.38201238981905
H           -5.91093798850986        0.11584794257280        3.23158513607342
H           -5.51475399416683       -2.12023025499409        4.08348868921328
H           -5.04440850730904        2.26193675400775        2.36687196091542
H           -3.96268371168613       -3.96157449302682        4.62013019390460
H           -3.16404333320009        3.73366971383554        1.93178095291130
H           -1.74915964241232       -4.97131798456635        4.43269185799270
H           -0.73309281320087        4.15251510944835        1.96415540234886
H            0.57786676743620       -4.89991446738836        3.57084367231894
O            1.53872576143137       -3.15382083718577        1.99899468247140
C            1.94378519961883       -2.14245968060515        1.17155203293800
C            1.03626748431055       -1.18053360592781        0.73713104742738
N           -0.26307410138782       -1.17574505928043        1.20452934203505
C            1.40829217616512       -0.15538543047856       -0.16607496699373
C            3.25506065355894       -2.08237648249854        0.73077356653400
C            3.63661862305835       -1.06523588358002       -0.14019611893911
C            2.74230979368751       -0.11671481843452       -0.58920599707703
N            0.48932007682956        0.74129656636009       -0.59475144766598
C           -0.76379360400164        0.52764840774314       -0.21744242750877
N           -1.17503497643163       -0.38255516395643        0.65669175468118
H            0.80028297272014        2.38019440536185        2.83266519537583
H           -0.04660426755771        0.16628087429469        3.35371203011874
C           -1.81144848684013        1.40843151660265       -0.73841805303268
C           -1.46434520776372        2.58668453485558       -1.39468484798538
C           -2.44992164752886        3.44086116356180       -1.85053161645804
C           -3.78668405662577        3.12611951457136       -1.66058097006438
C           -4.13653983229942        1.94986466954419       -1.01604244074827
C           -3.15643549131662        1.09250870864910       -0.55483880219371
H           -3.41508801098897        0.17380505795597       -0.05299423780092
H           -5.17773081533870        1.70123163363451       -0.87289608717596
H           -4.55517953882095        3.79567492910138       -2.01787401389629
H           -2.17864490548811        4.35549884393093       -2.35648698730673
H           -0.41873456344200        2.81254066973456       -1.53079914065046
H            3.03813834789831        0.65672832397081       -1.27774754125292
H            4.66186644077098       -1.02767776505801       -0.47505376196142
H            3.95682081212294       -2.82733929061355        1.06604908014503
C            0.72608808548546        1.81722887758300        5.28400549853745
C            1.19219411731313        1.04062082356238        6.38586339917605
C           -0.65467973878881        1.90684377446804        4.93688221347163
C            1.67163448134031        2.57284253242587        4.54915963661620
C            2.57253979161131        0.74286287210444        6.47610879429556
C           -1.08436568219976        3.04130983986351        4.17257956740136
C            3.04778270014778        2.28013611631757        4.67978130922742
C            1.23941885097799        3.61216976527888        3.69298651651831
C            3.47665388630276        1.34253104224122        5.55921249389607
C           -0.11652118474142        3.93325885141840        3.60500088316563
C            0.35730920140455        0.65372033261715        7.44887208240722
C           -1.62540097903659        0.89837806572771        5.21072716966451
C            3.02662980176551       -0.08777112712943        7.51168606764874
C           -2.48208415949470        3.30068161302826        4.02542425150132
C            0.83186079567731       -0.12716489794060        8.46936244776600
C           -3.00189859670261        1.20899903315375        5.09696590180726
C            2.16636673855134       -0.54277565780212        8.47695373698242
C           -3.41514525373016        2.42384789494662        4.58023693992489
H            3.74031433564738        2.81789567418946        4.05093089135537
H            1.96128535572829        4.17717347281986        3.13324912206473
H            4.52246714547684        1.08815961502702        5.62822332617306
H           -0.42959595802150        4.81491377129082        3.09070928926131
H            4.07404414765193       -0.34759605362722        7.54424219244550
H           -2.79523110199014        4.20145596842575        3.53782509821105
H            2.52004048359417       -1.18891633939987        9.26504331196701
H           -4.46459391430883        2.60582215824945        4.45160387046140
O           -3.97945015178315        0.33765804282918        5.47633700138147
C           -3.58660841616568       -0.85514329970404        6.01372542572550
C           -2.25255896736991       -1.25165791580689        5.95855904929703
N           -1.28823523658430       -0.41085966907572        5.44586539749483
C           -1.82717974246744       -2.50667211016197        6.45720577081596
C           -4.52249129888137       -1.69939142856132        6.59013315141303
C           -4.11018955328620       -2.92432689084522        7.10324786477620
C           -2.79430710704969       -3.33423071385401        7.04159312712598
N           -0.53089237561902       -2.87696492253114        6.35203962807779
C            0.26320277414459       -2.06219462371188        5.67362684816208
N           -0.06094996419911       -0.86067460317598        5.20803325128297
H            0.17430221360464       -0.41913037412858        9.27417861015779
H           -0.66665714503253        1.00075052491798        7.47385304587507
C            1.65300137522126       -2.46486987022182        5.44827471797969
C            2.18766666605581       -3.53853860582919        6.15590523739013
C            3.51113880246718       -3.89363919190085        5.97942551908124
C            4.30964783375100       -3.18669492144852        5.09397765343976
C            3.77938349535612       -2.12349371641204        4.38000531807497
C            2.45855631326619       -1.76134001719217        4.55477710178228
H            2.03518665898766       -0.93447110005436        4.00556059118025
H            4.39973101965448       -1.57482146676600        3.68628259317809
H            5.34434856373512       -3.46566539241597        4.95857870223195
H            3.92494811685279       -4.72338276402177        6.53295247991845
H            1.55008418954386       -4.07258895431249        6.84197676206892
H           -2.48335848584397       -4.29078931145159        7.42754512856535
H           -4.84704260750508       -3.57176308497840        7.55248239588390
H           -5.55497433593635       -1.39563017947400        6.61996672502264
106
 energy: -176.263247445356 gnorm: 0.188097915900 xtb: 6.6.1 (8d0f1dd)
C           -2.62195947763888       -0.71965119629451        2.98405228084228
C           -2.10585482658543        0.57959333117815        2.73608817772650
C           -1.80880865206134       -1.88830309040672        2.97492752159956
C           -3.99904486210085       -0.84908101769690        3.26154130900979
C           -2.99712548850823        1.60709395161332        2.39368638013494
C           -2.26931937172607       -3.04256886920694        3.66046211686844
C           -4.86127609042566        0.24003137513725        3.03990251768121
C           -4.47166558563475       -2.06255654158185        3.81956535016662
C           -4.37645334836355        1.42899780600388        2.55874149825536
C           -3.62019354071765       -3.08590282883154        4.09259821328555
C           -0.71644614092171        0.85156860679628        2.82006256520635
C           -0.58263048605114       -1.99870069490565        2.26070218817293
C           -2.48698047718956        2.93699332583623        2.20242642722215
C           -1.39721680906403       -4.11926228124494        3.87246284682537
C           -0.24196220907103        2.06825385765462        2.53499525579892
C            0.29202827399529       -3.06291849738759        2.54413041231318
C           -1.07562809799883        3.15562106201285        2.13221798884956
C           -0.11307997980365       -4.09910635560291        3.37872130642979
H           -5.91261560384133        0.11579431840403        3.23302989673724
H           -5.51615221102069       -2.12415985563301        4.07903583494923
H           -5.04248063444905        2.25720440403820        2.35768458841209
H           -3.96327140366814       -3.96397023286137        4.61442301947796
H           -3.16120699592555        3.71809996084654        1.88890442387176
H           -1.74821086899418       -4.97073378547727        4.43262842953471
H           -0.73766168365355        4.11252832032600        1.85525424940920
H            0.57890638469412       -4.90012961673994        3.57138999387008
O            1.53696587218687       -3.15297446331731        1.99751963751878
C            1.94465297377307       -2.14565975160804        1.17411059593220
C            1.03307409199114       -1.18371560732603        0.73552247178301
N           -0.26261686604404       -1.18231734797403        1.19756145620850
C            1.40793569933266       -0.15584510022658       -0.16747350893296
C            3.25417507175377       -2.08269680015035        0.73225888981050
C            3.63591058460212       -1.06452063153596       -0.14020277538126
C            2.74294519246262       -0.11538140895435       -0.58859493644711
N            0.48862545601627        0.73966773494809       -0.59279029217738
C           -0.76143158774404        0.52819489346001       -0.22145425727049
N           -1.16436738119394       -0.38354127277543        0.66541296461834
H            0.78229830397555        2.32309343945295        2.76130723259133
H           -0.04564477993557        0.16259699756864        3.33093969875012
C           -1.81040149307082        1.40823405478030       -0.73743703551293
C           -1.46367009872323        2.58736349640934       -1.39457564234899
C           -2.44938424772273        3.44125445374324       -1.85023538703586
C           -3.78659544600941        3.12610342800920       -1.66009692018707
C           -4.13660442399271        1.94972262890161       -1.01541424467278
C           -3.15634194606039        1.09231199033619       -0.55338569501696
H           -3.41588464986886        0.17267439319461       -0.05426993001202
H           -5.17739377959833        1.70087982319370       -0.87332873787901
H           -4.55476124846252        3.79506475489579       -2.01802552360554
H           -2.17847367054892        4.35512284861763       -2.35682413332125
H           -0.41835897108758        2.81295456850115       -1.53171292731669
H            3.03811888366931        0.65664581657046       -1.27842377423251
H            4.66088348987059       -1.02782558604859       -0.47547597963544
H            3.95629982725764       -2.82777940197005        1.06601520491010
C            0.72863210692040        1.82576826215548        5.30393849468368
C            1.19528492921872        1.04340149262216        6.39185738801244
C           -0.66481298124237        1.94895417223511        5.01975973009070
C            1.67778899412132        2.58527161186095        4.56814243785790
C            2.57644597129414        0.74273611547230        6.47787622241528
C           -1.07471972755737        3.07432000043280        4.26705720026790
C            3.05123687166214        2.27992434629545        4.68072985469937
C            1.24732713964740        3.65193214351543        3.74458135441284
C            3.47950541994499        1.34005871203580        5.55978306572739
C           -0.11708440292498        3.99645801833633        3.69698605613060
C            0.35675219782466        0.65353018033471        7.45273522034373
C           -1.62244158097008        0.90848194222091        5.25088475488367
C            3.02864240458551       -0.08957496671213        7.51172226403901
C           -2.49008323952544        3.31670020659899        4.06109601944321
C            0.83138709797696       -0.12897105259462        8.47037137311472
C           -3.01304375869711        1.22570454066596        5.13813842641267
C            2.16692635001226       -0.54385798448498        8.47699852024556
C           -3.42367080296148        2.44055160581316        4.65766205985650
H            3.74142880167665        2.81864334133130        4.05124757591180
H            1.95890057601857        4.19068918433583        3.14274534875072
H            4.52430076161618        1.08651670400563        5.62782481798940
H           -0.41506698228253        4.87507877012112        3.18618745046530
H            4.07526280572913       -0.34857006713026        7.54494374507693
H           -2.79595182741836        4.24242460819605        3.61943899955461
H            2.52069392318786       -1.18850620834380        9.26549169566913
H           -4.46699010431287        2.61419071954748        4.47676128457703
O           -3.97416781432420        0.34475481135621        5.50272298906459
C           -3.58497408206012       -0.84584108198342        6.03095775188830
C           -2.24875894342878       -1.24301259385966        5.96647695812602
N           -1.28956655023569       -0.39825776964406        5.45784976339627
C           -1.82693186153106       -2.50302593827948        6.46065542401303
C           -4.52203842174142       -1.69594164094693        6.60133630101408
C           -4.11036812135861       -2.92165684992185        7.10833513742274
C           -2.79353434865487       -3.33196729337611        7.04300699327894
N           -0.53210076168174       -2.87412718350752        6.34827469828535
C            0.26182011840692       -2.06219835388870        5.67625982980145
N           -0.06803585179581       -0.85489508064516        5.21070862167983
H            0.17443581559414       -0.41944492693712        9.27526119133564
H           -0.66571159520835        1.00250126004794        7.47653927327672
C            1.65116356524501       -2.46412924306985        5.44848262222861
C            2.18682167774422       -3.53861960930932        6.15560097642836
C            3.51051114891960       -3.89370225054348        5.97923169030131
C            4.30916448658165       -3.18679884096765        5.09358452417630
C            3.77917479289132       -2.12332143175641        4.37950832748764
C            2.45858751641552       -1.76139308985388        4.55558302163439
H            2.03738878827982       -0.93282189777851        4.00563254878520
H            4.39938520188675       -1.57441000013488        3.68605819535537
H            5.34363068081246       -3.46537028549539        4.95858186317669
H            3.92439757660357       -4.72293715964177        6.53274104859603
H            1.54978478358013       -4.07259787768912        6.84195977282263
H           -2.48292724761379       -4.28953171100236        7.42718182237810
H           -4.84685004283168       -3.57154922523259        7.55345683849796
H           -5.55479612414233       -1.39422454147851        6.62448921112893
106
 energy: -176.351423731771 gnorm: 0.129543094072 xtb: 6.6.1 (8d0f1dd)
C           -2.63016839220593       -0.73259504287617        2.95915058815991
C           -2.11595451535136        0.56225734551079        2.69670261616287
C           -1.81164182344581       -1.89813017045920        2.96291256848267
C           -4.00798494190467       -0.86151899866820        3.23780901176361
C           -2.99768789426545        1.58509693230382        2.34098775344857
C           -2.27176107512060       -3.05023302710030        3.65012209138572
C           -4.86678767151906        0.23076713529595        3.01741545301775
C           -4.47688604832355       -2.07328456582283        3.80389730994636
C           -4.37881523347195        1.41630533391282        2.53158095858479
C           -3.62351313404532       -3.09550369003784        4.07707960350788
C           -0.71699947693007        0.83117974581585        2.76704913305935
C           -0.58275285840237       -2.00407420922714        2.25466260295338
C           -2.47694374045170        2.91378092327034        2.15950476391144
C           -1.39604398000515       -4.12478488326337        3.86746105962391
C           -0.23744590580322        2.02430212219088        2.40277375713171
C            0.29383044739468       -3.06538936283574        2.54105504739927
C           -1.06664625487614        3.10370747423750        2.02316433448695
C           -0.11250949923271       -4.10283013850561        3.37695407523634
H           -5.91628487604315        0.11682657999919        3.23393040581117
H           -5.51955213302859       -2.13158233556245        4.07145683734298
H           -5.04375690706423        2.24743850835829        2.34267489949359
H           -3.96473510059768       -3.96962667818643        4.60603202683499
H           -3.15268935202166        3.69553052488441        1.84321602219398
H           -1.74651146573290       -4.97311157410330        4.43189261421176
H           -0.73868942075838        4.07750681370901        1.76191688521836
H            0.58065700749084       -4.90182751797552        3.57310256241085
O            1.53492668901365       -3.15324029162571        1.99637191593673
C            1.94613371457441       -2.14761937569584        1.17579800037353
C            1.03267188553756       -1.18578706352014        0.73416452955880
N           -0.26163671839552       -1.18906121877971        1.18684932363328
C            1.40852235045608       -0.15659458073967       -0.16834625852700
C            3.25414972924066       -2.08288967015465        0.73330742947121
C            3.63556234485406       -1.06415598854621       -0.13986821925836
C            2.74353204544029       -0.11474975093577       -0.58831097635173
N            0.48813183758724        0.73739693294357       -0.59124044854170
C           -0.76110059192180        0.52703357233302       -0.22780561603869
N           -1.16088023900178       -0.39507201785116        0.65746938080926
H            0.77489132755215        2.28599923287235        2.67189239341012
H           -0.05104007321556        0.15516339614224        3.29709645321207
C           -1.80960800948399        1.40751751779866       -0.73726494429260
C           -1.46295328815162        2.58771058065276       -1.39432216462444
C           -2.44868340496708        3.44134028594006       -1.84964284714636
C           -3.78603557002519        3.12593662615181       -1.65929762402473
C           -4.13609368924538        1.94952710080021       -1.01465701733291
C           -3.15590124172440        1.09175326750052       -0.55284227623913
H           -3.41641821436798        0.17068973327986       -0.05662815373777
H           -5.17701662342864        1.70039664784559       -0.87380260336570
H           -4.55423652468382        3.79442669048919       -2.01803888618969
H           -2.17820545186303        4.35482035589513       -2.35694642376381
H           -0.41788558687535        2.81345092531986       -1.53240406852316
H            3.03814270553612        0.65695370754436       -1.27869489498519
H            4.66017964156481       -1.02830082639895       -0.47568018215517
H            3.95655699373400       -2.82827953202355        1.06582734528730
C            0.73469130448119        1.83775343380803        5.31984117512194
C            1.20147157992837        1.04757060731146        6.39981008731072
C           -0.66861886128693        1.98441165157416        5.05696178846521
C            1.67788588227454        2.59608958014262        4.58737093329942
C            2.58201673101205        0.74211842760952        6.48138375238678
C           -1.06936622058180        3.13039305922762        4.38023699286680
C            3.05331408478927        2.27954312247823        4.68425380503927
C            1.23717758487488        3.68494690246943        3.79571095218981
C            3.48262924337090        1.33694363229877        5.56129757757482