116
 energy: -22.928061455056 gnorm: 0.329736929581 xtb: 6.6.1 (8d0f1dd)
C           -3.31122850772930        0.79849766164622       -0.92477639677520
C           -2.44380812530352       -0.12270372891954       -0.27661132624697
C           -1.41337090092821        0.39579727573559        0.56335275196199
C           -0.89266158675590        1.65801491088749        0.27377586709581
C           -1.72665675402493        2.51431363229076       -0.49448366572522
C           -2.95444148494349        2.13954154133227       -1.01494489940871
C           -0.74098268209890       -0.43411532818871        1.49825021926784
C            0.56872586496315        0.03782116815119        1.86248088067890
C            1.03782416582094        1.29402317993033        1.50887470833621
N            0.31238977034758        2.07067427098208        0.65193736800696
C           -1.29695700510141       -1.39996043042223        2.41574187746061
C           -0.38243517664656       -2.18060797534842        3.13232615520648
N            0.91308504082021       -1.90366887689689        3.30325166013478
C            1.37712470144904       -0.74872102533751        2.81811050966982
C            2.52149331701875       -0.17739833758153        3.39379298866852
C            2.95849061756259        1.02681208890480        2.95105897606587
C            2.24288949469137        1.78498308775960        2.03503020483770
C           -2.74860936222260       -1.74497937691422        2.38401158947411
C           -3.09416315450955       -2.91614440870436        3.00571134491758
C           -2.16786021984049       -3.77788778654213        3.63251872101904
C           -0.85708937311598       -3.40495313382985        3.68547234358092
O           -3.71994433332149       -0.94984598373544        1.67726658385724
O           -2.55702603277562       -1.47241711578389       -0.57241635275616
C           -3.84297843593025        3.13357444054366       -1.60938954875544
C           -2.68769581069131       -5.03867041417370        4.30484659386931
H           -1.39666850744143        3.51251503834900       -0.76806311868865
H           -4.27662633836220        0.55105838579656       -1.33106614114542
H            2.66329581305412        2.73912661909249        1.72562431984580
H            3.05775395548473       -0.69369546277216        4.16536137542516
H           -0.24710966264510       -4.12034095424229        4.22946223699121
H           -4.11477991332403       -3.04712728052358        3.03244694615357
O           -4.21824883374556        4.03433712717988       -0.87713382485991
O           -4.44510595673734        2.90643496899600       -2.81853501752979
C           -5.44216520282800        3.83300025693726       -3.02488532025093
C            4.23586651889298        1.50004220933226        3.59165660008449
O            5.05927614697201        0.66079890002952        3.91714215179376
O            4.47001334453535        2.86385149488593        3.72605651435371
C            5.79457498613219        3.08584475587818        4.15829123132174
O           -3.82227255313510       -5.27347675879771        4.16636005494405
O           -1.85023202017753       -5.79767454267276        5.06656077253571
C           -2.55119635829503       -6.86252441382958        5.62930343183426
C           -5.07197156564436       -1.42399175670916        1.58830531863830
C           -1.33089900128490       -2.23622472573986       -0.99264499351172
H           -2.54510546830388       -7.76426885143998        4.99136022291012
H           -3.57194749219491       -6.44405511486021        5.74196173723541
H           -2.09133598235598       -7.02043774843818        6.64022264233588
H            5.72707967266424        3.46798026205549        5.10135971236643
H            6.34060091246885        3.78468702308830        3.50069950143490
H            6.17933064298187        2.03010500085905        4.19342358084693
H           -0.91862729772622       -2.57650129080332       -0.01361370304871
H           -0.49769766914251       -1.60651221708571       -1.34094446550576
H           -1.52632419730509       -2.94569707152159       -1.75361447637286
H           -5.11788846557077       -2.41810833635233        1.17520213188926
H           -5.67929807973498       -0.69619639428435        1.04301666067831
H           -5.57598832326623       -1.42383358739762        2.57928294206544
H           -6.13050215934830        3.76035386975488       -2.23272855695873
H           -5.86615610071888        3.45938329385866       -4.02668959924245
H           -5.13479557532099        4.87790991548477       -2.98314551356402
C           -1.38192942069774        3.73616555005018        2.91232598411686
C           -1.84821468128685        2.59982427735607        3.49755545445181
C           -1.05946531454833        2.05730632010638        4.60922730982276
C            0.19893954712228        2.69376791964407        4.86302140881997
C            0.50425395911860        3.94630308659851        4.28768785650746
C           -0.26031777722226        4.46998310053134        3.25072669343212
C           -1.20488993561782        0.74454293276906        5.14851520323437
C           -0.06287609782692        0.02744069315890        5.60930570802864
C            1.19208754369866        0.71421540266195        5.78882868583885
N            1.19428660993148        2.06344359410476        5.62744624321596
C           -2.41361422770794        0.07928500213936        5.25249410304426
C           -2.45851584031083       -1.32662100968547        5.60237876023992
N           -1.29466212405906       -1.98318595734370        5.89916817085159
C           -0.14475655767527       -1.32117560077092        5.98824682881008
C            0.97209270935794       -1.98958449505532        6.53157704134458
C            2.21982707914082       -1.36973967291181        6.68703967237737
C            2.30561929262884       -0.09745313075593        6.26436900324455
C           -3.73018485967715        0.71367583494582        5.25810242262992
C           -4.89964478833448       -0.06184623426677        5.21204641615509
C           -4.82617965800088       -1.39228978090841        5.46901303780036
C           -3.67144193418464       -1.98914944386360        5.67265433266067
O           -3.75568638935321        2.07705011038914        5.52067969627343
O           -2.94192434743730        1.91263938797883        3.01658762327703
C            0.21273512614467        5.50086066357994        2.34765104514621
C           -6.06660304520411       -2.17604633098929        5.80641622556876
H            1.41756699010566        4.38133362238595        4.66974005703471
H           -1.82880610647429        4.11982501512100        2.06992133318584
H            3.26888037378556        0.32655662585251        6.31721410015598
H            0.87146188387207       -3.08471526305024        6.57830423410869
H           -3.67716811065157       -3.05999292755990        5.83019634570050
H           -5.77379677507622        0.43595144608221        4.71017130754348
O            1.34459852619901        5.82615848916894        2.44941456579099
O           -0.74718748219123        6.07961784856304        1.59848183464284
C           -0.21473095568964        7.24015934882472        1.05753806029483
C            3.53228080814219       -2.00967610361154        7.02506769044485
O            3.64093082622715       -3.14437803815732        7.50071391725347
O            4.56565258381079       -1.22937033368332        6.69086985080897
C            5.72579357310716       -1.80692399125161        7.22246151275881
O           -7.04801223588612       -1.95726935745904        5.14194115322235
O           -6.01514389321278       -2.93743591896022        6.94765316328794
C           -7.21292732384718       -3.62681918543340        7.15115816329978
C           -4.95459780685163        2.65960679932188        5.86868674392943
C           -3.68284113682406        2.59129188358641        2.05479246020704
H           -7.43119628931628       -4.22607794725959        6.20622607140901
H           -8.06548455146707       -2.91765848248592        7.29781126410398
H           -7.07314693247270       -4.33087306029711        7.91223421050944
H            6.57332189837178       -1.29353136199234        6.78341268688262
H            5.74663761932316       -2.84282155125561        6.88089468184451
H            5.69426191474290       -1.72781984964892        8.29460302186842
H           -4.10481209541493        3.44288266176275        2.60483747673152
H           -4.49244774344916        1.87419893016926        1.82433103764650
H           -3.18901540870812        2.85154642679373        1.06781919454921
H           -5.55414326821421        2.76698137191684        4.93950725322359
H           -4.78658370641210        3.62090640967288        6.25983200635257
H           -5.43485580473958        1.97242995129449        6.65265772412460
H            0.89164886030839        7.38838561720231        1.13776105146914
H           -0.62894889903848        8.04195665205089        1.64837664327952
H           -0.59282546386754        7.45699159724320        0.03719083132488
116
 energy: -22.510449480174 gnorm: 0.592985904776 xtb: 6.6.1 (8d0f1dd)
C           -3.22375695131450        0.15375855962718       -0.71526250788749
C           -2.40469490387735       -0.88022262854036       -0.19613352063259
C           -1.18736266172550       -0.32245525285985        0.48787291527462
C           -0.82560334250392        1.01357883672677        0.10251620998250
C           -1.62570073622707        2.06414784820724       -0.34692211607874
C           -2.88882127331575        1.49962839631751       -0.85321651986243
C           -0.24158860719493       -1.02469524028570        1.35941200916987
C            0.99894525699005       -0.47635368474883        1.68918661677688
C            1.25558538737972        0.87883882487696        1.15423029238759
N            0.43393539265364        1.60332583284002        0.38673169148683
C           -0.59016779467794       -2.06466464028074        2.35832045158587
C            0.41090696651749       -2.89790880773320        2.97632832039982
N            1.74764235336277       -2.48767960277038        2.92874484180347
C            1.92085122735258       -1.18606354990147        2.56252627432794
C            3.18591405988848       -0.51952920617184        2.73826867112878
C            3.53915947592038        0.62680797211039        2.08981896122579
C            2.56643149574962        1.44852790692959        1.46322491615728
C           -1.89370299477020       -2.46983465525515        2.69641318066394
C           -2.29843497578522       -3.75816046305819        3.19982379132547
C           -1.20405894383806       -4.63597062448471        3.61051239476604
C            0.10654875382637       -4.22367902966041        3.58551696918540
O           -2.84659713176942       -1.40218780976114        2.57368255397966
O           -2.73347485484111       -2.16592728996863       -0.76988207600461
C           -3.92793527923765        2.48184217295691       -1.13773395669410
C           -1.59273844160984       -5.87526353245802        4.36755589501197
H           -1.28855258181207        3.12391455836578       -0.29364810135816
H           -4.25578339476321       -0.06278801696601       -0.80431090290805
H            2.94981488509969        2.46457680460618        1.20600920849183
H            3.85777955384433       -1.05593176304343        3.22581849137209
H            0.91887954979878       -4.89531566009383        3.89891441448455
H           -3.19853224949352       -3.70065201505250        3.77319170192199
O           -3.47057606609571        3.60209383029969       -1.37591685282052
O           -5.26151399391229        1.97075577231306       -1.36781087874527
C           -6.37904787941102        3.03296350374125       -1.35679627821804
C            4.76707363302039        1.25823829571445        2.56433981283527
O            5.76731797828636        0.56129883057814        2.45023790584417
O            4.82752865474891        2.54556185254295        2.83036340129204
C            5.92908219173406        2.87449427979169        3.49833923552850
O           -1.93314153954569       -6.95764758398388        3.95391388272001
O           -1.57359627169830       -5.58702454477173        5.71991615928540
C           -2.00857380174211       -6.68910860921164        6.39842988197149
C           -4.25270990334015       -1.70242940553977        2.40641954715877
C           -1.83700099167727       -2.60062050939443       -1.77276606956141
H           -1.10386510781130       -7.08010179858178        6.98065343730497
H           -2.41059352132253       -7.65059647060130        5.81584118563237
H           -2.77835675739471       -6.40296395911845        7.22364903741689
H            6.79611185431523        2.10601695300909        3.42741340609971
H            5.47616179058603        3.50316608041924        4.25292228739945
H            6.22981735897674        3.62230826217383        2.75251213667076
H           -1.27363442666233       -3.32616520743224       -1.09278322778543
H           -0.96131872132454       -2.09501295515052       -1.73580197188239
H           -2.31015671548248       -2.91524851794895       -2.60488384201445
H           -4.54160514957551       -2.28529061924028        3.43775410219663
H           -4.42149568107138       -2.59152811608309        1.80379623057414
H           -4.67258233658970       -0.71922981571139        2.39328814637457
H           -6.39421583053403        3.60186424384943       -0.16583596875785
H           -7.31209794275267        2.40225589417924       -1.52279036894164
H           -6.19985829567151        3.63309835547554       -2.31238695169766
C           -1.61547047559305        4.61098999990898        3.17841778265930
C           -1.90736058735365        3.35919760974283        3.75151904204596
C           -1.03740894111759        2.61617524380857        4.62970997939879
C            0.24515064850862        3.07904731936367        4.51150453842134
C            0.60975485951819        4.28377308994215        3.94404371331473
C           -0.37630740363244        5.09693944208726        3.34628830255749
C           -1.35284811100508        1.38189342233535        5.28924110977526
C           -0.39559871241194        0.45326903155485        5.53470993825963
C            0.87141546033272        0.94540592941370        5.61689671838880
N            1.18117841407574        2.24393950426649        5.22056901283006
C           -2.71082757351563        0.86617977045124        5.58727186962249
C           -2.78849929911761       -0.49406402460391        5.72016476954677
N           -1.77839660171239       -1.35972736493450        5.96369818163524
C           -0.58872014571127       -0.88164752936320        5.93145077354429
C            0.45332843085405       -1.78221237292484        6.06215340307632
C            1.57313890495665       -1.27720443703483        6.59807327059708
C            1.85073107579042        0.07633135449962        6.19158452682611
C           -3.89089578181341        1.71766988288690        5.43156721204270
C           -4.99076358761612        0.94391900212268        5.23176096102657
C           -5.11674075158529       -0.42865321304311        5.26266293419429
C           -3.99866469487726       -1.10807200388967        5.48701212189416
O           -4.01391634393291        3.03645972076808        5.71869593995141
O           -3.14773789067146        2.99589692288813        3.32849717110585
C            0.02770536440285        6.37552590251630        2.81193493077492
C           -6.40484491061401       -1.17660281604777        5.16605067218074
H            1.58614968344665        4.82297933144902        4.23503303040673
H           -2.43728443606543        5.09073128628838        2.73435762130245
H            2.90703577351820        0.44160974733699        5.86366216618992
H            0.31391039937078       -2.92250528815975        5.85009545048692
H           -3.97675387623381       -2.21254329797645        5.23237092960604
H           -5.97509710414405        1.50893826641015        5.07843073367509
O            1.00634650860140        6.67460791528099        1.99896587934845
O           -0.77942628678810        7.59424373454410        3.21489966001195
C           -0.97829564509678        8.43250861251225        2.10452283813777
C            2.52915340893547       -2.41667259236204        7.04662560423207
O            2.30846398664925       -3.62920152131054        6.91004638716637
O            3.86175171991403       -2.00108666580331        7.25907693354195
C            4.40432033107669       -2.88502071690859        8.23609846373834
O           -7.44561776375130       -0.57448223914500        4.92224997726514
O           -6.54273108522761       -2.53320670947902        5.48121208464584
C           -7.73947776334809       -3.25680040826599        5.23936229152299
C           -5.08153252216155        3.31861646368012        6.68423754779286
C           -3.70246423456360        3.14129410819569        2.04695356157306
H           -8.12911649902351       -2.52416876211015        4.44552411654192
H           -8.20412649648409       -3.49592945787249        6.30786647655137
H           -7.35033526102106       -4.12848639962695        4.77897480462494
H            5.28722630531835       -3.33844607639244        7.86784409222200
H            3.82990402734712       -3.73008228635532        8.75931251789026
H            4.95061768267955       -2.09282086391970        8.81151642154817
H           -4.31710465034586        4.04518788703858        1.87593770086213
H           -3.99744522801476        2.26113482016079        1.61176093988075
H           -2.90392309219376        3.42323048239283        1.37385725954976
H           -4.93149370135128        4.18744740214943        7.04144685727999
H           -5.06836275193017        2.59046541071965        7.43062230209481
H           -6.17674310734501        3.12242316430919        6.32137458131090
H           -0.33065832615680        9.32767294349495        2.20750181722208
H           -2.13862288421294        8.59660947156656        2.02556004955333
H           -0.75641597525931        8.16454293851151        1.11708352736770
116
 energy: -22.523267655554 gnorm: 0.544778272786 xtb: 6.6.1 (8d0f1dd)
C           -3.19876573759348       -0.29643209517591       -0.59359147580939
C           -2.10189335981943       -1.09978879773099       -0.17224272187206
C           -1.04938274880004       -0.63470905832003        0.80650762910541
C           -1.07010100401082        0.73985037271932        0.79462284422744
C           -2.10386626567319        1.53931645333901        0.27547022575591
C           -3.14444238026441        1.04980303726891       -0.43434672570445
C           -0.16199812102548       -1.24933647397788        1.67834532113930
C            0.91288297101453       -0.53875864223779        2.10521804625617
C            1.09715224697420        0.84664838917674        1.48037901653794
N            0.07110506667080        1.51224524882794        1.07266229154144
C           -0.55373843348167       -2.37703839162018        2.37242948936369
C            0.28656601441546       -2.97412847746342        3.30137865664909
N            1.47965739914965       -2.42711636218928        3.61368770658658
C            1.84253976275438       -1.15934744452687        2.91414492873897
C            3.12122511168037       -0.43526579518077        3.18688673202938
C            3.46627377675885        0.60726682016093        2.18871844221443
C            2.45707012190501        1.36193419006193        1.55336757006333
C           -1.94354386578990       -2.71732399714055        2.52934572320694
C           -2.16134550148358       -3.95897677876928        3.20973644533218
C           -1.22720461217224       -4.74725337596930        3.82260489373789
C            0.00154660875967       -4.21798495288949        3.83811799211588
O           -2.95494115487545       -1.78217345072294        1.97477310454752
O           -1.90834663187508       -2.33239592831942       -0.75688611066648
C           -4.17091065223189        1.97963588923506       -1.17067170731189
C           -1.44017734426568       -6.15129175683445        4.39585273974430
H           -2.01032082688248        2.60952875711527        0.10827719184057
H           -4.02450188648554       -0.72281252273818       -1.14241807041048
H            2.64567349426053        2.03966250621617        0.70964279404135
H            3.91833647920043       -0.68811308473582        3.85720476184514
H            0.73809808384289       -4.85944168488698        4.33709036272737
H           -3.05511130378362       -4.35203807321412        3.48056263164966
O           -4.30082837656124        3.03000306180926       -0.55998064036439
O           -4.98048385759536        1.35167362122198       -2.09444216513181
C           -5.92786233840481        2.19143762035357       -2.66419131199810
C            4.92592575920172        1.26082266570011        2.14617355151576
O            5.80267748775412        0.71759134792854        2.83153932073937
O            4.96806332752567        2.40594234228808        1.48108904139355
C            6.23576546505288        2.90701385416609        1.31857013183534
O           -2.41530295207821       -6.29097427341684        5.13881931296913
O           -0.65244145536423       -7.18067212671033        3.86560548597486
C           -1.06385938623826       -8.41323942543360        4.45171473007444
C           -4.19819192919294       -1.40151958224848        2.61800643511536
C           -0.44632818942343       -2.80975957390815       -0.71531872806873
H           -0.81206916670965       -8.44366830536263        5.59797005170680
H           -0.13967973970621       -9.07467516365520        3.99844607635236
H           -2.16626510393470       -8.71970273441718        4.26378712083426
H            6.42541836369435        2.79415356490828        0.09124829589598
H            6.82406946069319        2.07664146807944        1.37781538263718
H            6.35483124394478        3.68017456074037        2.30039450883584
H           -0.45327112573733       -2.89567546102391        0.37875341293685
H            0.12100030993232       -2.26251410184134       -1.49840204111599
H           -0.58017806618884       -3.81110151347277       -1.05560821827102
H           -4.27987888415033       -1.99935119790757        3.50996294829938
H           -5.13984456296834       -1.58408053943348        2.06904952780941
H           -3.93875131966779       -0.30551014453667        2.73565365191679
H           -5.70814883769878        3.24872821506055       -2.44688633147600
H           -6.77810390599270        2.23195754772432       -2.05947687534570
H           -6.03491920288946        2.05635952038499       -3.73042663046972
C           -2.21487326942818        4.80444752891401        3.63724075282282
C           -2.33010519378939        3.40593695203607        3.87156373406061
C           -1.41763206580380        2.82109757502815        4.91281978760938
C           -0.11543709949467        3.28959893623234        4.81855532496645
C            0.11676786631966        4.39807399328856        3.89454318304050
C           -0.89089252404097        5.20781122287185        3.38344862413514
C           -1.56396374049929        1.57461854363231        5.69964512039635
C           -0.44871935090937        0.77908360994786        5.96671555383007
C            0.78287762889140        1.31264656714337        5.64608016762380
N            0.99930021946028        2.55972903963388        5.29695256916039
C           -2.85654639866287        0.75257535772207        5.68367427191640
C           -2.94406892025839       -0.57146389995711        6.03808271844362
N           -1.81085046677928       -1.13694967325856        6.60447016182681
C           -0.58054254797121       -0.63828325580901        6.33793967851206
C            0.55166986300951       -1.40717007035690        6.62269766219400
C            1.75937297229681       -0.88080979512734        6.26966260946299
C            1.90662233543489        0.45473957650054        5.76021453271940
C           -4.06094869017433        1.63857278539501        5.53161375510034
C           -5.28820121135887        1.11249664650606        5.52503663361880
C           -5.33103307036334       -0.29790144565473        5.48245309699418
C           -4.14568449131095       -1.15601447085203        5.76248739269479
O           -4.30401456325749        3.04377611541022        5.49323501262612
O           -3.37883404529679        2.60892536836606        3.15141691364149
C           -0.57164902754238        6.50690716736316        2.92870520289327
C           -6.78895039631682       -0.67451040432986        5.67785497115723
H            1.13074006683390        4.45198069702574        3.60874721680656
H           -3.07754583387980        5.38287465706073        3.31140047250414
H            2.73988056424791        1.02699415561872        5.55326536851134
H            0.43119732266997       -2.35400883571690        7.05019422866140
H           -4.37257137150084       -2.19083079393210        6.05418890625948
H           -6.15336514652689        1.84471370732131        5.56581631090366
O           -1.56344805146778        7.23043504628172        3.02783777307394
O            0.70566284619634        6.90316326124091        2.67569460435933
C            0.70337831126036        8.09323559464381        2.25883796144922
C            3.03363566416778       -1.58264634935084        6.62033676888813
O            4.00077382846696       -1.83109940779964        5.89986482290866
O            2.84533009774556       -2.26359022488189        7.86869932409377
C            3.51344571795683       -3.53719165730178        7.95321955218722
O           -7.01351858549522       -1.10521664302887        6.89588197737524
O           -7.37312953077706       -0.34798850951623        4.42226895905679
C           -8.57229622635142       -0.96826335124919        4.58761489927293
C           -3.71208413012446        3.74690167559997        6.66918651991250
C           -4.29926431364298        3.25733488101222        2.25815463314016
H           -9.11821450751647       -0.86072325381885        3.66211965132651
H           -9.10055341342068       -0.42114613123628        5.41300778070152
H           -8.29187574564789       -1.91857581221815        5.08106482255147
H            4.58747298108551       -3.50850824554760        8.21575635500025
H            3.60015960636247       -3.94502907279751        6.91455318048052
H            2.86189987677349       -4.09571161023802        8.58450348035594
H           -5.06697614855252        3.80913173663773        2.79219907026333
H           -4.52436022323921        2.48602312259993        1.48123230785493
H           -3.84367275786474        4.02783016276978        1.59702616652026
H           -2.95701975315884        4.46738626089630        6.37799923253567
H           -3.10796777690953        3.04189598889344        7.33791488174899
H           -4.18508912363131        4.16424773582629        7.41792778729534
H            1.60258436608189        8.59149217315693        2.09409190363116
H           -0.19637354464856        8.80267558387297        2.72364630414794
H            0.27463694587561        7.86857478224376        1.32925146254593
116
 energy: -22.537609477967 gnorm: 0.583576395411 xtb: 6.6.1 (8d0f1dd)
C           -2.72520172638115       -0.39265972850783       -1.24209614703422
C           -1.90710198059829       -1.14527660086832       -0.41494583547684
C           -1.13748153004104       -0.41025665918373        0.67862811749944
C           -1.18582283401006        1.00110426064001        0.71970962086134
C           -2.13517493246622        1.66515685978743       -0.00372812573736
C           -2.89366868894425        0.98980180809402       -0.97373492602950
C           -0.34808316858103       -1.19045217725866        1.62472942425374
C            0.83357911502498       -0.58087633212623        2.08526332760794
C            0.88256782780790        0.88081994511791        1.70000463817359
N            0.06080964088489        1.48954880565798        0.90673608525712
C           -0.47294998420287       -2.56794464134779        2.16155468404040
C            0.69456638964841       -3.21902488293363        2.81244389870246
N            1.85893218326035       -2.45852759001978        3.00494838828106
C            1.87921700490935       -1.13232954181780        2.71560405274540
C            3.03591863001249       -0.36588787079046        3.09341984552323
C            3.16529349539933        0.92716548612885        2.62751358685906
C            2.13553940467188        1.54138230952664        1.95617159825591
C           -1.78131741329166       -3.14290343112890        2.01452586669316
C           -1.93997609609540       -4.43278549177511        2.32919104581098
C           -0.81698595589375       -5.19682379823549        2.92492795124856
C            0.42396488347185       -4.55328868592099        3.17740914002605
O           -2.76891142627999       -2.18569628646227        2.02071649491412
O           -2.00335982054261       -2.55491230738243       -0.51913575673830
C           -3.55417463731725        1.71419923257511       -2.11969564618188
C           -1.06396002222980       -6.55395033258646        3.30062802462695
H           -1.86070616994014        2.68295395690877       -0.23425920344973
H           -3.19262323609402       -0.80306391621195       -2.07358031259614
H            2.24294438693788        2.56335296579651        1.44158729715863
H            3.75165829385666       -0.78409909811298        3.78435010627927
H            1.23153445750330       -5.07746496158231        3.80698317547409
H           -2.72722190451544       -4.89592979324973        1.79491341814980
O           -3.46473655716478        2.88281185140323       -2.07497572914080