116
 energy: -22.928061455056 gnorm: 0.329736929581 xtb: 6.6.1 (8d0f1dd)
C           -3.31122850772930        0.79849766164622       -0.92477639677520
C           -2.44380812530352       -0.12270372891954       -0.27661132624697
C           -1.41337090092821        0.39579727573559        0.56335275196199
C           -0.89266158675590        1.65801491088749        0.27377586709581
C           -1.72665675402493        2.51431363229076       -0.49448366572522
C           -2.95444148494349        2.13954154133227       -1.01494489940871
C           -0.74098268209890       -0.43411532818871        1.49825021926784
C            0.56872586496315        0.03782116815119        1.86248088067890
C            1.03782416582094        1.29402317993033        1.50887470833621
N            0.31238977034758        2.07067427098208        0.65193736800696
C           -1.29695700510141       -1.39996043042223        2.41574187746061
C           -0.38243517664656       -2.18060797534842        3.13232615520648
N            0.91308504082021       -1.90366887689689        3.30325166013478
C            1.37712470144904       -0.74872102533751        2.81811050966982
C            2.52149331701875       -0.17739833758153        3.39379298866852
C            2.95849061756259        1.02681208890480        2.95105897606587
C            2.24288949469137        1.78498308775960        2.03503020483770
C           -2.74860936222260       -1.74497937691422        2.38401158947411
C           -3.09416315450955       -2.91614440870436        3.00571134491758
C           -2.16786021984049       -3.77788778654213        3.63251872101904
C           -0.85708937311598       -3.40495313382985        3.68547234358092
O           -3.71994433332149       -0.94984598373544        1.67726658385724
O           -2.55702603277562       -1.47241711578389       -0.57241635275616
C           -3.84297843593025        3.13357444054366       -1.60938954875544
C           -2.68769581069131       -5.03867041417370        4.30484659386931
H           -1.39666850744143        3.51251503834900       -0.76806311868865
H           -4.27662633836220        0.55105838579656       -1.33106614114542
H            2.66329581305412        2.73912661909249        1.72562431984580
H            3.05775395548473       -0.69369546277216        4.16536137542516
H           -0.24710966264510       -4.12034095424229        4.22946223699121
H           -4.11477991332403       -3.04712728052358        3.03244694615357
O           -4.21824883374556        4.03433712717988       -0.87713382485991
O           -4.44510595673734        2.90643496899600       -2.81853501752979
C           -5.44216520282800        3.83300025693726       -3.02488532025093
C            4.23586651889298        1.50004220933226        3.59165660008449
O            5.05927614697201        0.66079890002952        3.91714215179376
O            4.47001334453535        2.86385149488593        3.72605651435371
C            5.79457498613219        3.08584475587818        4.15829123132174
O           -3.82227255313510       -5.27347675879771        4.16636005494405
O           -1.85023202017753       -5.79767454267276        5.06656077253571
C           -2.55119635829503       -6.86252441382958        5.62930343183426
C           -5.07197156564436       -1.42399175670916        1.58830531863830
C           -1.33089900128490       -2.23622472573986       -0.99264499351172
H           -2.54510546830388       -7.76426885143998        4.99136022291012
H           -3.57194749219491       -6.44405511486021        5.74196173723541
H           -2.09133598235598       -7.02043774843818        6.64022264233588
H            5.72707967266424        3.46798026205549        5.10135971236643
H            6.34060091246885        3.78468702308830        3.50069950143490
H            6.17933064298187        2.03010500085905        4.19342358084693
H           -0.91862729772622       -2.57650129080332       -0.01361370304871
H           -0.49769766914251       -1.60651221708571       -1.34094446550576
H           -1.52632419730509       -2.94569707152159       -1.75361447637286
H           -5.11788846557077       -2.41810833635233        1.17520213188926
H           -5.67929807973498       -0.69619639428435        1.04301666067831
H           -5.57598832326623       -1.42383358739762        2.57928294206544
H           -6.13050215934830        3.76035386975488       -2.23272855695873
H           -5.86615610071888        3.45938329385866       -4.02668959924245
H           -5.13479557532099        4.87790991548477       -2.98314551356402
C           -1.38192942069774        3.73616555005018        2.91232598411686
C           -1.84821468128685        2.59982427735607        3.49755545445181
C           -1.05946531454833        2.05730632010638        4.60922730982276
C            0.19893954712228        2.69376791964407        4.86302140881997
C            0.50425395911860        3.94630308659851        4.28768785650746
C           -0.26031777722226        4.46998310053134        3.25072669343212
C           -1.20488993561782        0.74454293276906        5.14851520323437
C           -0.06287609782692        0.02744069315890        5.60930570802864
C            1.19208754369866        0.71421540266195        5.78882868583885
N            1.19428660993148        2.06344359410476        5.62744624321596
C           -2.41361422770794        0.07928500213936        5.25249410304426
C           -2.45851584031083       -1.32662100968547        5.60237876023992
N           -1.29466212405906       -1.98318595734370        5.89916817085159
C           -0.14475655767527       -1.32117560077092        5.98824682881008
C            0.97209270935794       -1.98958449505532        6.53157704134458
C            2.21982707914082       -1.36973967291181        6.68703967237737
C            2.30561929262884       -0.09745313075593        6.26436900324455
C           -3.73018485967715        0.71367583494582        5.25810242262992
C           -4.89964478833448       -0.06184623426677        5.21204641615509
C           -4.82617965800088       -1.39228978090841        5.46901303780036
C           -3.67144193418464       -1.98914944386360        5.67265433266067
O           -3.75568638935321        2.07705011038914        5.52067969627343
O           -2.94192434743730        1.91263938797883        3.01658762327703
C            0.21273512614467        5.50086066357994        2.34765104514621
C           -6.06660304520411       -2.17604633098929        5.80641622556876
H            1.41756699010566        4.38133362238595        4.66974005703471
H           -1.82880610647429        4.11982501512100        2.06992133318584
H            3.26888037378556        0.32655662585251        6.31721410015598
H            0.87146188387207       -3.08471526305024        6.57830423410869
H           -3.67716811065157       -3.05999292755990        5.83019634570050
H           -5.77379677507622        0.43595144608221        4.71017130754348
O            1.34459852619901        5.82615848916894        2.44941456579099
O           -0.74718748219123        6.07961784856304        1.59848183464284
C           -0.21473095568964        7.24015934882472        1.05753806029483
C            3.53228080814219       -2.00967610361154        7.02506769044485
O            3.64093082622715       -3.14437803815732        7.50071391725347
O            4.56565258381079       -1.22937033368332        6.69086985080897
C            5.72579357310716       -1.80692399125161        7.22246151275881
O           -7.04801223588612       -1.95726935745904        5.14194115322235
O           -6.01514389321278       -2.93743591896022        6.94765316328794
C           -7.21292732384718       -3.62681918543340        7.15115816329978
C           -4.95459780685163        2.65960679932188        5.86868674392943
C           -3.68284113682406        2.59129188358641        2.05479246020704
H           -7.43119628931628       -4.22607794725959        6.20622607140901
H           -8.06548455146707       -2.91765848248592        7.29781126410398
H           -7.07314693247270       -4.33087306029711        7.91223421050944
H            6.57332189837178       -1.29353136199234        6.78341268688262
H            5.74663761932316       -2.84282155125561        6.88089468184451
H            5.69426191474290       -1.72781984964892        8.29460302186842
H           -4.10481209541493        3.44288266176275        2.60483747673152
H           -4.49244774344916        1.87419893016926        1.82433103764650
H           -3.18901540870812        2.85154642679373        1.06781919454921
H           -5.55414326821421        2.76698137191684        4.93950725322359
H           -4.78658370641210        3.62090640967288        6.25983200635257
H           -5.43485580473958        1.97242995129449        6.65265772412460
H            0.89164886030839        7.38838561720231        1.13776105146914
H           -0.62894889903848        8.04195665205089        1.64837664327952
H           -0.59282546386754        7.45699159724320        0.03719083132488
116
 energy: -22.618871922403 gnorm: 0.536406877304 xtb: 6.6.1 (8d0f1dd)
C           -2.97305602266616        0.43367965742658       -1.65969476844224
C           -2.53748876672088       -0.48549123312698       -0.74956368053339
C           -1.59615105823604       -0.08408718439514        0.26639095144293
C           -0.99036154635157        1.31624059203377        0.28852137826803
C           -1.69858359758035        2.18637973528216       -0.52833268245831
C           -2.61838425790048        1.81764201321136       -1.51781784880319
C           -0.92105870708827       -1.05701017608502        1.17961863752068
C            0.35334406271311       -0.69164565484214        1.47122741532165
C            0.88864947585128        0.64479298708631        1.39811377294860
N            0.01238183462516        1.69004492314151        1.18164031669519
C           -1.55931464990854       -2.10990010877351        1.98238980889053
C           -0.68548002357508       -3.10588811076835        2.45719044260773
N            0.73774244133247       -2.93684961239704        2.41679619306543
C            1.16384073381418       -1.73677820938833        1.95140975721863
C            2.49357906778000       -1.51249990284206        2.16388282964326
C            3.03376594740804       -0.28249325253945        1.92121634097333
C            2.29127850431825        0.81608452505547        1.63036356591156
C           -2.91585568092360       -2.21729595430861        2.02950468771958
C           -3.44789526533762       -3.35792580466976        2.44723242428747
C           -2.64168038158996       -4.38562813051627        3.04317959778203
C           -1.21686292688421       -4.22793097093812        3.14005602057901
O           -3.66742402962107       -1.16108798060839        1.54804549080767
O           -2.95634689827651       -1.86447087979695       -1.20454152196742
C           -2.97791115876300        2.95681614559832       -2.42244555956816
C           -3.28947624766831       -5.53175374023295        3.69316637778979
H           -1.33878544321823        3.16169878173802       -0.77384174229038
H           -3.57081376250555        0.11633661694886       -2.42666558382308
H            2.75469124354830        1.81848119464029        1.58887245899320
H            2.91651639410066       -2.42324046154576        2.30768477406499
H           -0.69526943402251       -5.03930072410576        3.52901603786341
H           -4.34664554213924       -3.63623976576954        2.00342062762510
O           -3.53365848138742        2.69002582934973       -3.45051669475183
O           -2.19481904024533        4.05210733858638       -2.07934013129850
C           -2.78077465302925        5.08300512834720       -2.84194657751965
C            4.48593153326988       -0.27721395791002        2.23027997010469
O            4.94132907039034       -1.45953166774948        2.29865698948379
O            5.15265101020599        0.86305547341235        2.58236200894929
C            6.49423779881197        0.41737722513200        3.06331072167402
O           -4.50907639195592       -5.34489100152528        3.81667671329955
O           -2.52982137215324       -6.61181230769559        4.13010161094619
C           -3.19117229883655       -7.49357702995643        5.09821442210216
C           -5.08378138508909       -1.46812653097487        1.60406428578706
C           -2.03437755983582       -2.69286853884907       -1.65085513212268
H           -2.60822965427405       -8.17756796454367        5.78510937382328
H           -3.78600196757053       -8.17697147601364        4.34485853250828
H           -3.80655957339030       -7.00543035530630        5.93250507868406
H            6.68450193263743        1.12720753846353        3.87035846000853
H            7.31355468495895        0.54989063814396        2.20786237717584
H            6.75764426500369       -0.71152786931418        3.36315224799969
H           -1.56448206661098       -3.37150136270873       -0.90549678152409
H           -1.26512825411199       -2.10113597855209       -2.19161919041648
H           -2.36440511862067       -3.22824259573810       -2.61075029411151
H           -5.33038358987493       -2.53422154961947        1.52401271144120
H           -5.80172482711013       -0.73364489488506        1.32029414503960
H           -5.09700538553776       -1.53215091069714        2.72837027090720
H           -3.06486547267683        4.69336246131354       -3.82770082150457
H           -2.27725350333853        6.03879838146714       -2.74827007250708
H           -3.81755925061925        5.21727322560053       -2.31232396196038
C           -2.10351568465362        4.14430370715314        3.47750794222402
C           -2.10283872628010        2.95720398471418        4.01627549959635
C           -1.11058240915802        2.72294677500070        5.09648808914515
C            0.04613994942393        3.55959982036682        5.28489765903698
C           -0.11424808367060        4.81114824377231        4.68364612990123
C           -1.12235171403368        5.05078313714814        3.86996476304662
C           -1.00858810529588        1.49518866287495        5.81483768776015
C            0.24770331418519        0.89781422535958        6.04695424421535
C            1.34347235122220        1.79218285632039        6.17462164712798
N            1.25413968480987        3.05607571615148        5.84498950077328
C           -2.16205667409818        0.70146802066907        6.10506417429846
C           -2.03696385692353       -0.68926218791032        6.10774872493744
N           -0.79584549980238       -1.24957346961012        6.07762216556554
C            0.28863381569760       -0.54747853032732        6.29898794690381
C            1.49759609364349       -1.05941638315904        6.95756489781924
C            2.62910366523438       -0.21171901438253        6.97394639705469
C            2.57414949845295        1.15166855825918        6.49256655522983
C           -3.50124963016589        1.40878410210042        6.28615903271438
C           -4.52378262250720        0.48657861441236        6.05410940297110
C           -4.36720380555732       -0.80154196935141        5.60239842855301
C           -3.15826459534272       -1.47711521851911        5.96508484836226
O           -3.66345565061920        2.71419456818324        6.99100815362896
O           -3.05977773847510        1.85516583048772        3.74217156476774
C           -1.48835297230713        6.48551879171726        3.55256288452940
C           -5.54833336682600       -1.63864656593197        5.49478648683768
H            0.46370887435057        5.72621970704861        5.09096927092339
H           -2.80078733830889        4.34100432981107        2.68401190643209
H            3.38729573691204        1.80242643176183        6.62456234822843
H            1.69295115354059       -1.88808569462465        7.60682902963790
H           -3.19886064289782       -2.54463216043191        5.93613808956547
H           -5.40780959727984        0.95223800783753        5.77506094800612
O           -0.89326568167999        7.42340598063732        3.27329344984323
O           -2.88919961870633        6.38390803677181        3.33192090856884
C           -3.45964453274368        7.52646373647536        2.95603489144516
C            3.93902167725141       -0.65111758325997        7.58203925808668
O            4.15060035273654       -1.65698298599418        8.10508887873624
O            4.94137603854039        0.23078375426421        7.52084823776451
C            5.89922647833784       -0.15548507416467        8.52432274955407
O           -6.48032633828391       -1.55510422912114        4.64941622240858
O           -5.71324306782985       -2.57698791636545        6.52746869333996
C           -6.84556678818876       -3.37889876958177        6.28589859999970
C           -4.78134189288890        3.48883425520433        6.61032253380862
C           -2.36720573855300        1.03357652186690        3.01449817450986
H           -7.91524514433234       -3.18829508973098        6.65481407336154
H           -6.63645365467148       -4.45757397301969        6.52683066673785
H           -7.06960236892550       -3.32810215927099        5.20391866341909
H            6.65622012779990        0.53969940560151        8.11456036629777
H            6.25799996736158       -1.17134842882690        8.44754131229151
H            5.34622879687002        0.29307337440060        9.38263172445420
H           -1.52699941932863        1.71889699185486        2.55788790730107
H           -3.20803307145896        0.44506760984740        2.56547952591077
H           -1.68564913990744        0.29365535189331        3.43831208313705
H           -5.50302425776764        3.53000066867121        7.43707805489697
H           -5.03994198303766        2.95923232750044        5.69594358913807
H           -4.17683626010073        4.25507240419619        6.09263480812664
H           -3.08381463402786        7.78156917294842        1.93025477592186
H           -3.27403875065684        8.20731491762369        3.73880968020629
H           -4.55721786222062        7.25287605317504        2.88023457709855
116
 energy: -22.580398340044 gnorm: 0.598098657902 xtb: 6.6.1 (8d0f1dd)
C           -2.71895388269289       -0.09277263634748       -1.51540624312894
C           -2.11570371806928       -1.09694585276714       -0.81158596873914
C           -1.00282819266245       -0.80586810596686        0.07425835715818
C           -0.26468876168575        0.34363795511632       -0.11836818515514
C           -0.79842610363623        1.29412443342316       -1.08143599962942
C           -2.12087316860512        1.12087741413206       -1.54137692879442
C           -0.65073768058621       -1.69599984250636        1.08497998117582
C            0.71116664194393       -1.53545367502492        1.50267035671432
C            1.53088641396263       -0.40422325707785        1.47611273030928
N            0.99161636858885        0.63948451482210        0.60357796357264
C           -1.54086166731116       -2.54416290362211        1.88158074692575
C           -0.87830327982796       -3.67037902154246        2.49568057898480
N            0.49996133074295       -3.81832015280926        2.45993464628293
C            1.17095735394399       -2.63653087079682        2.29435362050837
C            2.41044654738786       -2.57261353573736        2.80341518599458
C            3.31479492305273       -1.51685446313786        2.67725316118602
C            2.88204837903648       -0.39397196960426        1.92328670182912
C           -2.98600100501643       -2.36978376515262        1.94713889946113
C           -3.81666508866731       -3.41636153107179        2.25423033221194
C           -3.24875592279503       -4.59332351591518        2.81628235503395
C           -1.90221571312842       -4.82317709587628        2.70513996386193
O           -3.45708898067316       -1.10490265266814        1.46822344225644
O           -2.43375086343602       -2.54501215473771       -0.94671079324852
C           -2.69778586106722        2.12715387008128       -2.52910838103388
C           -4.27743488994583       -5.71342259340437        3.06585928620657
H           -0.43124889469725        2.33071218356975       -1.05776693337045
H           -3.35948750817605       -0.33238555062705       -2.24140821753824
H            3.46453303611228        0.42827278831268        1.64730650945027
H            2.73196789987987       -3.40095525736056        3.63494422721520
H           -1.35933695124871       -5.66217733745520        3.03425854694492
H           -4.86670901181087       -3.62479707524788        2.00169492780596
O           -3.83168237670866        1.95769007139923       -2.98127759606534
O           -1.98671589113005        3.19192442917926       -2.68714357670563
C           -2.57939710775379        3.94808792930441       -3.76601903321043
C            4.66819026345274       -1.65497422557875        3.16147915086299
O            5.14726199587972       -2.73335566301894        3.49591324207643
O            5.33085582912635       -0.46538060553207        3.61511698281272
C            6.54147975341664       -0.60176996667382        4.39364635685773
O           -5.44603946861690       -5.54100456116833        3.40656252691682
O           -3.72661209074840       -6.87240560936680        2.55753334932048
C           -4.53555034645906       -7.95346370888807        2.77330967139676
C           -4.83839457178493       -0.75634635676113        1.81170155211298
C           -3.74600782757081       -3.02531577793733       -0.71900029276483
H           -5.37094670126527       -8.00184848164711        2.13625446912113
H           -5.02568147676454       -7.89260632468206        3.83291230301515
H           -3.92824864805996       -8.86546016097317        2.54440901082393
H            6.07716091975692       -0.43318389644995        5.39224510279884
H            7.45328380372411        0.10566191689272        4.32727133096455
H            6.82406087491776       -1.61195721271729        4.09147187815958
H           -4.11419318368835       -2.82856677948276        0.18071393910612
H           -3.77042949298660       -4.17106685783363       -0.93258188670507
H           -4.30869631189110       -2.64619471447493       -1.59202133956868
H           -5.36984299064668       -1.38286360278735        1.03927903300300
H           -4.95508943373001        0.36681608957638        1.81097225465719
H           -5.11729168023173       -1.05227986531081        2.73065326366830
H           -2.28001840277588        3.56084993419002       -4.71014922311856
H           -2.39788905895757        4.94713981174582       -3.76535328659627
H           -3.79662222131740        3.87950985591107       -3.70078817045510
C           -2.64357594880919        5.48897140240841        4.61223531836917
C           -2.51837034654669        4.15196422167933        4.54837181651901
C           -1.50950889681990        3.47212039608991        5.21716659074299
C           -0.72750929619175        4.25650252568931        6.14644079592963
C           -1.19787082233326        5.49583778420798        6.45371576214969
C           -2.06266871627961        6.16108124866581        5.64203681443228
C           -1.27040884831721        2.08174811019715        5.29135174028137
C            0.01429285270211        1.68680277230802        5.71639695609052
C            0.84757596087565        2.74552618486528        6.32099929361856
N            0.51083780807761        3.97115165869193        6.57420863826511
C           -2.30794729633603        1.10589377973324        4.96928619172117
C           -1.65385460850733       -0.16999868345514        4.65874108626527
N           -0.21687330791436       -0.27449101435483        4.54510088509016
C            0.59974297580172        0.49049660539770        5.18088358512540
C            2.01384047616084        0.15550140107934        5.34462597330933
C            2.72254426889758        0.98643544321972        6.25680834660740
C            2.12968242814095        2.20475693963555        6.71074030005834
C           -3.74705607741181        1.17884053829618        5.23133773119556
C           -4.27747141980007        0.01092607575544        5.66506198486529
C           -3.69449247191720       -1.27675589283405        5.45049103670721
C           -2.55360066013161       -1.34106840973941        4.72080290922164
O           -4.38693183642578        2.32124478899059        5.52422496829227
O           -3.34710931705488        3.60274077246169        3.51723981396477
C           -2.03747154638415        7.68054752086038        5.56176532215480
C           -4.28519264294571       -2.35049176714092        6.33153020583890
H           -0.79662365219898        6.16084292134579        7.37850892089496
H           -3.51964014088627        5.77798495547639        4.01985331456811
H            2.58885640323007        2.75972661491439        7.49726791570434
H            2.47815426493594       -0.50044129276103        4.76580508359953
H           -2.18659102860798       -2.26865864663148        4.51050884309093
H           -5.17390245436596        0.05909008390005        6.11568716645387
O           -1.22613261424321        8.39286507697387        6.20208597733030
O           -2.90628666319007        8.28672907579016        4.68115671809625
C           -2.27738240511486        9.51438728314150        4.24422827309804
C            4.10914878136061        0.63556007310384        6.57027873844067
O            4.41535907853383       -0.62204461111930        6.73327556467875
O            4.72743004426757        1.69936855545344        6.95959944847590
C            5.93222502230700        1.22270369074329        7.42506970176201
O           -4.66488999118827       -1.94122133403893        7.46983743120478
O           -4.18501408446837       -3.70439231980191        5.91008269895957
C           -5.34125014896549       -4.20394210785322        6.58502042754845
C           -5.47825773624122        2.38813008046368        6.27655634181484
C           -2.82199956183441        2.66192652810216        2.57907769772833
H           -5.83901648671947       -5.00301020170355        6.13321906938679
H           -6.16230380916365       -3.39223682918425        6.87875958905316
H           -5.07803921766124       -4.48064506095654        7.58567646459541
H            6.60560903349306        1.30957640787902        6.52875865820851
H            5.94624611874783        0.19747772326850        8.02070328011649
H            6.39872766380323        1.96261419850662        8.08381956008251
H           -1.60555357727021        2.58010025325465        2.52871024519811
H           -3.01822412799512        2.88114861709792        1.49427149735323
H           -3.45245279161503        1.74652769957695        2.64335231366745
H           -5.94284968412587        3.35632145805782        6.36551647886228
H           -5.66242806291260        1.64983040391843        7.26889883747439
H           -6.15223908828693        1.98104855303655        5.40640168433882
H           -2.15362224812280        9.44264792234956        3.11169761805661
H           -1.30962020154347        9.53279825548102        4.53480157558551
H           -2.67734763439175       10.47909773545383        4.67771331358681
116
 energy: -22.661339971544 gnorm: 0.558841591089 xtb: 6.6.1 (8d0f1dd)
C           -2.96235299176831        0.14388446950981       -0.78357128685149
C           -2.71695767290337       -1.10902962657159       -0.08978122252916
C           -1.85424023331824       -1.02044956989414        1.05397411529836
C           -0.76344077811826        0.04133819632329        1.05813018801675
C           -0.82434450677207        0.96165891425845        0.06087633018420
C           -1.90867585650297        1.14667247942679       -0.74613344040826
C           -1.39023800379011       -2.26325412495479        1.68266474049271
C           -0.12751304662791       -2.40633768239482        2.22645531106573
C            0.48987906688854       -1.11810127795122        2.54466906131609
N            0.20535735360107        0.05024742864262        2.07867546700957
C           -2.27594117704330       -3.42125038381824        1.92580199427168
C           -1.68266193600146       -4.62168026716430        2.28406119039766
N           -0.32776721180901       -4.76144424529532        2.56969159404208
C            0.45496206533020       -3.67763425271635        2.59961267036366
C            1.77709168631511       -3.54817025935797        2.98113600768570
C            2.36139574245373       -2.34565066859078        3.41888168288414
C            1.71960954634629       -1.23856820498062        3.23830854138336
C           -3.66453854122719       -3.25963783804252        1.90345212372094
C           -4.35182373854417       -4.50865118957455        1.96537810496336
C           -3.80823264634232       -5.69763588072819        1.86802716440654
C           -2.44475341625668       -5.78102312136900        2.15464137653253
O           -4.22913550977010       -1.94541740506481        2.12104952079244
O           -3.23946457772795       -2.30219126034540       -0.52498820772661
C           -1.84257685153214        2.33345818338639       -1.64500537348912
C           -4.76970588391295       -6.84012635609432        2.03927093526567
H           -0.11469008207940        1.79004949078621        0.03892338701350
H           -3.79639338101774        0.22591427731126       -1.44481266104092
H            2.22313708659866       -0.31644770372068        3.38433059430397
H            2.29531785725304       -4.46633606713513        3.06430592784091
H           -1.86959464431789       -6.70044478791632        2.17045241122078
H           -5.43791155473848       -4.53887838018248        1.83275722061230
O           -2.65313422818389        3.21158204411912       -1.57592847275713