Optimization of monomers started
Stacking dimer
Calculating transfer integral
Reorganization energy (electron): 0.05550280500981158 eV
Reorganization energy (hole): 0.04525024781599374 eV
Electron Transfer integral J: 0.012 eV
Hole Transfer integral J: 0.006 eV
                   |     
     |                         S. Grimme                         |     
     |          Mulliken Center for Theoretical Chemistry        |     
     |                    University of Bonn                     |     
      -----------------------------------------------------------      

   * xtb version 6.7.1 (edcfbbe) compiled by 'runner@Mac-1732539442253.local' on 2024-11-25

   xtb is free software: you can redistribute it and/or modify it under
   the terms of the GNU Lesser General Public License as published by
   the Free Software Foundation, either version 3 of the License, or
   (at your option) any later version.
   
   xtb is distributed in the hope that it will be useful,
   but WITHOUT ANY WARRANTY; without even the implied warranty of
   MERCHANTABILITY or FITNESS FOR A PARTICULAR PURPOSE.  See the
   GNU Lesser General Public License for more details.
   
   Cite this work as:
   * C. Bannwarth, E. Caldeweyher, S. Ehlert, A. Hansen, P. Pracht,
     J. Seibert, S. Spicher, S. Grimme, WIREs Comput. Mol. Sci., 2020, 11,
     e01493. DOI: 10.1002/wcms.1493
   
   for GFN2-xTB:
   * C. Bannwarth, S. Ehlert and S. Grimme., J. Chem. Theory Comput., 2019,
     15, 1652-1671. DOI: 10.1021/acs.jctc.8b01176
   for GFN1-xTB:
   * S. Grimme, C. Bannwarth, P. Shushkov, J. Chem. Theory Comput., 2017,
     13, 1989-2009. DOI: 10.1021/acs.jctc.7b00118
   for GFN0-xTB:
   * P. Pracht, E. Caldeweyher, S. Ehlert, S. Grimme, ChemRxiv, 2019, preprint.
     DOI: 10.26434/chemrxiv.8326202.v1
   for GFN-FF:
   * S. Spicher and S. Grimme, Angew. Chem. Int. Ed., 2020, 59, 15665-15673.
     DOI: 10.1002/anie.202004239
   
   for ALPB and GBSA implicit solvation:
   * S. Ehlert, M. Stahn, S. Spicher, S. Grimme, J. Chem. Theory Comput.,
     2021, 17, 4250-4261. DOI: 10.1021/acs.jctc.1c00471
   
   for ddCOSMO and CPCM-X implicit solvation:
   * M. Stahn, S. Ehlert, S. Grimme, J. Phys. Chem. A,
     2023, XX, XXXX-XXXX. DOI: 10.1021/acs.jpca.3c04382
   
   for DFT-D4:
   * E. Caldeweyher, C. Bannwarth and S. Grimme, J. Chem. Phys., 2017,
     147, 034112. DOI: 10.1063/1.4993215
   * E. Caldeweyher, S. Ehlert, A. Hansen, H. Neugebauer, S. Spicher,
     C. Bannwarth and S. Grimme, J. Chem. Phys., 2019, 150, 154122.
     DOI: 10.1063/1.5090222
   * E. Caldeweyher, J.-M. Mewes, S. Ehlert and S. Grimme, Phys. Chem. Chem. Phys.
     2020, 22, 8499-8512. DOI: 10.1039/D0CP00502A
   
   for sTDA-xTB:
   * S. Grimme and C. Bannwarth, J. Chem. Phys., 2016, 145, 054103.
     DOI: 10.1063/1.4959605
   
   in the mass-spec context:
   * V. Asgeirsson, C. Bauer and S. Grimme, Chem. Sci., 2017, 8, 4879.
     DOI: 10.1039/c7sc00601b
   * J. Koopman and S. Grimme, ACS Omega 2019, 4, 12, 15120-15133.
     DOI: 10.1021/acsomega.9b02011
   
   for metadynamics refer to:
   * S. Grimme, J. Chem. Theory Comput., 2019, 155, 2847-2862
     DOI: 10.1021/acs.jctc.9b00143
   
   for SPH calculations refer to:
   * S. Spicher and S. Grimme, J. Chem. Theory Comput., 2021, 17, 1701-1714
     DOI: 10.1021/acs.jctc.0c01306
   
   for ONIOM refer to:
   * C. Plett, A. Katbashev, S. Ehlert, S. Grimme, M. Bursch,
     Phys. Chem. Chem. Phys., 2023, 25, 17860-17868. DOI: 10.1039/D3CP02178E
   
   for DIPRO refer to:
   * J. Kohn, N. Gildemeister, S. Grimme, D. Fazzi, A. Hansen,
     J. Chem. Phys., 2023, just accepted.
   
   for PTB refer to:
   * S. Grimme, M. Mueller, A. Hansen, J. Chem. Phys., 2023, 158, 124111.
     DOI: 10.1063/5.0137838
   
   with help from (in alphabetical order)
   P. Atkinson, C. Bannwarth, F. Bohle, G. Brandenburg, E. Caldeweyher
   M. Checinski, S. Dohm, S. Ehlert, S. Ehrlich, I. Gerasimov, C. Hölzer
   A. Katbashev, J. Kohn, J. Koopman, C. Lavigne, S. Lehtola, F. März, M. Müller,
   F. Musil, H. Neugebauer, J. Pisarek, C. Plett, P. Pracht, F. Pultar,
   J. Seibert, P. Shushkov, S. Spicher, M. Stahn, M. Steiner, T. Strunk,
   J. Stückrath, T. Rose, and J. Unsleber
   
 * started run on 2025/02/06 at 16:42:05.442     
   ID    Z sym.   atoms
    1    6 C      1-9, 11, 12, 14-33
    2    7 N      10, 13
    3    1 H      34-66
    4    8 O      67

           -------------------------------------------------
          |                Calculation Setup                |
           -------------------------------------------------

          program call               : xtb ClosedR.mol --opt --gfn 2 --chrg 0 --uhf 1 --tight
          coordinate file            : ClosedR.mol
          omp threads                :                     8


molecular fragmentation (1/2 indicates fragments):
1111111111111111111111111121121121111112221121121122221122221121121
# atoms in fragment 1/2:    49    18
 fragment masses (1/2) :      398.46       51.15
CMA distance (Bohr)    :   2.950
constraining FC (au)   :  0.0500
########################################################################
[WARNING] Please study the warnings concerning your input carefully
-1- prog_main_parseArguments: Unknown option '--tight' provided
########################################################################

           -------------------------------------------------
          |                 G F N 2 - x T B                 |
           -------------------------------------------------

        Reference                      10.1021/acs.jctc.8b01176
      * Hamiltonian:
        H0-scaling (s, p, d)           1.850000    2.230000    2.230000
        zeta-weighting                 0.500000
      * Dispersion:
        s8                             2.700000
        a1                             0.520000
        a2                             5.000000
        s9                             5.000000
      * Repulsion:
        kExp                           1.500000    1.000000
        rExp                           1.000000
      * Coulomb:
        alpha                          2.000000
        third order                    shell-resolved
        anisotropic                    true
        a3                             3.000000
        a5                             4.000000
        cn-shift                       1.200000
        cn-exp                         4.000000
        max-rad                        5.000000


          ...................................................
          :                      SETUP                      :
          :.................................................:
          :  # basis functions                 169          :
          :  # atomic orbitals                 169          :
          :  # shells                          101          :
          :  # electrons                       173          :
          :  max. iterations                   250          :
          :  Hamiltonian                  GFN2-xTB          :
          :  restarted?                      false          :
          :  GBSA solvation                  false          :
          :  PC potential                    false          :
          :  electronic temp.          300.0000000     K    :
          :  accuracy                    1.0000000          :
          :  -> integral cutoff          0.2500000E+02      :
          :  -> integral neglect         0.1000000E-07      :
          :  -> SCF convergence          0.1000000E-05 Eh   :
          :  -> wf. convergence          0.1000000E-03 e    :
          :  Broyden damping             0.4000000          :
          :  net charge                          0          :
          :  unpaired electrons                  1          :
          ...................................................

 iter      E             dE          RMSdq      gap      omega  full diag
   1    -90.8464643 -0.908465E+02  0.592E+00    1.02       0.0  T
   2    -90.8959314 -0.494671E-01  0.368E+00    1.06       1.0  T
   3    -90.1713152  0.724616E+00  0.356E+00    0.75       1.0  T
   4    -90.8679752 -0.696660E+00  0.160E+00    0.99       1.0  T
   5    -91.0395152 -0.171540E+00  0.706E-01    1.03       1.0  T
   6    -91.0754544 -0.359392E-01  0.227E-01    1.04       1.0  T
   7    -91.0758865 -0.432064E-03  0.192E-01    1.08       1.0  T
   8    -91.0772273 -0.134084E-02  0.123E-01    1.04       1.0  T
   9    -91.0778717 -0.644370E-03  0.680E-02    1.06       1.0  T
  10    -91.0781083 -0.236620E-03  0.301E-02    1.06       1.0  T
  11    -91.0781651 -0.568269E-04  0.170E-02    1.05       1.0  T
  12    -91.0781888 -0.236553E-04  0.636E-03    1.06       1.9  T
  13    -91.0781909 -0.209373E-05  0.332E-03    1.06       3.7  T
  14    -91.0781913 -0.434284E-06  0.188E-03    1.06       6.5  T
  15    -91.0781915 -0.192198E-06  0.903E-04    1.06      13.5  T
  16    -91.0781915 -0.437889E-07  0.459E-04    1.06      26.6  T

   *** convergence criteria satisfied after 16 iterations ***

         #    Occupation            Energy/Eh            Energy/eV
      -------------------------------------------------------------
         1        2.0000           -0.6595822             -17.9481
       ...           ...                  ...                  ...
        81        2.0000           -0.3926460             -10.6844
        82        2.0000           -0.3868611             -10.5270
        83        2.0000           -0.3805673             -10.3558
        84        2.0000           -0.3786418             -10.3034
        85        2.0000           -0.3783447             -10.2953
        86        1.9999           -0.3655911              -9.9482
        87        1.0001           -0.3485015              -9.4832 (HOMO)
        88                         -0.3097070              -8.4276 (LUMO)
        89                         -0.2894580              -7.8766
        90                         -0.2870502              -7.8110
        91                         -0.2854215              -7.7667
        92                         -0.2713275              -7.3832
       ...                                ...                  ...
       169                          0.1685541               4.5866
      -------------------------------------------------------------
                  HL-Gap            0.0387945 Eh            1.0557 eV
             Fermi-level           -0.3430753 Eh           -9.3356 eV

 SCC (total)                   0 d,  0 h,  0 min,  0.995 sec
 SCC setup                      ...        0 min,  0.001 sec (  0.115%)
 Dispersion                     ...        0 min,  0.001 sec (  0.106%)
 classical contributions        ...        0 min,  0.000 sec (  0.030%)
 integral evaluation            ...        0 min,  0.003 sec (  0.290%)
 iterations                     ...        0 min,  0.953 sec ( 95.751%)
 molecular gradient             ...        0 min,  0.025 sec (  2.513%)
 printout                       ...        0 min,  0.012 sec (  1.192%)

         :::::::::::::::::::::::::::::::::::::::::::::::::::::
         ::                     SUMMARY                     ::
         :::::::::::::::::::::::::::::::::::::::::::::::::::::
         :: total energy             -90.830693278011 Eh    ::
         :: gradient norm              0.533778557766 Eh/a0 ::
         :: HOMO-LUMO gap              1.055651512174 eV    ::
         ::.................................................::
         :: SCC energy               -91.078218959639 Eh    ::
         :: -> isotropic ES            0.027274690295 Eh    ::
         :: -> anisotropic ES          0.038517029422 Eh    ::
         :: -> anisotropic XC          0.124487027722 Eh    ::
         :: -> dispersion             -0.067977642256 Eh    ::
         :: repulsion energy           0.247525681628 Eh    ::
         :: add. restraining           0.000000000000 Eh    ::
         :: total charge               0.000000000335 e     ::
         :::::::::::::::::::::::::::::::::::::::::::::::::::::

      ----------------------------------------------------------- 
     |                   =====================                   |
     |                        A N C O P T                        |
     |                   =====================                   |
     |               Approximate Normal Coordinate               |
     |                Rational Function Optimizer                |
      ----------------------------------------------------------- 
      ----------------------------------------------------------- 
     |                   =====================                   |
     |                        A N C O P T                        |
     |                   =====================                   |
     |               Approximate Normal Coordinate               |
     |                Rational Function Optimizer                |
      ----------------------------------------------------------- 

          ...................................................
          :                      SETUP                      :
          :.................................................:
          :   optimization level            normal          :
          :   max. optcycles                   201          :
          :   ANC micro-cycles                  20          :
          :   degrees of freedom               195          :
          :.................................................:
          :   RF solver                   davidson          :
          :   write xtbopt.log                true          :
          :   linear?                        false          :
          :   energy convergence         0.5000000E-05 Eh   :
          :   grad. convergence          0.1000000E-02 Eh/α :
          :   maxmium RF displ.          1.0000000          :
          :   Hlow (freq-cutoff)         0.1000000E-01      :
          :   Hmax (freq-cutoff)         5.0000000          :
          :   S6 in model hess.         20.0000000          :
          ...................................................

generating ANC from exact Hessian ...
Using Lindh-Hessian (1995)
 Shifting diagonal of input Hessian by    1.0494296331266417E-002
 Lowest  eigenvalues of input Hessian
    0.010000    0.010029    0.010036    0.010048    0.010051    0.010065
    0.010073    0.010088    0.010109    0.010135    0.010209    0.010230
    0.010260    0.010305    0.010336    0.010401    0.000000    0.010438
 Highest eigenvalues
    0.821474    0.825253    0.832741    0.862398    0.931801    0.932870


........................................................................
.............................. CYCLE    1 ..............................
........................................................................

 iter      E             dE          RMSdq      gap      omega  full diag
   1    -91.0781915 -0.910782E+02  0.197E-04    1.06       0.0  T
   2    -91.0781915  0.422527E-08  0.274E-04    1.06      44.6  T
   3    -91.0781916 -0.569740E-08  0.901E-05    1.06     135.6  T
     SCC iter.                  ...        0 min,  0.193 sec
     gradient                   ...        0 min,  0.021 sec
 * total energy  :   -90.8306933 Eh     change       -0.1503838E-07 Eh
   gradient norm :     0.5337774 Eh/α   predicted     0.0000000E+00 (-100.00%)
   displ. norm   :     0.8859380 α      lambda       -0.4639339E+00
   maximum displ.:     0.4748962 α      in ANC's #127, #123, #124, ...

........................................................................
.............................. CYCLE    2 ..............................
........................................................................

 iter      E             dE          RMSdq      gap      omega  full diag
   1    -91.5913610 -0.915914E+02  0.573E-01    1.16       0.0  T
   2    -91.5906094  0.751659E-03  0.359E-01    1.12       1.0  T
   3    -91.5837384  0.687101E-02  0.406E-01    1.21       1.0  T
   4    -91.5923946 -0.865619E-02  0.142E-01    1.14       1.0  T
   5    -91.5935212 -0.112667E-02  0.543E-02    1.15       1.0  T
   6    -91.5937259 -0.204707E-03  0.217E-02    1.15       1.0  T
   7    -91.5937356 -0.961951E-05  0.161E-02    1.15       1.0  T
   8    -91.5937422 -0.660270E-05  0.847E-03    1.15       1.4  T
   9    -91.5937483 -0.615563E-05  0.200E-03    1.15       6.1  T
  10    -91.5937482  0.840276E-07  0.202E-03    1.15       6.0  T
  11    -91.5937486 -0.368848E-06  0.456E-04    1.15      26.8  T
  12    -91.5937486  0.174630E-08  0.401E-04    1.15      30.5  T
     SCC iter.                  ...        0 min,  0.644 sec
     gradient                   ...        0 min,  0.033 sec
 * total energy  :   -91.2680701 Eh     change       -0.4373768E+00 Eh
   gradient norm :     0.4713883 Eh/α   predicted    -0.4140347E+00 (  -5.34%)
   displ. norm   :     0.9370412 α      lambda       -0.4386858E+00
   maximum displ.:     0.4509085 α      in ANC's #127, #123, #142, ...

........................................................................
.............................. CYCLE    3 ..............................
........................................................................

 iter      E             dE          RMSdq      gap      omega  full diag
   1    -92.1238759 -0.921239E+02  0.557E-01    1.30       0.0  T
   2    -92.1247301 -0.854190E-03  0.326E-01    1.26       1.0  T
   3    -92.1203379  0.439220E-02  0.328E-01    1.33       1.0  T
   4    -92.1259744 -0.563651E-02  0.124E-01    1.27       1.0  T
   5    -92.1266380 -0.663592E-03  0.572E-02    1.28       1.0  T
   6    -92.1269066 -0.268541E-03  0.177E-02    1.29       1.0  T
   7    -92.1269032  0.331940E-05  0.153E-02    1.28       1.0  T
   8    -92.1269148 -0.115290E-04  0.611E-03    1.29       2.0  T
   9    -92.1269167 -0.190039E-05  0.288E-03    1.28       4.2  T
  10    -92.1269171 -0.445944E-06  0.164E-03    1.28       7.4  T
  11    -92.1269173 -0.226147E-06  0.460E-04    1.28      26.5  T
  12    -92.1269174 -0.883703E-08  0.231E-04    1.28      52.9  T
     SCC iter.                  ...        0 min,  0.761 sec
     gradient                   ...        0 min,  0.014 sec
 * total energy  :   -91.6722698 Eh     change       -0.4041997E+00 Eh
   gradient norm :     0.3913563 Eh/α   predicted    -0.4119525E+00 (   1.92%)
   displ. norm   :     0.9149214 α      lambda       -0.3556447E+00
   maximum displ.:     0.4068201 α      in ANC's #127, #123, #142, ...

........................................................................
.............................. CYCLE    4 ..............................
........................................................................

 iter      E             dE          RMSdq      gap      omega  full diag
   1    -92.6102435 -0.926102E+02  0.502E-01    1.44       0.0  T
   2    -92.6111525 -0.909070E-03  0.294E-01    1.41       1.0  T
   3    -92.6081073  0.304524E-02  0.273E-01    1.47       1.0  T
   4    -92.6119926 -0.388534E-02  0.102E-01    1.41       1.0  T
   5    -92.6125020 -0.509387E-03  0.441E-02    1.43       1.0  T
   6    -92.6126569 -0.154889E-03  0.137E-02    1.43       1.0  T
   7    -92.6126535  0.338462E-05  0.114E-02    1.43       1.1  T
   8    -92.6126604 -0.687730E-05  0.394E-03    1.43       3.1  T
   9    -92.6126609 -0.508665E-06  0.221E-03    1.43       5.5  T
  10    -92.6126612 -0.257671E-06  0.994E-04    1.43      12.3  T
  11    -92.6126612 -0.705507E-07  0.390E-04    1.43      31.3  T
     SCC iter.                  ...        0 min,  0.641 sec
     gradient                   ...        0 min,  0.028 sec
 * total energy  :   -91.9888696 Eh     change       -0.3165999E+00 Eh
   gradient norm :     0.3021649 Eh/α   predicted    -0.3266741E+00 (   3.18%)
   displ. norm   :     0.8982726 α      lambda       -0.2682464E+00
   maximum displ.:     0.3822135 α      in ANC's #123, #127, #118, ...

........................................................................
.............................. CYCLE    5 ..............................
........................................................................

 iter      E             dE          RMSdq      gap      omega  full diag
   1    -93.0104365 -0.930104E+02  0.415E-01    1.52       0.0  T
   2    -93.0103985  0.379982E-04  0.266E-01    1.49       1.0  T
   3    -93.0080715  0.232697E-02  0.239E-01    1.55       1.0  T
   4    -93.0115448 -0.347326E-02  0.723E-02    1.50       1.0  T
   5    -93.0118439 -0.299105E-03  0.271E-02    1.52       1.0  T
   6    -93.0118896 -0.457426E-04  0.993E-03    1.51       1.2  T
   7    -93.0118864  0.324530E-05  0.906E-03    1.51       1.3  T
   8    -93.0118914 -0.499161E-05  0.301E-03    1.51       4.1  T
   9    -93.0118920 -0.592040E-06  0.148E-03    1.51       8.2  T
  10    -93.0118921 -0.143068E-06  0.549E-04    1.51      22.3  T
  11    -93.0118921 -0.168371E-07  0.219E-04    1.51      55.7  T
     SCC iter.                  ...        0 min,  0.626 sec
     gradient                   ...        0 min,  0.032 sec
 * total energy  :   -92.2271330 Eh     change       -0.2382633E+00 Eh
   gradient norm :     0.2347741 Eh/α   predicted    -0.2423467E+00 (   1.71%)
   displ. norm   :     0.8992830 α      lambda       -0.2075811E+00
   maximum displ.:     0.3683726 α      in ANC's #123, #118, #72, ...

........................................................................
.............................. CYCLE    6 ..............................
........................................................................

 iter      E             dE          RMSdq      gap      omega  full diag
   1    -93.3173029 -0.933173E+02  0.355E-01    1.53       0.0  T
   2    -93.3167480  0.554961E-03  0.260E-01    1.49       1.0  T
   3    -93.3162173  0.530605E-03  0.196E-01    1.56       1.0  T
   4    -93.3183132 -0.209582E-02  0.549E-02    1.50       1.0  T
   5    -93.3185142 -0.201061E-03  0.155E-02    1.52       1.0  T
   6    -93.3185239 -0.965870E-05  0.754E-03    1.52       1.6  T
   7    -93.3185238  0.717564E-07  0.572E-03    1.52       2.1  T
   8    -93.3185251 -0.129519E-05  0.287E-03    1.52       4.3  T
   9    -93.3185258 -0.640090E-06  0.801E-04    1.52      15.3  T
  10    -93.3185258 -0.410093E-07  0.332E-04    1.52      36.8  T
     SCC iter.                  ...        0 min,  0.661 sec
     gradient                   ...        0 min,  0.018 sec
 * total energy  :   -92.4131383 Eh     change       -0.1860054E+00 Eh
   gradient norm :     0.1876649 Eh/α   predicted    -0.1877276E+00 (   0.93%)
   displ. norm   :     0.9012426 α      lambda       -0.1643741E+00
   maximum displ.:     0.3739993 α      in ANC's #72, #118, #123, ...

........................................................................
.............................. CYCLE    7 ..............................
........................................................................

 iter      E             dE          RMSdq      gap      omega  full diag
   1    -93.5642993 -0.935643E+02  0.339E-01    1.53       0.0  T
   2    -93.5637654  0.533828E-03  0.253E-01    1.46       1.0  T
   3    -93.5639571 -0.191658E-03  0.176E-01    1.54       1.0  T
   4    -93.5654244 -0.146734E-02  0.470E-02    1.49       1.0  T
   5    -93.5655553 -0.130814E-03  0.168E-02    1.50       1.0  T
   6    -93.5655685 -0.132147E-04  0.816E-03    1.50       1.5  T
   7    -93.5655715 -0.304886E-05  0.469E-03    1.50       2.6  T
   8    -93.5655724 -0.912956E-06  0.237E-03    1.50       5.2  T
   9    -93.5655728 -0.395729E-06  0.641E-04    1.50      19.0  T
  10    -93.5655728 -0.186106E-07  0.308E-04    1.50      39.7  T
     SCC iter.                  ...        0 min,  0.719 sec
     gradient                   ...        0 min,  0.022 sec
 * total energy  :   -92.5611302 Eh     change       -0.1479918E+00 Eh
   gradient norm :     0.1535356 Eh/α   predicted    -0.1489434E+00 (   0.64%)
   displ. norm   :     0.9017008 α      lambda       -0.1327150E+00
   maximum displ.:     0.3752574 α      in ANC's #72, #82, #50, ...

........................................................................
.............................. CYCLE    8 ..............................
........................................................................

 iter      E             dE          RMSdq      gap      omega  full diag
   1    -93.7647554 -0.937648E+02  0.346E-01    1.56       0.0  T
   2    -93.7644964  0.258995E-03  0.249E-01    1.49       1.0  T
   3    -93.7649726 -0.476236E-03  0.169E-01    1.56       1.0  T
   4    -93.7660687 -0.109605E-02  0.535E-02    1.52       1.0  T
   5    -93.7662159 -0.147231E-03  0.223E-02    1.52       1.0  T
   6    -93.7662433 -0.273493E-04  0.997E-03    1.53       1.2  T
   7    -93.7662509 -0.765685E-05  0.433E-03    1.53       2.8  T
   8    -93.7662516 -0.660658E-06  0.208E-03    1.53       5.9  T
   9    -93.7662519 -0.298758E-06  0.624E-04    1.53      19.6  T
  10    -93.7662519 -0.102910E-07  0.379E-04    1.53      32.2  T
     SCC iter.                  ...        0 min,  0.760 sec
     gradient                   ...        0 min,  0.022 sec
 * total energy  :   -92.6807937 Eh     change       -0.1196635E+00 Eh
   gradient norm :     0.1252346 Eh/α   predicted    -0.1203106E+00 (   0.54%)
   displ. norm   :     0.8997437 α      lambda       -0.1070300E+00
   maximum displ.:     0.3427527 α      in ANC's #72, #50, #82, ...

........................................................................
.............................. CYCLE    9 ..............................
........................................................................

 iter      E             dE          RMSdq      gap      omega  full diag
   1    -93.9310010 -0.939310E+02  0.346E-01    1.63       0.0  T
   2    -93.9310954 -0.944251E-04  0.241E-01    1.56       1.0  T
   3    -93.9316772 -0.581827E-03  0.159E-01    1.62       1.0  T
   4    -93.9324869 -0.809653E-03  0.577E-02    1.59       1.0  T
   5    -93.9326909 -0.203999E-03  0.205E-02    1.59       1.0  T
   6    -93.9327129 -0.219814E-04  0.952E-03    1.60       1.3  T
   7    -93.9327194 -0.650522E-05  0.387E-03    1.60       3.2  T
   8    -93.9327196 -0.242117E-06  0.213E-03    1.60       5.7  T
   9    -93.9327200 -0.360592E-06  0.640E-04    1.60      19.1  T
  10    -93.9327200 -0.930450E-08  0.404E-04    1.60      30.3  T
     SCC iter.                  ...        0 min,  0.834 sec
     gradient                   ...        0 min,  0.021 sec
 * total energy  :   -92.7756086 Eh     change       -0.9481496E-01 Eh
   gradient norm :     0.0963618 Eh/α   predicted    -0.9683757E-01 (   2.13%)
   displ. norm   :     0.8948587 α      lambda       -0.8232152E-01
   maximum displ.:     0.3402613 α      in ANC's #50, #82, #72, ...

........................................................................
.............................. CYCLE   10 ..............................
........................................................................

 iter      E             dE          RMSdq      gap      omega  full diag
   1    -94.0590554 -0.940591E+02  0.324E-01    1.68       0.0  T
   2    -94.0593134 -0.258077E-03  0.203E-01    1.65       1.0  T
   3    -94.0589816  0.331862E-03  0.153E-01    1.68       1.0  T
   4    -94.0598619 -0.880357E-03  0.374E-02    1.66       1.0  T
   5    -94.0599390 -0.770913E-04  0.173E-02    1.66       1.0  T
   6    -94.0599577 -0.186488E-04  0.849E-03    1.66       1.4  T
   7    -94.0599621 -0.439332E-05  0.335E-03    1.66       3.7  T
   8    -94.0599623 -0.219991E-06  0.144E-03    1.66       8.5  T
   9    -94.0599624 -0.101527E-06  0.865E-04    1.66      14.1  T
  10    -94.0599624 -0.368652E-07  0.364E-04    1.66      33.6  T
     SCC iter.                  ...        0 min,  0.743 sec
     gradient                   ...        0 min,  0.031 sec
 * total energy  :   -92.8466175 Eh     change       -0.7100886E-01 Eh
   gradient norm :     0.0745046 Eh/α   predicted    -0.7412122E-01 (   4.38%)
   displ. norm   :     0.9106857 α      lambda       -0.6390380E-01
   maximum displ.:     0.3752495 α      in ANC's #50, #82, #51, ...

........................................................................
.............................. CYCLE   11 ..............................
........................................................................

 iter      E             dE          RMSdq      gap      omega  full diag
   1    -94.1598873 -0.941599E+02  0.303E-01    1.71       0.0  T
   2    -94.1599788 -0.915753E-04  0.193E-01    1.69       1.0  T
   3    -94.1590280  0.950825E-03  0.143E-01    1.72       1.0  T
   4    -94.1603045 -0.127649E-02  0.395E-02    1.70       1.0  T
   5    -94.1604287 -0.124202E-03  0.167E-02    1.70       1.0  T
   6    -94.1604502 -0.215447E-04  0.486E-03    1.70       2.5  T
   7    -94.1604516 -0.133818E-05  0.244E-03    1.70       5.0  T
   8    -94.1604517 -0.152609E-06  0.124E-03    1.70       9.8  T
   9    -94.1604518 -0.983128E-07  0.452E-04    1.70      27.0  T
  10    -94.1604518 -0.423712E-08  0.219E-04    1.70      55.7  T
     SCC iter.                  ...        0 min,  0.667 sec
     gradient                   ...        0 min,  0.026 sec
 * total energy  :   -92.8977891 Eh     change       -0.5117165E-01 Eh
   gradient norm :     0.0794204 Eh/α   predicted    -0.5845128E-01 (  14.23%)
   displ. norm   :     0.8853190 α      lambda       -0.5539389E-01
   maximum displ.:     0.3319004 α      in ANC's #50, #26, #27, ...

........................................................................
.............................. CYCLE   12 ..............................
........................................................................

 iter      E             dE          RMSdq      gap      omega  full diag
   1    -94.2349343 -0.942349E+02  0.313E-01    1.74       0.0  T
   2    -94.2350206 -0.863420E-04  0.192E-01    1.73       1.0  T
   3    -94.2343217  0.698966E-03  0.155E-01    1.74       1.0  T
   4    -94.2355754 -0.125375E-02  0.241E-02    1.74       1.0  T
   5    -94.2356024 -0.270257E-04  0.121E-02    1.73       1.0  T
   6    -94.2356093 -0.686558E-05  0.579E-03    1.74       2.1  T
   7    -94.2356108 -0.149897E-05  0.316E-03    1.73       3.9  T
   8    -94.2356114 -0.555879E-06  0.132E-03    1.73       9.2  T
   9    -94.2356114 -0.278599E-07  0.834E-04    1.73      14.6  T
  10    -94.2356114 -0.457918E-07  0.228E-04    1.73      53.6  T
     SCC iter.                  ...        0 min,  0.831 sec
     gradient                   ...        0 min,  0.031 sec
 * total energy  :   -92.9433836 Eh     change       -0.4559444E-01 Eh
   gradient norm :     0.0731032 Eh/α   predicted    -0.4940554E-01 (   8.36%)
   displ. norm   :     0.8875963 α      lambda       -0.4992510E-01
   maximum displ.:     0.2947108 α      in ANC's #50, #26, #27, ...

........................................................................
.............................. CYCLE   13 ..............................
........................................................................

 iter      E             dE          RMSdq      gap      omega  full diag
   1    -94.2887634 -0.942888E+02  0.241E-01    1.78       0.0  T
   2    -94.2888837 -0.120335E-03  0.155E-01    1.75       1.0  T
   3    -94.2889259 -0.422516E-04  0.108E-01    1.78       1.0  T
   4    -94.2892902 -0.364221E-03  0.236E-02    1.77       1.0  T
   5    -94.2893152 -0.250086E-04  0.140E-02    1.77       1.0  T
   6    -94.2893279 -0.127550E-04  0.529E-03    1.77       2.3  T
   7    -94.2893298 -0.190817E-05  0.175E-03    1.77       7.0  T
   8    -94.2893299 -0.105271E-06  0.798E-04    1.77      15.3  T
   9    -94.2893299 -0.598921E-08  0.419E-04    1.77      29.1  T
     SCC iter.                  ...        0 min,  0.503 sec
     gradient                   ...        0 min,  0.026 sec
 * total energy  :   -92.9861752 Eh     change       -0.4279168E-01 Eh
   gradient norm :     0.0794842 Eh/α   predicted    -0.4462876E-01 (   4.29%)
   displ. norm   :     0.9079709 α      lambda       -0.5405186E-01
   maximum displ.:     0.3067227 α      in ANC's #50, #26, #27, ...

........................................................................
.............................. CYCLE   14 ..............................
........................................................................

 iter      E             dE          RMSdq      gap      omega  full diag
   1    -94.3408434 -0.943408E+02  0.258E-01    1.77       0.0  T
   2    -94.3409707 -0.127294E-03  0.170E-01    1.77       1.0  T
   3    -94.3406517  0.318932E-03  0.108E-01    1.77       1.0  T
   4    -94.3411576 -0.505870E-03  0.306E-02    1.77       1.0  T
   5    -94.3412364 -0.787868E-04  0.848E-03    1.77       1.4  T
   6    -94.3412400 -0.355691E-05  0.381E-03    1.77       3.2  T
   7    -94.3412405 -0.526969E-06  0.165E-03    1.77       7.4  T
   8    -94.3412405 -0.548845E-07  0.746E-04    1.77      16.4  T
   9    -94.3412406 -0.210931E-07  0.308E-04    1.77      39.6  T
     SCC iter.                  ...        0 min,  0.501 sec
     gradient                   ...        0 min,  0.019 sec
 * total energy  :   -93.0307910 Eh     change       -0.4461576E-01 Eh
   gradient norm :     0.0684166 Eh/α   predicted    -0.4930649E-01 (  10.51%)
   displ. norm   :     0.9163769 α      lambda       -0.4563159E-01
   maximum displ.:     0.3400583 α      in ANC's #26, #27, #32, ...

........................................................................
.............................. CYCLE   15 ..............................
........................................................................

 iter      E             dE          RMSdq      gap      omega  full diag
   1    -94.4120526 -0.944121E+02  0.177E-01    1.76       0.0  T
   2    -94.4121142 -0.616014E-04  0.123E-01    1.76       1.0  T
   3    -94.4119315  0.182681E-03  0.707E-02    1.76       1.0  T
   4    -94.4122439 -0.312387E-03  0.196E-02    1.76       1.0  T
   5    -94.4122720 -0.280592E-04  0.642E-03    1.76       1.9  T
   6    -94.4122741 -0.214758E-05  0.281E-03    1.76       4.3  T
   7    -94.4122744 -0.264880E-06  0.134E-03    1.76       9.1  T
   8    -94.4122744 -0.509921E-07  0.585E-04    1.76      20.9  T
   9    -94.4122744 -0.123907E-07  0.206E-04    1.76      59.4  T
     SCC iter.                  ...        0 min,  0.504 sec
     gradient                   ...        0 min,  0.021 sec
 * total energy  :   -93.0695837 Eh     change       -0.3879267E-01 Eh
   gradient norm :     0.0552432 Eh/α   predicted    -0.4197527E-01 (   8.20%)
   displ. norm   :     0.9299423 α      lambda       -0.4290011E-01
   maximum displ.:     0.3464552 α      in ANC's #26, #27, #32, ...

........................................................................
.............................. CYCLE   16 ..............................
........................................................................

 iter      E             dE          RMSdq      gap      omega  full diag
   1    -94.4804502 -0.944805E+02  0.271E-01    1.78       0.0  T
   2    -94.4805700 -0.119756E-03  0.173E-01    1.77       1.0  T
   3    -94.4798055  0.764437E-03  0.108E-01    1.77       1.0  T
   4    -94.4807072 -0.901688E-03  0.288E-02    1.78       1.0  T
   5    -94.4807681 -0.608874E-04  0.109E-02    1.77       1.1  T
   6    -94.4807766 -0.848685E-05  0.396E-03    1.77       3.1  T
   7    -94.4807770 -0.426848E-06  0.200E-03    1.77       6.1  T
   8    -94.4807771 -0.530978E-07  0.837E-04    1.77      14.6  T
   9    -94.4807771 -0.362800E-07  0.225E-04    1.77      54.3  T
     SCC iter.                  ...        0 min,  0.559 sec
     gradient                   ...        0 min,  0.025 sec
 * total energy  :   -93.1002594 Eh     change       -0.3067570E-01 Eh
   gradient norm :     0.0642141 Eh/α   predicted    -0.3999992E-01 (  30.40%)
   displ. norm   :     0.8473002 α      lambda       -0.3674589E-01
   maximum displ.:     0.3304091 α      in ANC's #26, #27, #32, ...

........................................................................
.............................. CYCLE   17 ..............................
........................................................................

 iter      E             dE          RMSdq      gap      omega  full diag
   1    -94.5249794 -0.945250E+02  0.207E-01    1.80       0.0  T
   2    -94.5250592 -0.798397E-04  0.130E-01    1.80       1.0  T
   3    -94.5247976  0.261556E-03  0.674E-02    1.81       1.0  T
   4    -94.5250733 -0.275702E-03  0.240E-02    1.80       1.0  T
   5    -94.5251241 -0.507281E-04  0.624E-03    1.81       2.0  T
   6    -94.5251256 -0.149462E-05  0.255E-03    1.81       4.8  T
   7    -94.5251258 -0.217547E-06  0.118E-03    1.81      10.4  T
   8    -94.5251258 -0.376491E-07  0.504E-04    1.81      24.2  T
   9    -94.5251258 -0.664858E-08  0.191E-04    1.81      63.8  T
     SCC iter.                  ...        0 min,  0.642 sec
     gradient                   ...        0 min,  0.029 sec
 * total energy  :   -93.1290596 Eh     change       -0.2880022E-01 Eh
   gradient norm :     0.0457797 Eh/α   predicted    -0.3156320E-01 (   9.59%)
   displ. norm   :     0.8862561 α      lambda       -0.3071031E-01
   maximum displ.:     0.3540462 α      in ANC's #26, #27, #32, ...

........................................................................
.............................. CYCLE   18 ..............................
........................................................................

 iter      E             dE          RMSdq      gap      omega  full diag
   1    -94.5615167 -0.945615E+02  0.265E-01    1.85       0.0  T
   2    -94.5616311 -0.114364E-03  0.156E-01    1.84       1.0  T
   3    -94.5612621  0.368966E-03  0.840E-02    1.87       1.0  T
   4    -94.5616475 -0.385318E-03  0.277E-02    1.84       1.0  T
   5    -94.5616948 -0.473552E-04  0.137E-02    1.85       1.0  T
   6    -94.5617069 -0.121207E-04  0.365E-03    1.85       3.3  T
   7    -94.5617077 -0.792351E-06  0.156E-03    1.85       7.8  T
   8    -94.5617078 -0.892091E-07  0.756E-04    1.85      16.2  T
   9    -94.5617078 -0.149310E-07  0.350E-04    1.85      34.9  T
     SCC iter.                  ...        0 min,  0.524 sec
     gradient                   ...        0 min,  0.030 sec
 * total energy  :   -93.1487056 Eh     change       -0.1964603E-01 Eh
   gradient norm :     0.0618955 Eh/α   predicted    -0.2741587E-01 (  39.55%)
   displ. norm   :     0.8024534 α      lambda       -0.3014710E-01
   maximum displ.:     0.3368604 α      in ANC's #26, #27, #32, ...

........................................................................
.............................. CYCLE   19 ..............................
........................................................................

 iter      E             dE          RMSdq      gap      omega  full diag
   1    -94.6053021 -0.946053E+02  0.249E-01    1.89       0.0  T
   2    -94.6054092 -0.107166E-03  0.150E-01    1.88       1.0  T
   3    -94.6049284  0.480832E-03  0.800E-02    1.89       1.0  T
   4    -94.6054136 -0.485226E-03  0.295E-02    1.88       1.0  T
   5    -94.6054769 -0.632583E-04  0.107E-02    1.88       1.1  T
   6    -94.6054822 -0.535152E-05  0.372E-03    1.88       3.3  T
   7    -94.6054830 -0.735097E-06  0.139E-03    1.88       8.8  T
   8    -94.6054830 -0.442179E-07  0.652E-04    1.88      18.7  T
   9    -94.6054830 -0.593265E-08  0.265E-04    1.88      46.0  T
     SCC iter.                  ...        0 min,  0.512 sec
     gradient                   ...        0 min,  0.019 sec
 * total energy  :   -93.1677719 Eh     change       -0.1906629E-01 Eh
   gradient norm :     0.0541987 Eh/α   predicted    -0.2477990E-01 (  29.97%)
   displ. norm   :     0.7797394 α      lambda       -0.2298986E-01
   maximum displ.:     0.3318443 α      in ANC's #26, #27, #25, ...

........................................................................
.............................. CYCLE   20 ..............................
........................................................................

 iter      E             dE          RMSdq      gap      omega  full diag
   1    -94.6321119 -0.946321E+02  0.283E-01    1.86       0.0  T
   2    -94.6322145 -0.102525E-03  0.172E-01    1.88       1.0  T
   3    -94.6317829  0.431548E-03  0.735E-02    1.86       1.0  T
   4    -94.6322533 -0.470389E-03  0.200E-02    1.87       1.0  T
   5    -94.6322819 -0.285390E-04  0.931E-03    1.87       1.3  T
   6    -94.6322868 -0.496481E-05  0.365E-03    1.87       3.3  T
   7    -94.6322874 -0.562920E-06  0.125E-03    1.87       9.7  T
   8    -94.6322874 -0.186312E-07  0.627E-04    1.87      19.5  T
   9    -94.6322874 -0.608578E-08  0.280E-04    1.87      43.6  T
     SCC iter.                  ...        0 min,  0.522 sec
     gradient                   ...        0 min,  0.029 sec
 * total energy  :   -93.1800208 Eh     change       -0.1224883E-01 Eh
   gradient norm :     0.0519532 Eh/α   predicted    -0.1848379E-01 (  50.90%)
   displ. norm   :     0.7345032 α      lambda       -0.2062482E-01
   maximum displ.:     0.3224123 α      in ANC's #26, #27, #25, ...
 * RMSD in coord.:     1.6676026 α      energy gain  -0.2349327E+01 Eh

generating ANC from exact Hessian ...
Using Lindh-Hessian (1995)
 Shifting diagonal of input Hessian by    9.7860723430650623E-003
 Lowest  eigenvalues of input Hessian
    0.000000    0.000000    0.000000    0.000000    0.000000    0.000000
    0.010000    0.010112    0.010121    0.010237    0.010682    0.010748
    0.011015    0.011087    0.012801    0.013867    0.014027    0.014337
 Highest eigenvalues
    1.948797    1.979599    2.005739    2.138282    2.204707    2.220322


........................................................................
.............................. CYCLE   21 ..............................
........................................................................

 iter      E             dE          RMSdq      gap      omega  full diag
   1    -94.6591745 -0.946592E+02  0.307E-01    1.92       0.0  T
   2    -94.6592823 -0.107808E-03  0.183E-01    1.90       1.0  T
   3    -94.6586650  0.617323E-03  0.101E-01    1.93       1.0  T
   4    -94.6593194 -0.654451E-03  0.294E-02    1.91       1.0  T
   5    -94.6593783 -0.588827E-04  0.116E-02    1.91       1.1  T
   6    -94.6593857 -0.739549E-05  0.408E-03    1.91       3.0  T
   7    -94.6593865 -0.799412E-06  0.169E-03    1.91       7.2  T
   8    -94.6593866 -0.974703E-07  0.744E-04    1.91      16.4  T
   9    -94.6593866 -0.906444E-08  0.372E-04    1.91      32.8  T
     SCC iter.                  ...        0 min,  0.577 sec
     gradient                   ...        0 min,  0.026 sec
 * total energy  :   -93.1893418 Eh     change       -0.9321044E-02 Eh
   gradient norm :     0.0556628 Eh/α   predicted     0.0000000E+00 (-100.00%)
   displ. norm   :     0.4793850 α      lambda       -0.1089577E-01
   maximum displ.:     0.3689756 α      in ANC's #13, #12, #15, ...

........................................................................
.............................. CYCLE   22 ..............................
........................................................................

 iter      E             dE          RMSdq      gap      omega  full diag
   1    -94.6735323 -0.946735E+02  0.133E-01    1.93       0.0  T
   2    -94.6735524 -0.201708E-04  0.799E-02    1.93       1.0  T
   3    -94.6734679  0.845247E-04  0.309E-02    1.92       1.0  T
   4    -94.6735481 -0.801752E-04  0.133E-02    1.93       1.0  T
   5    -94.6735627 -0.145811E-04  0.333E-03    1.93       3.7  T
   6    -94.6735630 -0.283014E-06  0.152E-03    1.93       8.1  T
   7    -94.6735630 -0.809934E-07  0.633E-04    1.93      19.3  T
   8    -94.6735631 -0.122801E-07  0.249E-04    1.93      49.0  T
     SCC iter.                  ...        0 min,  0.537 sec
     gradient                   ...        0 min,  0.030 sec
 * total energy  :   -93.1973354 Eh     change       -0.7993650E-02 Eh
   gradient norm :     0.0209880 Eh/α   predicted    -0.6700087E-02 ( -16.18%)
   displ. norm   :     0.6152278 α      lambda       -0.6511066E-02
   maximum displ.:     0.4688047 α      in ANC's #13, #12, #15, ...

........................................................................
.............................. CYCLE   23 ..............................
........................................................................

 iter      E             dE          RMSdq      gap      omega  full diag
   1    -94.6918786 -0.946919E+02  0.947E-02    1.95       0.0  T
   2    -94.6918908 -0.121843E-04  0.566E-02    1.95       1.0  T
   3    -94.6918690  0.217710E-04  0.199E-02    1.95       1.0  T
   4    -94.6918954 -0.263417E-04  0.453E-03    1.95       2.7  T
   5    -94.6918962 -0.790081E-06  0.235E-03    1.95       5.2  T
   6    -94.6918963 -0.162567E-06  0.142E-03    1.95       8.6  T
   7    -94.6918965 -0.141177E-06  0.467E-04    1.95      26.1  T
   8    -94.6918965 -0.631299E-08  0.196E-04    1.95      62.4  T
     SCC iter.                  ...        0 min,  0.647 sec
     gradient                   ...        0 min,  0.025 sec
 * total energy  :   -93.2023098 Eh     change       -0.4974361E-02 Eh
   gradient norm :     0.0112337 Eh/α   predicted    -0.4487774E-02 (  -9.78%)
   displ. norm   :     0.6100473 α      lambda       -0.3838660E-02
   maximum displ.:     0.4287461 α      in ANC's #13, #12, #11, ...

........................................................................
.............................. CYCLE   24 ..............................
........................................................................

 iter      E             dE          RMSdq      gap      omega  full diag
   1    -94.7075570 -0.947076E+02  0.804E-02    1.97       0.0  T
   2    -94.7075642 -0.721566E-05  0.485E-02    1.96       1.0  T
   3    -94.7075385  0.257303E-04  0.231E-02    1.97       1.0  T
   4    -94.7075693 -0.308074E-04  0.362E-03    1.96       3.4  T
   5    -94.7075698 -0.500480E-06  0.207E-03    1.96       5.9  T
   6    -94.7075700 -0.197043E-06  0.100E-03    1.96      12.2  T
   7    -94.7075700 -0.581160E-07  0.411E-04    1.96      29.7  T
     SCC iter.                  ...        0 min,  0.471 sec
     gradient                   ...        0 min,  0.022 sec
 * total energy  :   -93.2052354 Eh     change       -0.2925547E-02 Eh
   gradient norm :     0.0142339 Eh/α   predicted    -0.2633625E-02 (  -9.98%)
   displ. norm   :     0.5402333 α      lambda       -0.2174535E-02
   maximum displ.:     0.3120816 α      in ANC's #13, #12, #19, ...

........................................................................
.............................. CYCLE   25 ..............................
........................................................................

 iter      E             dE          RMSdq      gap      omega  full diag
   1    -94.7184702 -0.947185E+02  0.732E-02    1.98       0.0  T
   2    -94.7184775 -0.725097E-05  0.446E-02    1.97       1.0  T
   3    -94.7184505  0.269569E-04  0.243E-02    1.98       1.0  T
   4    -94.7184837 -0.332402E-04  0.382E-03    1.97       3.2  T
   5    -94.7184843 -0.597941E-06  0.236E-03    1.97       5.2  T
   6    -94.7184847 -0.353015E-06  0.896E-04    1.97      13.6  T
   7    -94.7184847 -0.413449E-07  0.380E-04    1.97      32.2  T
     SCC iter.                  ...        0 min,  0.392 sec
     gradient                   ...        0 min,  0.033 sec
 * total energy  :   -93.2068340 Eh     change       -0.1598602E-02 Eh
   gradient norm :     0.0115059 Eh/α   predicted    -0.1404590E-02 ( -12.14%)
   displ. norm   :     0.4526009 α      lambda       -0.1195825E-02
   maximum displ.:     0.1774954 α      in ANC's #6, #13, #19, ...

........................................................................
.............................. CYCLE   26 ..............................
........................................................................

 iter      E             dE          RMSdq      gap      omega  full diag
   1    -94.7242419 -0.947242E+02  0.649E-02    1.98       0.0  T
   2    -94.7242471 -0.519794E-05  0.391E-02    1.98       1.0  T
   3    -94.7242247  0.223486E-04  0.208E-02    1.98       1.0  T
   4    -94.7242513 -0.265588E-04  0.339E-03    1.98       3.6  T
   5    -94.7242517 -0.388709E-06  0.228E-03    1.98       5.4  T
   6    -94.7242520 -0.353349E-06  0.773E-04    1.98      15.8  T
   7    -94.7242520 -0.282801E-07  0.310E-04    1.98      39.5  T
     SCC iter.                  ...        0 min,  0.543 sec
     gradient                   ...        0 min,  0.020 sec
 * total energy  :   -93.2077391 Eh     change       -0.9051805E-03 Eh
   gradient norm :     0.0077933 Eh/α   predicted    -0.7203947E-03 ( -20.41%)
   displ. norm   :     0.4580129 α      lambda       -0.9470137E-03
   maximum displ.:     0.2137113 α      in ANC's #6, #19, #1, ...

........................................................................
.............................. CYCLE   27 ..............................
........................................................................

 iter      E             dE          RMSdq      gap      omega  full diag
   1    -94.7257291 -0.947257E+02  0.671E-02    1.98       0.0  T
   2    -94.7257328 -0.366010E-05  0.398E-02    1.98       1.0  T
   3    -94.7257133  0.194774E-04  0.176E-02    1.98       1.0  T
   4    -94.7257352 -0.218874E-04  0.317E-03    1.98       3.9  T
   5    -94.7257354 -0.251999E-06  0.227E-03    1.98       5.4  T
   6    -94.7257358 -0.361758E-06  0.680E-04    1.98      18.0  T
   7    -94.7257358 -0.187339E-07  0.253E-04    1.98      48.2  T
     SCC iter.                  ...        0 min,  0.579 sec
     gradient                   ...        0 min,  0.022 sec
 * total energy  :   -93.2084926 Eh     change       -0.7534464E-03 Eh
   gradient norm :     0.0073371 Eh/α   predicted    -0.5728380E-03 ( -23.97%)
   displ. norm   :     0.5084824 α      lambda       -0.9337824E-03
   maximum displ.:     0.2485410 α      in ANC's #6, #1, #19, ...

........................................................................
.............................. CYCLE   28 ..............................
........................................................................

 iter      E             dE          RMSdq      gap      omega  full diag
   1    -94.7240013 -0.947240E+02  0.739E-02    1.97       0.0  T
   2    -94.7240038 -0.252046E-05  0.435E-02    1.97       1.0  T
   3    -94.7239920  0.118408E-04  0.128E-02    1.97       1.0  T
   4    -94.7240048 -0.127877E-04  0.327E-03    1.97       3.7  T
   5    -94.7240052 -0.376114E-06  0.206E-03    1.97       5.9  T
   6    -94.7240054 -0.275775E-06  0.558E-04    1.97      21.9  T
   7    -94.7240055 -0.107032E-07  0.204E-04    1.97      59.9  T
     SCC iter.                  ...        0 min,  0.567 sec
     gradient                   ...        0 min,  0.037 sec
 * total energy  :   -93.2092388 Eh     change       -0.7462340E-03 Eh
   gradient norm :     0.0091122 Eh/α   predicted    -0.5876144E-03 ( -21.26%)
   displ. norm   :     0.5275112 α      lambda       -0.8509905E-03
   maximum displ.:     0.2565298 α      in ANC's #6, #1, #19, ...

........................................................................
.............................. CYCLE   29 ..............................
........................................................................

 iter      E             dE          RMSdq      gap      omega  full diag
   1    -94.7206784 -0.947207E+02  0.733E-02    1.97       0.0  T
   2    -94.7206802 -0.181791E-05  0.431E-02    1.97       1.0  T
   3    -94.7206729  0.730075E-05  0.103E-02    1.97       1.2  T
   4    -94.7206806 -0.764134E-05  0.321E-03    1.97       3.8  T
   5    -94.7206811 -0.557835E-06  0.152E-03    1.97       8.1  T
   6    -94.7206812 -0.101950E-06  0.402E-04    1.97      30.4  T
   7    -94.7206812 -0.542778E-08  0.197E-04    1.97      62.1  T
     SCC iter.                  ...        0 min,  0.537 sec
     gradient                   ...        0 min,  0.028 sec
 * total energy  :   -93.2099042 Eh     change       -0.6653892E-03 Eh
   gradient norm :     0.0100324 Eh/α   predicted    -0.5438976E-03 ( -18.26%)
   displ. norm   :     0.4849536 α      lambda       -0.7455349E-03
   maximum displ.:     0.2398316 α      in ANC's #1, #6, #19, ...

........................................................................
.............................. CYCLE   30 ..............................
........................................................................

 iter      E             dE          RMSdq      gap      omega  full diag
   1    -94.7206354 -0.947206E+02  0.641E-02    1.97       0.0  T
   2    -94.7206381 -0.272606E-05  0.378E-02    1.97       1.0  T
   3    -94.7206275  0.105687E-04  0.129E-02    1.97       1.0  T
   4    -94.7206385 -0.110089E-04  0.351E-03    1.97       3.5  T
   5    -94.7206393 -0.748053E-06  0.173E-03    1.97       7.0  T
   6    -94.7206395 -0.179878E-06  0.622E-04    1.97      19.6  T
   7    -94.7206395 -0.108293E-07  0.263E-04    1.97      46.5  T
     SCC iter.                  ...        0 min,  0.361 sec
     gradient                   ...        0 min,  0.029 sec
 * total energy  :   -93.2104654 Eh     change       -0.5611581E-03 Eh
   gradient norm :     0.0090082 Eh/α   predicted    -0.4604383E-03 ( -17.95%)
   displ. norm   :     0.5470007 α      lambda       -0.7682510E-03
   maximum displ.:     0.2754036 α      in ANC's #1, #6, #19, ...

........................................................................
.............................. CYCLE   31 ..............................
........................................................................

 iter      E             dE          RMSdq      gap      omega  full diag
   1    -94.7149761 -0.947150E+02  0.729E-02    1.97       0.0  T
   2    -94.7149817 -0.555712E-05  0.429E-02    1.97       1.0  T
   3    -94.7149734  0.829425E-05  0.121E-02    1.97       1.0  T
   4    -94.7149819 -0.854385E-05  0.439E-03    1.97       2.8  T
   5    -94.7149830 -0.109379E-05  0.199E-03    1.97       6.1  T
   6    -94.7149832 -0.183198E-06  0.103E-03    1.97      11.9  T
   7    -94.7149832 -0.382695E-07  0.329E-04    1.97      37.2  T
   8    -94.7149833 -0.581512E-08  0.102E-04    1.97     119.9  T
     SCC iter.                  ...        0 min,  0.583 sec
     gradient                   ...        0 min,  0.021 sec
 * total energy  :   -93.2108704 Eh     change       -0.4050173E-03 Eh
   gradient norm :     0.0133000 Eh/α   predicted    -0.4990647E-03 (  23.22%)
   displ. norm   :     0.3774244 α      lambda       -0.9416746E-03
   maximum displ.:     0.1955142 α      in ANC's #1, #8, #6, ...

........................................................................
.............................. CYCLE   32 ..............................
........................................................................

 iter      E             dE          RMSdq      gap      omega  full diag
   1    -94.7241234 -0.947241E+02  0.588E-02    1.97       0.0  T
   2    -94.7241317 -0.827850E-05  0.344E-02    1.97       1.0  T
   3    -94.7241239  0.779201E-05  0.130E-02    1.97       1.0  T
   4    -94.7241327 -0.879055E-05  0.386E-03    1.97       3.2  T
   5    -94.7241336 -0.851746E-06  0.125E-03    1.97       9.8  T
   6    -94.7241336  0.634331E-08  0.953E-04    1.97      12.8  T
   7    -94.7241336 -0.521222E-07  0.368E-04    1.97      33.2  T
     SCC iter.                  ...        0 min,  0.376 sec
     gradient                   ...        0 min,  0.019 sec
 * total energy  :   -93.2114646 Eh     change       -0.5941718E-03 Eh
   gradient norm :     0.0088921 Eh/α   predicted    -0.5379265E-03 (  -9.47%)
   displ. norm   :     0.5216864 α      lambda       -0.7058879E-03
   maximum displ.:     0.2691199 α      in ANC's #1, #18, #6, ...

........................................................................
.............................. CYCLE   33 ..............................
........................................................................

 iter      E             dE          RMSdq      gap      omega  full diag
   1    -94.7198792 -0.947199E+02  0.746E-02    1.97       0.0  T
   2    -94.7198923 -0.131612E-04  0.430E-02    1.97       1.0  T
   3    -94.7198921  0.212278E-06  0.868E-03    1.97       1.4  T
   4    -94.7198924 -0.218983E-06  0.399E-03    1.97       3.1  T
   5    -94.7198933 -0.959433E-06  0.211E-03    1.97       5.8  T
   6    -94.7198935 -0.174398E-06  0.100E-03    1.97      12.2  T
   7    -94.7198935 -0.529973E-07  0.304E-04    1.97      40.1  T
   8    -94.7198935 -0.181397E-08  0.144E-04    1.97      84.6  T
     SCC iter.                  ...        0 min,  0.691 sec
     gradient                   ...        0 min,  0.028 sec
 * total energy  :   -93.2117074 Eh     change       -0.2428433E-03 Eh
   gradient norm :     0.0193925 Eh/α   predicted    -0.4490008E-03 (  84.89%)
   displ. norm   :     0.2759621 α      lambda       -0.9794042E-03
   maximum displ.:     0.1393404 α      in ANC's #1, #13, #8, ...

........................................................................
.............................. CYCLE   34 ..............................
........................................................................

 iter      E             dE          RMSdq      gap      omega  full diag
   1    -94.7259149 -0.947259E+02  0.525E-02    1.97       0.0  T
   2    -94.7259230 -0.805771E-05  0.297E-02    1.97       1.0  T
   3    -94.7259210  0.191404E-05  0.910E-03    1.97       1.3  T
   4    -94.7259230 -0.196017E-05  0.410E-03    1.97       3.0  T
   5    -94.7259239 -0.906036E-06  0.157E-03    1.97       7.8  T
   6    -94.7259239 -0.294773E-07  0.112E-03    1.97      10.9  T
   7    -94.7259240 -0.873254E-07  0.355E-04    1.97      34.4  T
   8    -94.7259240 -0.473200E-08  0.149E-04    1.97      81.8  T
     SCC iter.                  ...        0 min,  0.575 sec
     gradient                   ...        0 min,  0.018 sec
 * total energy  :   -93.2123415 Eh     change       -0.6340582E-03 Eh
   gradient norm :     0.0081148 Eh/α   predicted    -0.5269967E-03 ( -16.89%)
   displ. norm   :     0.4276399 α      lambda       -0.5028578E-03
   maximum displ.:     0.2410641 α      in ANC's #1, #18, #8, ...

........................................................................
.............................. CYCLE   35 ..............................
........................................................................

 iter      E             dE          RMSdq      gap      omega  full diag
   1    -94.7280019 -0.947280E+02  0.587E-02    1.98       0.0  T
   2    -94.7280053 -0.343148E-05  0.340E-02    1.97       1.0  T
   3    -94.7280046  0.760371E-06  0.585E-03    1.98       2.1  T
   4    -94.7280054 -0.806836E-06  0.303E-03    1.97       4.0  T
   5    -94.7280059 -0.501452E-06  0.954E-04    1.98      12.8  T
   6    -94.7280059 -0.386022E-07  0.536E-04    1.98      22.8  T
     SCC iter.                  ...        0 min,  0.379 sec
     gradient                   ...        0 min,  0.037 sec
 * total energy  :   -93.2127059 Eh     change       -0.3644839E-03 Eh
   gradient norm :     0.0082310 Eh/α   predicted    -0.2974132E-03 ( -18.40%)
   displ. norm   :     0.4490302 α      lambda       -0.5205453E-03
   maximum displ.:     0.2748108 α      in ANC's #1, #18, #8, ...

........................................................................
.............................. CYCLE   36 ..............................
........................................................................

 iter      E             dE          RMSdq      gap      omega  full diag
   1    -94.7275944 -0.947276E+02  0.611E-02    1.98       0.0  T
   2    -94.7276003 -0.591274E-05  0.351E-02    1.98       1.0  T
   3    -94.7275963  0.406935E-05  0.981E-03    1.98       1.2  T
   4    -94.7276003 -0.404994E-05  0.442E-03    1.98       2.8  T
   5    -94.7276012 -0.901377E-06  0.212E-03    1.98       5.8  T
   6    -94.7276015 -0.290122E-06  0.885E-04    1.98      13.8  T
   7    -94.7276015 -0.521406E-07  0.281E-04    1.98      43.5  T
     SCC iter.                  ...        0 min,  0.502 sec
     gradient                   ...        0 min,  0.029 sec
 * total energy  :   -93.2129940 Eh     change       -0.2880423E-03 Eh
   gradient norm :     0.0089009 Eh/α   predicted    -0.3127600E-03 (   8.58%)
   displ. norm   :     0.3740180 α      lambda       -0.4943239E-03
   maximum displ.:     0.2362716 α      in ANC's #1, #18, #2, ...

........................................................................
.............................. CYCLE   37 ..............................
........................................................................

 iter      E             dE          RMSdq      gap      omega  full diag
   1    -94.7290384 -0.947290E+02  0.522E-02    1.97       0.0  T
   2    -94.7290442 -0.578499E-05  0.299E-02    1.98       1.0  T
   3    -94.7290431  0.113772E-05  0.689E-03    1.97       1.8  T
   4    -94.7290428  0.311141E-06  0.493E-03    1.97       2.5  T
   5    -94.7290448 -0.200409E-05  0.161E-03    1.97       7.6  T
   6    -94.7290449 -0.103953E-06  0.730E-04    1.97      16.7  T
   7    -94.7290449 -0.277624E-07  0.250E-04    1.97      48.9  T
     SCC iter.                  ...        0 min,  0.390 sec
     gradient                   ...        0 min,  0.026 sec
 * total energy  :   -93.2131956 Eh     change       -0.2015993E-03 Eh
   gradient norm :     0.0129135 Eh/α   predicted    -0.2817403E-03 (  39.75%)
   displ. norm   :     0.1380803 α      lambda       -0.3431773E-03
   maximum displ.:     0.0781517 α      in ANC's #1, #27, #2, ...

........................................................................
.............................. CYCLE   38 ..............................
........................................................................

 iter      E             dE          RMSdq      gap      omega  full diag
   1    -94.7312517 -0.947313E+02  0.271E-02    1.97       0.0  T
   2    -94.7312540 -0.230522E-05  0.155E-02    1.97       1.0  T
   3    -94.7312536  0.394022E-06  0.479E-03    1.97       2.6  T
   4    -94.7312541 -0.467013E-06  0.193E-03    1.97       6.3  T
   5    -94.7312543 -0.195048E-06  0.786E-04    1.97      15.5  T
   6    -94.7312543 -0.261078E-08  0.594E-04    1.97      20.6  T
     SCC iter.                  ...        0 min,  0.324 sec
     gradient                   ...        0 min,  0.021 sec
 * total energy  :   -93.2134117 Eh     change       -0.2160797E-03 Eh
   gradient norm :     0.0093501 Eh/α   predicted    -0.1748615E-03 ( -19.08%)
   displ. norm   :     0.3908581 α      lambda       -0.5043217E-03
   maximum displ.:     0.2657642 α      in ANC's #1, #18, #2, ...

........................................................................
.............................. CYCLE   39 ..............................
........................................................................

 iter      E             dE          RMSdq      gap      omega  full diag
   1    -94.7235498 -0.947235E+02  0.508E-02    1.97       0.0  T
   2    -94.7235552 -0.537280E-05  0.297E-02    1.97       1.0  T
   3    -94.7235484  0.682860E-05  0.121E-02    1.97       1.0  T
   4    -94.7235560 -0.766261E-05  0.345E-03    1.97       3.5  T
   5    -94.7235566 -0.562153E-06  0.169E-03    1.97       7.2  T
   6    -94.7235567 -0.149424E-06  0.888E-04    1.97      13.8  T
   7    -94.7235568 -0.343211E-07  0.358E-04    1.97      34.1  T
     SCC iter.                  ...        0 min,  0.552 sec
     gradient                   ...        0 min,  0.022 sec
 * total energy  :   -93.2136337 Eh     change       -0.2220805E-03 Eh
   gradient norm :     0.0098846 Eh/α   predicted    -0.2906880E-03 (  30.89%)
   displ. norm   :     0.2783571 α      lambda       -0.5490186E-03
   maximum displ.:     0.0910076 α      in ANC's #6, #1, #28, ...

........................................................................
.............................. CYCLE   40 ..............................
........................................................................

 iter      E             dE          RMSdq      gap      omega  full diag
   1    -94.7285126 -0.947285E+02  0.536E-02    1.97       0.0  T
   2    -94.7285181 -0.549523E-05  0.308E-02    1.97       1.0  T
   3    -94.7285158  0.236697E-05  0.797E-03    1.97       1.5  T
   4    -94.7285167 -0.934670E-06  0.538E-03    1.97       2.3  T
   5    -94.7285188 -0.211704E-05  0.164E-03    1.97       7.5  T
   6    -94.7285189 -0.121199E-06  0.760E-04    1.97      16.1  T
   7    -94.7285190 -0.326181E-07  0.252E-04    1.97      48.5  T
     SCC iter.                  ...        0 min,  0.558 sec
     gradient                   ...        0 min,  0.029 sec
 * total energy  :   -93.2138593 Eh     change       -0.2255750E-03 Eh
   gradient norm :     0.0117092 Eh/α   predicted    -0.2957795E-03 (  31.12%)
   displ. norm   :     0.3299189 α      lambda       -0.4564309E-03
   maximum displ.:     0.1964582 α      in ANC's #1, #18, #2, ...

........................................................................
.............................. CYCLE   41 ..............................
........................................................................

 iter      E             dE          RMSdq      gap      omega  full diag
   1    -94.7291978 -0.947292E+02  0.471E-02    1.97       0.0  T
   2    -94.7292023 -0.446665E-05  0.274E-02    1.97       1.0  T
   3    -94.7292016  0.657264E-06  0.582E-03    1.97       2.1  T
   4    -94.7292021 -0.517198E-06  0.290E-03    1.97       4.2  T
   5    -94.7292027 -0.528548E-06  0.109E-03    1.97      11.2  T
   6    -94.7292027 -0.235787E-07  0.716E-04    1.97      17.1  T
   7    -94.7292027 -0.258854E-07  0.170E-04    1.97      71.8  T
     SCC iter.                  ...        0 min,  0.454 sec
     gradient                   ...        0 min,  0.021 sec
 * total energy  :   -93.2141032 Eh     change       -0.2438741E-03 Eh
   gradient norm :     0.0110310 Eh/α   predicted    -0.2530606E-03 (   3.77%)
   displ. norm   :     0.1663032 α      lambda       -0.3061135E-03
   maximum displ.:     0.0851489 α      in ANC's #1, #2, #8, ...

........................................................................
.............................. CYCLE   42 ..............................
........................................................................

 iter      E             dE          RMSdq      gap      omega  full diag
   1    -94.7300284 -0.947300E+02  0.322E-02    1.97       0.0  T
   2    -94.7300306 -0.222174E-05  0.185E-02    1.97       1.0  T
   3    -94.7300294  0.116786E-05  0.540E-03    1.97       2.3  T
   4    -94.7300302 -0.832368E-06  0.297E-03    1.97       4.1  T
   5    -94.7300308 -0.600417E-06  0.113E-03    1.97      10.9  T
   6    -94.7300309 -0.735318E-07  0.478E-04    1.97      25.6  T
   7    -94.7300309 -0.949052E-08  0.167E-04    1.97      73.2  T
     SCC iter.                  ...        0 min,  0.467 sec
     gradient                   ...        0 min,  0.022 sec
 * total energy  :   -93.2142979 Eh     change       -0.1946598E-03 Eh
   gradient norm :     0.0070807 Eh/α   predicted    -0.1572948E-03 ( -19.20%)
   displ. norm   :     0.3342994 α      lambda       -0.2784204E-03
   maximum displ.:     0.1906942 α      in ANC's #1, #2, #20, ...
 * RMSD in coord.:     0.7889110 α      energy gain  -0.3427710E-01 Eh

generating ANC from exact Hessian ...
Using Lindh-Hessian (1995)
 Shifting diagonal of input Hessian by    9.7766742268356622E-003
 Lowest  eigenvalues of input Hessian
    0.000000    0.000000    0.000000    0.000000    0.000000    0.000000
    0.010000    0.010149    0.010153    0.010313    0.010898    0.010907
    0.011133    0.011143    0.013106    0.014076    0.014347    0.014944
 Highest eigenvalues
    2.005043    2.030075    2.042350    2.179541    2.246973    2.266488


........................................................................
.............................. CYCLE   43 ..............................
........................................................................

 iter      E             dE          RMSdq      gap      omega  full diag
   1    -94.7276956 -0.947277E+02  0.487E-02    1.97       0.0  T
   2    -94.7276976 -0.199385E-05  0.285E-02    1.97       1.0  T
   3    -94.7276965  0.111771E-05  0.526E-03    1.97       2.3  T
   4    -94.7276978 -0.127795E-05  0.208E-03    1.97       5.9  T
   5    -94.7276979 -0.184151E-06  0.993E-04    1.97      12.3  T
   6    -94.7276980 -0.384690E-07  0.590E-04    1.97      20.7  T
     SCC iter.                  ...        0 min,  0.326 sec
     gradient                   ...        0 min,  0.045 sec
 * total energy  :   -93.2144571 Eh     change       -0.1592012E-03 Eh
   gradient norm :     0.0074838 Eh/α   predicted     0.0000000E+00 (-100.00%)
   displ. norm   :     0.0721514 α      lambda       -0.1831451E-03
   maximum displ.:     0.0259771 α      in ANC's #17, #18, #7, ...

........................................................................
.............................. CYCLE   44 ..............................
........................................................................

 iter      E             dE          RMSdq      gap      omega  full diag
   1    -94.7295582 -0.947296E+02  0.158E-02    1.97       0.0  T
   2    -94.7295589 -0.746196E-06  0.900E-03    1.97       1.4  T
   3    -94.7295587  0.146841E-06  0.255E-03    1.97       4.8  T
   4    -94.7295587  0.308781E-07  0.178E-03    1.97       6.9  T
   5    -94.7295590 -0.261584E-06  0.462E-04    1.97      26.4  T
   6    -94.7295590 -0.264758E-08  0.229E-04    1.97      53.3  T
     SCC iter.                  ...        0 min,  0.410 sec
     gradient                   ...        0 min,  0.022 sec
 * total energy  :   -93.2145938 Eh     change       -0.1367317E-03 Eh
   gradient norm :     0.0023240 Eh/α   predicted    -0.9263887E-04 ( -32.25%)
   displ. norm   :     0.1484492 α      lambda       -0.1681896E-03
   maximum displ.:     0.0586852 α      in ANC's #17, #18, #7, ...

........................................................................
.............................. CYCLE   45 ..............................
........................................................................

 iter      E             dE          RMSdq      gap      omega  full diag
   1    -94.7307690 -0.947308E+02  0.210E-02    1.97       0.0  T
   2    -94.7307694 -0.375108E-06  0.124E-02    1.97       1.0  T
   3    -94.7307688  0.544455E-06  0.286E-03    1.97       4.3  T
   4    -94.7307692 -0.400634E-06  0.168E-03    1.97       7.3  T
   5    -94.7307694 -0.227932E-06  0.422E-04    1.97      29.0  T
   6    -94.7307694 -0.371701E-08  0.198E-04    1.97      61.8  T
     SCC iter.                  ...        0 min,  0.388 sec
     gradient                   ...        0 min,  0.027 sec
 * total energy  :   -93.2147166 Eh     change       -0.1228371E-03 Eh
   gradient norm :     0.0028428 Eh/α   predicted    -0.8594987E-04 ( -30.03%)
   displ. norm   :     0.2203603 α      lambda       -0.1553394E-03
   maximum displ.:     0.0939121 α      in ANC's #17, #18, #7, ...

........................................................................
.............................. CYCLE   46 ..............................
........................................................................

 iter      E             dE          RMSdq      gap      omega  full diag
   1    -94.7303017 -0.947303E+02  0.283E-02    1.97       0.0  T
   2    -94.7303020 -0.297182E-06  0.170E-02    1.97       1.0  T
   3    -94.7303014  0.625517E-06  0.291E-03    1.97       4.2  T
   4    -94.7303019 -0.536078E-06  0.150E-03    1.97       8.1  T
   5    -94.7303021 -0.173541E-06  0.430E-04    1.97      28.4  T
   6    -94.7303021 -0.625731E-08  0.186E-04    1.97      65.6  T
     SCC iter.                  ...        0 min,  0.458 sec
     gradient                   ...        0 min,  0.048 sec
 * total energy  :   -93.2148316 Eh     change       -0.1150109E-03 Eh
   gradient norm :     0.0040309 Eh/α   predicted    -0.8145376E-04 ( -29.18%)
   displ. norm   :     0.2379243 α      lambda       -0.1175553E-03
   maximum displ.:     0.1071982 α      in ANC's #17, #18, #7, ...

........................................................................
.............................. CYCLE   47 ..............................
........................................................................

 iter      E             dE          RMSdq      gap      omega  full diag
   1    -94.7289473 -0.947289E+02  0.300E-02    1.98       0.0  T
   2    -94.7289479 -0.641194E-06  0.179E-02    1.97       1.0  T
   3    -94.7289476  0.357173E-06  0.269E-03    1.98       4.5  T
   4    -94.7289478 -0.204673E-06  0.176E-03    1.97       7.0  T
   5    -94.7289480 -0.242532E-06  0.557E-04    1.97      21.9  T
   6    -94.7289480 -0.105822E-07  0.297E-04    1.98      41.2  T
     SCC iter.                  ...        0 min,  0.438 sec
     gradient                   ...        0 min,  0.018 sec
 * total energy  :   -93.2148981 Eh     change       -0.6646610E-04 Eh
   gradient norm :     0.0034986 Eh/α   predicted    -0.6211472E-04 (  -6.55%)
   displ. norm   :     0.0548278 α      lambda       -0.3924898E-04
   maximum displ.:     0.0229689 α      in ANC's #6, #17, #4, ...

........................................................................
.............................. CYCLE   48 ..............................
........................................................................

 iter      E             dE          RMSdq      gap      omega  full diag
   1    -94.7298168 -0.947298E+02  0.868E-03    1.98       0.0  T
   2    -94.7298169 -0.115406E-06  0.510E-03    1.97       2.4  T
   3    -94.7298169  0.653289E-07  0.127E-03    1.98       9.6  T
   4    -94.7298169 -0.754861E-07  0.439E-04    1.97      27.8  T
   5    -94.7298170 -0.104128E-07  0.168E-04    1.98      72.5  T
     SCC iter.                  ...        0 min,  0.259 sec
     gradient                   ...        0 min,  0.013 sec
 * total energy  :   -93.2149281 Eh     change       -0.3001043E-04 Eh
   gradient norm :     0.0016283 Eh/α   predicted    -0.1969150E-04 ( -34.38%)
   displ. norm   :     0.1669963 α      lambda       -0.4247231E-04
   maximum displ.:     0.0738240 α      in ANC's #6, #17, #3, ...

........................................................................
.............................. CYCLE   49 ..............................
........................................................................

 iter      E             dE          RMSdq      gap      omega  full diag
   1    -94.7307215 -0.947307E+02  0.208E-02    1.98       0.0  T
   2    -94.7307218 -0.246864E-06  0.124E-02    1.97       1.0  T
   3    -94.7307213  0.456736E-06  0.281E-03    1.98       4.4  T
   4    -94.7307219 -0.522634E-06  0.637E-04    1.97      19.2  T
   5    -94.7307219 -0.173947E-07  0.314E-04    1.98      38.9  T
     SCC iter.                  ...        0 min,  0.236 sec
     gradient                   ...        0 min,  0.040 sec
 * total energy  :   -93.2149626 Eh     change       -0.3452330E-04 Eh
   gradient norm :     0.0027060 Eh/α   predicted    -0.2150025E-04 ( -37.72%)
   displ. norm   :     0.0569809 α      lambda       -0.1623286E-04
   maximum displ.:     0.0249398 α      in ANC's #6, #3, #17, ...

........................................................................
.............................. CYCLE   50 ..............................
........................................................................

 iter      E             dE          RMSdq      gap      omega  full diag
   1    -94.7306377 -0.947306E+02  0.666E-03    1.98       0.0  T
   2    -94.7306377 -0.100366E-07  0.396E-03    1.98       3.1  T
   3    -94.7306376  0.760545E-07  0.976E-04    1.98      12.5  T
   4    -94.7306377 -0.787120E-07  0.250E-04    1.98      49.0  T
     SCC iter.                  ...        0 min,  0.300 sec
     gradient                   ...        0 min,  0.031 sec
 * total energy  :   -93.2149770 Eh     change       -0.1436239E-04 Eh
   gradient norm :     0.0020539 Eh/α   predicted    -0.8145011E-05 ( -43.29%)
   displ. norm   :     0.1562976 α      lambda       -0.4182661E-04
   maximum displ.:     0.0690164 α      in ANC's #3, #6, #4, ...

........................................................................
.............................. CYCLE   51 ..............................
........................................................................

 iter      E             dE          RMSdq      gap      omega  full diag
   1    -94.7305483 -0.947305E+02  0.191E-02    1.98       0.0  T
   2    -94.7305484 -0.100215E-06  0.113E-02    1.98       1.1  T
   3    -94.7305483  0.450591E-07  0.110E-03    1.98      11.1  T
   4    -94.7305484 -0.673736E-07  0.455E-04    1.98      26.9  T
   5    -94.7305484 -0.719456E-08  0.235E-04    1.98      52.0  T
     SCC iter.                  ...        0 min,  0.330 sec
     gradient                   ...        0 min,  0.023 sec
 * total energy  :   -93.2150039 Eh     change       -0.2693765E-04 Eh
   gradient norm :     0.0009196 Eh/α   predicted    -0.2142616E-04 ( -20.46%)
   displ. norm   :     0.1547244 α      lambda       -0.1270654E-04
   maximum displ.:     0.0711999 α      in ANC's #3, #4, #6, ...

........................................................................
.............................. CYCLE   52 ..............................
........................................................................

 iter      E             dE          RMSdq      gap      omega  full diag
   1    -94.7297930 -0.947298E+02  0.182E-02    1.98       0.0  T
   2    -94.7297932 -0.126513E-06  0.107E-02    1.98       1.1  T
   3    -94.7297931  0.725302E-07  0.124E-03    1.98       9.8  T
   4    -94.7297932 -0.755327E-07  0.651E-04    1.98      18.8  T
   5    -94.7297932 -0.236968E-07  0.315E-04    1.98      38.7  T
     SCC iter.                  ...        0 min,  0.606 sec
     gradient                   ...        0 min,  0.085 sec
 * total energy  :   -93.2150144 Eh     change       -0.1045964E-04 Eh
   gradient norm :     0.0015239 Eh/α   predicted    -0.6433016E-05 ( -38.50%)
   displ. norm   :     0.0919595 α      lambda       -0.1267508E-04
   maximum displ.:     0.0452862 α      in ANC's #3, #4, #2, ...

........................................................................
.............................. CYCLE   53 ..............................
........................................................................

 iter      E             dE          RMSdq      gap      omega  full diag
   1    -94.7308105 -0.947308E+02  0.127E-02    1.98       0.0  T
   2    -94.7308107 -0.152886E-06  0.747E-03    1.98       1.6  T
   3    -94.7308106  0.702816E-07  0.133E-03    1.98       9.2  T
   4    -94.7308107 -0.797504E-07  0.525E-04    1.98      23.3  T
   5    -94.7308107 -0.153351E-07  0.174E-04    1.98      70.1  T
     SCC iter.                  ...        0 min,  0.858 sec
     gradient                   ...        0 min,  0.058 sec
 * total energy  :   -93.2150264 Eh     change       -0.1199785E-04 Eh
   gradient norm :     0.0016589 Eh/α   predicted    -0.6361526E-05 ( -46.98%)
   displ. norm   :     0.1153872 α      lambda       -0.1630755E-04
   maximum displ.:     0.0626405 α      in ANC's #3, #4, #2, ...

........................................................................
[...]
    18   6 C       67   8 O                                       1.3726415
    68   6 C       69   6 C                                       1.3807122
    69   6 C       70   6 C                                       1.3978369
    70   6 C       71   6 C                                       1.4198094
    71   6 C       72   6 C                                       1.4068252
    68   6 C       73   6 C                                       1.4053525
    72   6 C       73   6 C                                       1.3828000
    70   6 C       74   6 C                                       1.4018336
    74   6 C       75   6 C                                       1.3824537
    75   6 C       76   6 C                                       1.4193194
    71   6 C       77   7 N                                       1.3447494
    76   6 C       77   7 N                                       1.3395012
    74   6 C       78   6 C                                       1.4010881
    78   6 C       79   6 C                                       1.4188673
    79   6 C       80   7 N                                       1.3426418
    75   6 C       81   6 C                                       1.4199518
    80   7 N       81   6 C                                       1.3402312
    81   6 C       82   6 C                                       1.4091671
    82   6 C       83   6 C                                       1.3954980
    76   6 C       84   6 C                                       1.4115341
    83   6 C       84   6 C                                       1.3904407
    78   6 C       85   6 C                                       1.4007881
    85   6 C       86   6 C                                       1.3778507
    86   6 C       87   6 C                                       1.4107512
    79   6 C       88   6 C                                       1.4111082
    87   6 C       88   6 C                                       1.3783151
    90   6 C       92   6 C                                       1.5338615
    90   6 C       93   6 C                                       1.5366493
    90   6 C       94   6 C                                       1.5310793
    91   6 C       95   6 C                                       1.5316772
    91   6 C       96   6 C                                       1.5354383
    91   6 C       97   6 C                                       1.5347809
    89   6 C       98   6 C                                       1.5305629
    89   6 C       99   6 C                                       1.5351087
    89   6 C      100   6 C                                       1.5357563
    72   6 C      101   1 H                                       1.0768736
    68   6 C      102   1 H                                       1.0755546
    84   6 C      103   1 H                                       1.0764387
    82   6 C      104   1 H                                       1.0775576
    88   6 C      105   1 H                                       1.0752874 (min)
    86   6 C      106   1 H                                       1.0773294
   100   6 C      107   1 H                                       1.0880418
   100   6 C      108   1 H                                       1.0879037
   100   6 C      109   1 H                                       1.0861378
    99   6 C      110   1 H                                       1.0879450
    99   6 C      111   1 H                                       1.0862872
    99   6 C      112   1 H                                       1.0882774
    98   6 C      113   1 H                                       1.0879660
    98   6 C      114   1 H                                       1.0883884
    98   6 C      115   1 H                                       1.0866232
    95   6 C      116   1 H                                       1.0876243
    95   6 C      117   1 H                                       1.0870661
    95   6 C      118   1 H                                       1.0881736
    97   6 C      119   1 H                                       1.0879561
    97   6 C      120   1 H                                       1.0879689
    97   6 C      121   1 H                                       1.0863075
    96   6 C      122   1 H                                       1.0880546
    96   6 C      123   1 H                                       1.0879402
    96   6 C      124   1 H                                       1.0856240
    94   6 C      125   1 H                                       1.0870032
    94   6 C      126   1 H                                       1.0871505
    94   6 C      127   1 H                                       1.0882372
    93   6 C      128   1 H                                       1.0879217
    93   6 C      129   1 H                                       1.0863398
    93   6 C      130   1 H                                       1.0880614
    92   6 C      131   1 H                                       1.0857100
    92   6 C      132   1 H                                       1.0869088
    92   6 C      133   1 H                                       1.0881203
    69   6 C      134   8 O                                       1.3733753
    85   6 C      134   8 O                                       1.3731921

 * 4 distinct bonds (by element types)

   Z      Z             #   av. dist./Å        max./Å        min./Å
   1 H    6 C          66     1.0854010     1.0884339     1.0752874
   6 C    6 C          60     1.4409175     1.5368192     1.3778507
   6 C    7 N           8     1.3417512     1.3447494     1.3389550
   6 C    8 O           4     1.3730222     1.3733753     1.3726415


optimized geometry written to: xtbopt.mol


           -------------------------------------------------
          | TOTAL ENERGY             -186.473915998876 Eh   |
Note: The following floating-point exceptions are signalling: IEEE_UNDERFLOW_FLAG
normal termination of xtb
          | GRADIENT NORM               0.000458990761 Eh/α |
          | HOMO-LUMO GAP               1.931570216207 eV   |
           -------------------------------------------------
########################################################################
[WARNING] Runtime exception occurred
-3- restart_readRestart: Dimension missmatch in restart file.
-2- restart_readRestart: Multiplicity missmatch in restart file.
-1- restart_readRestart: Number of electron missmatch in restart file.
########################################################################

------------------------------------------------------------------------
 * finished run on 2025/02/06 at 16:44:51.312     
------------------------------------------------------------------------
 total:
 * wall-time:     0 d,  0 h,  0 min, 44.080 sec
 *  cpu-time:     0 d,  0 h,  2 min, 20.481 sec
 * ratio c/w:     3.187 speedup
 SCF:
 * wall-time:     0 d,  0 h,  0 min,  4.094 sec
 *  cpu-time:     0 d,  0 h,  0 min, 13.443 sec
 * ratio c/w:     3.284 speedup
 ANC optimizer:
 * wall-time:     0 d,  0 h,  0 min, 39.924 sec
 *  cpu-time:     0 d,  0 h,  2 min,  6.979 sec
 * ratio c/w:     3.180 speedup

Running optimization for loose_opt_dimer.mol
      -----------------------------------------------------------      
     |                   =====================                   |     
     |                           x T B                           |     
     |                   =====================                   |     
     |                         S. Grimme                         |     
     |          Mulliken Center for Theoretical Chemistry        |     
     |                    University of Bonn                     |     
      -----------------------------------------------------------      

   * xtb version 6.7.1 (edcfbbe) compiled by 'runner@Mac-1732539442253.local' on 2024-11-25

   xtb is free software: you can redistribute it and/or modify it under
   the terms of the GNU Lesser General Public License as published by
   the Free Software Foundation, either version 3 of the License, or
   (at your option) any later version.
   
   xtb is distributed in the hope that it will be useful,
   but WITHOUT ANY WARRANTY; without even the implied warranty of
   MERCHANTABILITY or FITNESS FOR A PARTICULAR PURPOSE.  See the
   GNU Lesser General Public License for more details.
   
   Cite this work as:
   * C. Bannwarth, E. Caldeweyher, S. Ehlert, A. Hansen, P. Pracht,
     J. Seibert, S. Spicher, S. Grimme, WIREs Comput. Mol. Sci., 2020, 11,
     e01493. DOI: 10.1002/wcms.1493
   
   for GFN2-xTB:
   * C. Bannwarth, S. Ehlert and S. Grimme., J. Chem. Theory Comput., 2019,
     15, 1652-1671. DOI: 10.1021/acs.jctc.8b01176
   for GFN1-xTB:
   * S. Grimme, C. Bannwarth, P. Shushkov, J. Chem. Theory Comput., 2017,
     13, 1989-2009. DOI: 10.1021/acs.jctc.7b00118
   for GFN0-xTB:
   * P. Pracht, E. Caldeweyher, S. Ehlert, S. Grimme, ChemRxiv, 2019, preprint.
     DOI: 10.26434/chemrxiv.8326202.v1
   for GFN-FF:
   * S. Spicher and S. Grimme, Angew. Chem. Int. Ed., 2020, 59, 15665-15673.
     DOI: 10.1002/anie.202004239
   
   for ALPB and GBSA implicit solvation:
   * S. Ehlert, M. Stahn, S. Spicher, S. Grimme, J. Chem. Theory Comput.,
     2021, 17, 4250-4261. DOI: 10.1021/acs.jctc.1c00471
   
   for ddCOSMO and CPCM-X implicit solvation:
   * M. Stahn, S. Ehlert, S. Grimme, J. Phys. Chem. A,
     2023, XX, XXXX-XXXX. DOI: 10.1021/acs.jpca.3c04382
   
   for DFT-D4:
   * E. Caldeweyher, C. Bannwarth and S. Grimme, J. Chem. Phys., 2017,
     147, 034112. DOI: 10.1063/1.4993215
   * E. Caldeweyher, S. Ehlert, A. Hansen, H. Neugebauer, S. Spicher,
     C. Bannwarth and S. Grimme, J. Chem. Phys., 2019, 150, 154122.
     DOI: 10.1063/1.5090222
   * E. Caldeweyher, J.-M. Mewes, S. Ehlert and S. Grimme, Phys. Chem. Chem. Phys.
     2020, 22, 8499-8512. DOI: 10.1039/D0CP00502A
   
   for sTDA-xTB:
   * S. Grimme and C. Bannwarth, J. Chem. Phys., 2016, 145, 054103.
     DOI: 10.1063/1.4959605
   
   in the mass-spec context:
   * V. Asgeirsson, C. Bauer and S. Grimme, Chem. Sci., 2017, 8, 4879.
     DOI: 10.1039/c7sc00601b
   * J. Koopman and S. Grimme, ACS Omega 2019, 4, 12, 15120-15133.
     DOI: 10.1021/acsomega.9b02011
   
   for metadynamics refer to:
   * S. Grimme, J. Chem. Theory Comput., 2019, 155, 2847-2862
     DOI: 10.1021/acs.jctc.9b00143
   
   for SPH calculations refer to:
   * S. Spicher and S. Grimme, J. Chem. Theory Comput., 2021, 17, 1701-1714
     DOI: 10.1021/acs.jctc.0c01306
   
   for ONIOM refer to:
   * C. Plett, A. Katbashev, S. Ehlert, S. Grimme, M. Bursch,
     Phys. Chem. Chem. Phys., 2023, 25, 17860-17868. DOI: 10.1039/D3CP02178E
   
   for DIPRO refer to:
   * J. Kohn, N. Gildemeister, S. Grimme, D. Fazzi, A. Hansen,
     J. Chem. Phys., 2023, just accepted.
   
   for PTB refer to:
   * S. Grimme, M. Mueller, A. Hansen, J. Chem. Phys., 2023, 158, 124111.
     DOI: 10.1063/5.0137838
   
   with help from (in alphabetical order)
   P. Atkinson, C. Bannwarth, F. Bohle, G. Brandenburg, E. Caldeweyher
   M. Checinski, S. Dohm, S. Ehlert, S. Ehrlich, I. Gerasimov, C. Hölzer
   A. Katbashev, J. Kohn, J. Koopman, C. Lavigne, S. Lehtola, F. März, M. Müller,
   F. Musil, H. Neugebauer, J. Pisarek, C. Plett, P. Pracht, F. Pultar,
   J. Seibert, P. Shushkov, S. Spicher, M. Stahn, M. Steiner, T. Strunk,
   J. Stückrath, T. Rose, and J. Unsleber
   
 * started run on 2025/02/06 at 16:44:51.393     
   ID    Z sym.   atoms
    1    6 C      1-9, 11, 12, 14-33, 68-76, 78, 79, 81-100
    2    7 N      10, 13, 77, 80
    3    1 H      34-66, 101-133
    4    8 O      67, 134

           -------------------------------------------------
          |                Calculation Setup                |
           -------------------------------------------------

          program call               : xtb opt_dimer.mol --dipro 0.3 --gfn 2 --chrg 0 --uhf 2
          coordinate file            : opt_dimer.mol
          omp threads                :                     8


molecular fragmentation (1/2 indicates fragments):
111111111111111111111111111111111111111111111111111111111111111111122222
22222222222222222222222222222222222222222222222222222222222222
# atoms in fragment 1/2:    67    67
 fragment masses (1/2) :      449.61      449.61
CMA distance (Bohr)    :   6.718
constraining FC (au)   :  0.0500

           -------------------------------------------------
          |                 G F N 2 - x T B                 |
           -------------------------------------------------

        Reference                      10.1021/acs.jctc.8b01176
      * Hamiltonian:
        H0-scaling (s, p, d)           1.850000    2.230000    2.230000
        zeta-weighting                 0.500000
      * Dispersion:
        s8                             2.700000
        a1                             0.520000
        a2                             5.000000
        s9                             5.000000
      * Repulsion:
        kExp                           1.500000    1.000000
        rExp                           1.000000
      * Coulomb:
        alpha                          2.000000
        third order                    shell-resolved
        anisotropic                    true
        a3                             3.000000
        a5                             4.000000
        cn-shift                       1.200000
        cn-exp                         4.000000
        max-rad                        5.000000

q/qsh data taken from xtbrestart
CAMM data taken from xtbrestart
           -------------------------------------------------
          |                    D I P R O                    |
           -------------------------------------------------
Calculation for dimer 
--------------------- 
  
charge of dimer :   0.
unpaired e- of dimer :  2
repulsion energy          3.0376502402803E+00 Eh
dispersion energy         1.2484551396626E-02 Eh
number of electrons       3.4600000000000E+02 e
integral cutoff           1.7347787504999E+01 bohr

------------------------------------------------------------
  cycle        total energy    energy error   density error
------------------------------------------------------------
      1     -186.0666380908  -1.8911677E+02   1.2866259E-01
      2     -186.3258109416  -2.5917285E-01   7.1042308E-02
      3     -186.2342127505   9.1598191E-02   4.5203299E-02
      4     -186.3939234453  -1.5971069E-01   2.0340963E-02
      5     -186.4684610327  -7.4537587E-02   5.8059551E-03
      6     -186.4724642913  -4.0032586E-03   3.0668285E-03
      7     -186.4737122758  -1.2479846E-03   1.3062790E-03
      8     -186.4738481190  -1.3584316E-04   6.1512410E-04
      9     -186.4738710955  -2.2976490E-05   3.4538683E-04
     10     -186.4738880859  -1.6990432E-05   1.7998467E-04
     11     -186.4738951623  -7.0763303E-06   4.9100052E-05
     12     -186.4738954310  -2.6877953E-07   1.9607303E-05
------------------------------------------------------------

electronic energy        -1.8952403022271E+02 Eh
total energy             -1.8647389543103E+02 Eh

 total:                                   4.235 sec
 - repulsion                              0.000 sec (  0%)
 - dispersion                             0.005 sec (  0%)
 - coulomb                                0.002 sec (  0%)
 - hamiltonian                            0.027 sec (  0%)
 - scc                                    4.200 sec ( 99%)

Found 2 fragments!
Fragment 1:  1-67
Fragment 2:  68-134

[Info] Fragment spin read from .UHFfrag
Calculation for fragment 1
 ------------------------------
   
charge of fragment :   0.
unpaired e- of fragment :  1
------------------------------------------------------------
  cycle        total energy    energy error   density error
------------------------------------------------------------
      1     -93.01180930514  -9.4530084E+01   1.2838069E-01
      2     -93.16115787329  -1.4934857E-01   6.9657072E-02
      3     -93.15482204676   6.3358265E-03   4.1253331E-02
      4     -93.20150584704  -4.6683800E-02   1.4692418E-02
      5     -93.21367936786  -1.2173521E-02   3.7025080E-03
      6     -93.21384106144  -1.6169358E-04   2.4191873E-03
      7     -93.21417582799  -3.3476655E-04   1.0944865E-03
      8     -93.21422783926  -5.2011265E-05   5.0114354E-04
      9     -93.21424284524  -1.5005986E-05   1.7210156E-04
     10     -93.21424412067  -1.2754248E-06   6.1664111E-05
     11     -93.21424425275  -1.3208520E-07   2.4962378E-05
     12     -93.21424426784  -1.5090635E-08   1.1286836E-05
------------------------------------------------------------

 total:                                   1.200 sec
Calculation for fragment 2
 ------------------------------
   
charge of fragment :   0.
unpaired e- of fragment :  1
------------------------------------------------------------
  cycle        total energy    energy error   density error
------------------------------------------------------------
      1     -93.01177316635  -9.4530028E+01   1.2878388E-01
      2     -93.16128967948  -1.4951651E-01   7.0038898E-02
      3     -93.15467495112   6.6147284E-03   4.1302267E-02
      4     -93.20165138730  -4.6976436E-02   1.4675446E-02
      5     -93.21351035214  -1.1858965E-02   3.7970282E-03
      6     -93.21368459842  -1.7424628E-04   2.5588456E-03
      7     -93.21407889034  -3.9429192E-04   1.0957717E-03
      8     -93.21413020720  -5.1316861E-05   4.9407764E-04
      9     -93.21414430433  -1.4097125E-05   1.7164470E-04
     10     -93.21414554928  -1.2449551E-06   6.0552653E-05
     11     -93.21414567496  -1.2567578E-07   2.4952322E-05
     12     -93.21414569030  -1.5341556E-08   1.1325876E-05
------------------------------------------------------------

 total:                                   1.119 sec
   
   ::::::::::::::::::::::::::::::::::::::::::::::
   ::     D I P R O      C O U P L I N G S     ::
   ::::::::::::::::::::::::::::::::::::::::::::::
   
energy threshhold for near-degenerate orbitals near HOMO and LUMO considered for DIPRO:  0.300 eV
no. of orbitals within energy window of frag 1         2
no. of orbitals within energy window of frag 2         2
   
  Fragment 1 SOMO   Fragment 2 SOMO 
--------------------------------------
E_mon(orb) frag1 frag2              -9.548    -9.533 eV
J(AB):                0.011 eV
S(AB):            -0.00053959 Eh
|J(AB,eff)|:            0.006 eV
   
  Fragment 1 SOMO   Fragment 2 LUMO 
--------------------------------------
E_mon(orb) frag1 frag2              -9.548    -9.232 eV
J(AB):               -0.011 eV
S(AB):             0.00042521 Eh
|J(AB,eff)|:            0.007 eV
   
  Fragment 1 LUMO   Fragment 2 SOMO 
--------------------------------------
E_mon(orb) frag1 frag2              -9.234    -9.533 eV
J(AB):                0.005 eV
S(AB):            -0.00024776 Eh
|J(AB,eff)|:            0.003 eV
   
  Fragment 1 LUMO   Fragment 2 LUMO 
--------------------------------------
E_mon(orb) frag1 frag2              -9.234    -9.232 eV
J(AB):               -0.021 eV
S(AB):             0.00092221 Eh
|J(AB,eff)|:            0.012 eV
   
..............................................................................
:  total |J(AB,eff)| for hole transport (occ. MOs) :               0.006 eV  :
:  total |J(AB,eff)| for charge transport (unocc. MOs) :           0.012 eV  :
:  total |J(AB,eff)| for charge transfer (CT) :                    0.007 eV  :
..............................................................................
  
 Please remember, DIPRO is not available for restart!
   
normal termination of dipro
----------------------------------------------------------
 * finished run on 2025/02/06 at 16:44:58.080     
----------------------------------------------------------
 dipro:
 * wall-time:     0 d,  0 h,  0 min,  6.643 sec
 *  cpu-time:     0 d,  0 h,  0 min, 19.703 sec
 * ratio c/w:     2.966 speedup
