134
 energy: -186.460903504965 gnorm: 0.086639301743 xtb: 6.7.1 (edcfbbe)
C           -2.27210000000000        1.78140000000000        0.11440000000000
C           -1.85750000000000        0.45540000000000        0.18700000000000
C           -0.47060000000000        0.21470000000000        0.29630000000000
C            0.47950000000000        1.26140000000000        0.31740000000000
C           -0.01400000000000        2.57160000000000        0.21530000000000
C           -1.36750000000000        2.84300000000000        0.11470000000000
C           -0.01930000000000       -1.10110000000000        0.37870000000000
C            1.33820000000000       -1.35120000000000        0.49690000000000
C            2.23370000000000       -0.25300000000000        0.53750000000000
N            1.81410000000000        1.03360000000000        0.43320000000000
C           -0.91310000000000       -2.16930000000000        0.33440000000000
C           -0.40200000000000       -3.48550000000000        0.39980000000000
N            0.92460000000000       -3.74830000000000        0.52980000000000
C            1.77890000000000       -2.69530000000000        0.58850000000000
C            3.15420000000000       -2.90410000000000        0.75430000000000
C            4.05890000000000       -1.85180000000000        0.82840000000000
C            3.59240000000000       -0.54930000000000        0.70860000000000
C           -2.29220000000000       -1.90100000000000        0.19370000000000
C           -3.15100000000000       -2.99060000000000        0.09000000000000
C           -2.68460000000000       -4.30530000000000        0.12300000000000
C           -1.32990000000000       -4.53260000000000        0.29320000000000
C           -1.89750000000000        4.28210000000000        0.02080000000000
C           -3.61840000000000       -5.50470000000000       -0.09960000000000
C            5.55280000000000       -2.08610000000000        1.09470000000000
C           -5.09050000000000       -5.06970000000000       -0.22750000000000
C           -3.49790000000000       -6.48180000000000        1.08330000000000
C           -3.21130000000000       -6.21850000000000       -1.40140000000000
C            6.38610000000000       -1.44020000000000       -0.02650000000000
C            5.92280000000000       -1.45200000000000        2.44830000000000
C            5.89250000000000       -3.58730000000000        1.14480000000000
C           -2.70190000000000        4.60220000000000        1.29230000000000
C           -0.75550000000000        5.30910000000000       -0.11110000000000
C           -2.80300000000000        4.41750000000000       -1.21790000000000
H            0.70320000000000        3.36940000000000        0.21260000000000
H           -3.32660000000000        1.97180000000000        0.05190000000000
H            4.27870000000000        0.27400000000000        0.77130000000000
H            3.48660000000000       -3.92020000000000        0.84670000000000
H           -0.95170000000000       -5.53700000000000        0.32480000000000
H           -4.19470000000000       -2.78320000000000       -0.04350000000000
H           -3.67420000000000        3.76790000000000       -1.14930000000000
H           -3.16160000000000        5.44070000000000       -1.32790000000000
H           -2.25820000000000        4.15190000000000       -2.12360000000000
H           -1.15390000000000        6.31830000000000       -0.21350000000000
H           -0.14450000000000        5.10400000000000       -0.98980000000000
H           -0.11200000000000        5.30230000000000        0.76730000000000
H           -2.07700000000000        4.49980000000000        2.17910000000000
H           -3.08650000000000        5.62150000000000        1.26520000000000
H           -3.54870000000000        3.92600000000000        1.40180000000000
H            6.23160000000000       -0.36300000000000       -0.06720000000000
H            6.11260000000000       -1.85530000000000       -0.99610000000000
H            7.45000000000000       -1.61740000000000        0.12890000000000
H            5.65690000000000       -4.07450000000000        0.19910000000000
H            6.95340000000000       -3.73950000000000        1.34170000000000
H            5.33620000000000       -4.08550000000000        1.93590000000000
H            5.76740000000000       -0.37420000000000        2.43430000000000
H            6.96750000000000       -1.63720000000000        2.69590000000000
H            5.30640000000000       -1.86320000000000        3.24640000000000
H           -3.27350000000000       -5.53630000000000       -2.24880000000000
H           -2.18860000000000       -6.58870000000000       -1.34580000000000
H           -3.86400000000000       -7.06750000000000       -1.60220000000000
H           -4.16970000000000       -7.33040000000000        0.95780000000000
H           -3.75250000000000       -5.98690000000000        2.01790000000000
H           -2.48520000000000       -6.87030000000000        1.17860000000000
H           -5.42530000000000       -4.54960000000000        0.66790000000000
H           -5.23290000000000       -4.41050000000000       -1.08340000000000
H           -5.73850000000000       -5.93440000000000       -0.36800000000000
O           -2.77090000000000       -0.59460000000000        0.13640000000000
C            0.43150000000000        1.58650000000000        3.64360000000000
C           -0.13410000000000        0.31800000000000        3.70190000000000
C            0.74220000000000       -0.78490000000000        3.79440000000000
C            2.14590000000000       -0.63210000000000        3.85710000000000
C            2.64330000000000        0.67920000000000        3.79690000000000
C            1.81230000000000        1.77990000000000        3.67900000000000
C            0.20650000000000       -2.07110000000000        3.80840000000000
C            1.05550000000000       -3.16330000000000        3.87950000000000
C            2.45320000000000       -2.93780000000000        3.95800000000000
N            2.99160000000000       -1.69120000000000        3.95600000000000
C           -1.17120000000000       -2.27350000000000        3.75450000000000
C           -1.66630000000000       -3.59700000000000        3.79050000000000
N           -0.84670000000000       -4.68070000000000        3.82810000000000
C            0.49390000000000       -4.46500000000000        3.86410000000000
C            1.39080000000000       -5.54120000000000        3.90360000000000
C            2.76560000000000       -5.36140000000000        3.99510000000000
C            3.27670000000000       -4.07000000000000        4.02540000000000
C           -2.02390000000000       -1.14980000000000        3.70100000000000
C           -3.39410000000000       -1.38440000000000        3.70890000000000
C           -3.92550000000000       -2.67120000000000        3.78440000000000
C           -3.06170000000000       -3.75330000000000        3.81520000000000
C            2.43480000000000        3.17800000000000        3.55840000000000
C           -5.44750000000000       -2.84110000000000        3.90580000000000
C            3.68630000000000       -6.59170000000000        4.00990000000000
C           -6.14210000000000       -2.14030000000000        2.72410000000000
C           -5.91450000000000       -2.20820000000000        5.22920000000000
C           -5.86300000000000       -4.32480000000000        3.90660000000000
C            5.14110000000000       -6.21730000000000        4.35660000000000
C            3.19550000000000       -7.59970000000000        5.06700000000000
C            3.66090000000000       -7.24480000000000        2.61730000000000
C            1.35610000000000        4.27110000000000        3.43960000000000
C            3.28640000000000        3.46960000000000        4.80630000000000
C            3.32260000000000        3.22700000000000        2.30150000000000
H            3.70850000000000        0.81110000000000        3.82480000000000
H           -0.23910000000000        2.41870000000000        3.55110000000000
H            4.33410000000000       -3.90610000000000        4.10050000000000
H            0.97990000000000       -6.53180000000000        3.85550000000000
H           -3.44220000000000       -4.75320000000000        3.89120000000000
H           -4.04520000000000       -0.53150000000000        3.68030000000000
H            2.74580000000000        2.97170000000000        1.41400000000000
H            3.74440000000000        4.22120000000000        2.15800000000000
H            4.14820000000000        2.52050000000000        2.37270000000000
H            3.72190000000000        4.46710000000000        4.75560000000000
H            4.10250000000000        2.75530000000000        4.90520000000000
H            2.67850000000000        3.41100000000000        5.70860000000000
H            0.71910000000000        4.29120000000000        4.32330000000000
H            1.81080000000000        5.25610000000000        3.33740000000000
H            0.72790000000000        4.10500000000000        2.56640000000000
H            5.19430000000000       -5.70690000000000        5.31790000000000
H            5.57880000000000       -5.57210000000000        3.59700000000000
H            5.76430000000000       -7.10920000000000        4.41970000000000
H            4.00280000000000       -6.54360000000000        1.85650000000000
H            4.30710000000000       -8.12150000000000        2.58400000000000
H            2.65230000000000       -7.55850000000000        2.35110000000000
H            3.15370000000000       -7.13390000000000        6.05120000000000
H            3.86660000000000       -8.45600000000000        5.12820000000000
H            2.20220000000000       -7.97780000000000        4.83130000000000
H           -5.54440000000000       -4.82270000000000        2.99270000000000
H           -5.43270000000000       -4.85400000000000        4.75630000000000
H           -6.94610000000000       -4.42260000000000        3.97480000000000
H           -6.99050000000000       -2.32130000000000        5.35830000000000
H           -5.68310000000000       -1.14430000000000        5.26080000000000
H           -5.42050000000000       -2.68210000000000        6.07700000000000
H           -5.94640000000000       -1.06910000000000        2.72490000000000
H           -5.78840000000000       -2.54110000000000        1.77610000000000
H           -7.22180000000000       -2.28020000000000        2.76870000000000
O           -1.51380000000000        0.14410000000000        3.66660000000000
134
 energy: -186.468842231091 gnorm: 0.039189025966 xtb: 6.7.1 (edcfbbe)
C           -2.28100932128539        1.77019573857585        0.11789144905987
C           -1.85473075916178        0.45382991367197        0.19260660304891
C           -0.47540165292921        0.21660249069314        0.30261200064843
C            0.47945565170975        1.26192362940016        0.32256638728471
C           -0.01107673613566        2.57548396442089        0.21437419446657
C           -1.36544530017428        2.83701866287902        0.11731171011497
C           -0.01636028778126       -1.10158053623307        0.38889957919214
C            1.34069570746850       -1.35115659832906        0.50914631144698
C            2.23268896627772       -0.24922199416219        0.54605485334461
N            1.80418201523590        1.02400976453009        0.43635491886313
C           -0.91786908264283       -2.16990927976457        0.34421363895373
C           -0.40258497562520       -3.48849475740241        0.40766334472871
N            0.91859805604890       -3.73703647417881        0.54115425353742
C            1.77514593282962       -2.69796363804856        0.60094765014356
C            3.15612261452457       -2.91148926119030        0.76595402434716
C            4.05867210453342       -1.85357087029981        0.84194527664051
C            3.59747788576625       -0.54411021235416        0.71828798724806
C           -2.28738802851460       -1.89966053182247        0.20277548735942
C           -3.15340618035270       -2.97548759730425        0.08866486393762
C           -2.68179917705228       -4.29797084583583        0.11625278779235
C           -1.32968198344943       -4.53863425546300        0.29320599764620
C           -1.89312667494854        4.27080487665390        0.01912522821141
C           -3.61714492479246       -5.49113425189500       -0.09729473511513
C            5.54854723332654       -2.08856763662096        1.09198639969990
C           -5.08618163474102       -5.06924401666721       -0.22736867168951
C           -3.49516656905970       -6.47073162643516        1.07883486067268
C           -3.20809325828703       -6.20497392245848       -1.39560500289214
C            6.37666670891592       -1.44203235518552       -0.02832884292572
C            5.91663588731133       -1.45273487246457        2.44071145484025
C            5.89326474964907       -3.58180839698473        1.14192105269935
C           -2.69731285471049        4.59079395747782        1.28773258961930
C           -0.76204378342563        5.30111973173775       -0.11166124566216
C           -2.79827103773450        4.40768906709346       -1.21478621934176
H            0.71217463730607        3.37073825067905        0.20552849206077
H           -3.33992897072357        1.95820126612667        0.05051688892967
H            4.28256675323896        0.28512394865410        0.77085042655324
H            3.48256217964182       -3.93273910562139        0.84820129266978
H           -0.94711556285721       -5.54426726417578        0.32754380407147
H           -4.19923409761662       -2.76155061874208       -0.04397310472788
H           -3.67092975273015        3.76310369082834       -1.14654004147727
H           -3.14814564106110        5.43403053375200       -1.31345014613506
H           -2.24996427728602        4.14568807107910       -2.11784715349009
H           -1.18068824062404        6.30086029334582       -0.21521977621816
H           -0.15299954031668        5.10020297862689       -0.99089574508769
H           -0.12290329792304        5.30370445167869        0.76848784992776
H           -2.06976653849969        4.49384495374960        2.17197076495458
H           -3.07630700490160        5.61078410956110        1.24939663647624
H           -3.54447833711609        3.91755765600790        1.39744720432362
H            6.22434706476705       -0.36621214689695       -0.06718966954195
H            6.10359514774687       -1.86011361966795       -0.99561144072956
H            7.43723082818084       -1.62483196802750        0.13643545287412
H            5.66179434807687       -4.06784160561091        0.19564988667086
H            6.95633350228144       -3.71363539489431        1.33691275198058
H            5.34175738036990       -4.07722322562731        1.93697102045784
H            5.76767497535435       -0.37612105228049        2.41866836951640
H            6.96181897184601       -1.64592953844515        2.67812163358656
H            5.29170819290222       -1.85570506859204        3.23482563456782
H           -3.27406019032013       -5.52480082892748       -2.24301076156157
H           -2.18777909132546       -6.57654617657816       -1.33787076277227
H           -3.86653702433672       -7.05134505543256       -1.58472784650141
H           -4.17022520179543       -7.31441352191182        0.94128607733287
H           -3.74872335180441       -5.97570373465651        2.01209133906667
H           -2.48456517068725       -6.85879031586694        1.17211418142262
H           -5.42393318131411       -4.55448088085564        0.66919982807584
H           -5.23174100479624       -4.41782007910104       -1.08711589136572
H           -5.71576042633002       -5.94660902470375       -0.36576820411186
O           -2.75258873361947       -0.59770131004839        0.14715464315002
C            0.41830159201053        1.58226105450611        3.63301734607603
C           -0.13150717754704        0.31249172907157        3.69077639628529
C            0.74146172058901       -0.78164773053180        3.78336436489913
C            2.14862919882157       -0.63080919595716        3.84802391591160
C            2.64881248787877        0.68187250954816        3.79049198669131
C            1.80825461623479        1.77567998854359        3.66917616718486
C            0.20916014163917       -2.07490290788192        3.79766826524058
C            1.05695615103498       -3.16715617385241        3.86987765616227
C            2.45324227448829       -2.93457572966526        3.94941202576797
N            2.97826781930236       -1.69262036501136        3.94792959229777
C           -1.17433528398722       -2.27172598922903        3.74441866458489
C           -1.66618464823679       -3.59926744520084        3.78403775045930
N           -0.84298753630956       -4.66951450086569        3.82264608573435
C            0.48972041443551       -4.46702199665244        3.85608700212916
C            1.38824231966895       -5.54944265073340        3.89498342648947
C            2.76670458035284       -5.36128957244224        3.98858840641452
C            3.28310979326749       -4.06889119231772        4.02498611787814
C           -2.02084309970557       -1.15281262695541        3.69352904672575
C           -3.38795031219749       -1.37229840735625        3.71051735891335
C           -3.91848508821867       -2.67117840796732        3.79239794897193
C           -3.06365526475887       -3.75835178681478        3.81674114051331
C            2.42483852653289        3.17148004494900        3.55984893758971
C           -5.43580311019796       -2.84032904628391        3.90352131881316
C            3.68527491969668       -6.58529576512398        4.01431237112536
C           -6.13231120978136       -2.14024355425431        2.72745648533229
C           -5.90198092781102       -2.20748350999021        5.22387206164134
C           -5.85962844248992       -4.31548499066224        3.90653930137045
C            5.13597299891320       -6.21890894179840        4.35780057056915
C            3.19371160162234       -7.59161786464248        5.06626983163379
C            3.65579875467742       -7.23622390036458        2.62370079778013
C            1.35826522810888        4.26703753340803        3.44169159083758
C            3.27596768530255        3.46082064610402        4.80566595503890
C            3.31539462975923        3.22129837530484        2.30934845548184
H            3.71701380894206        0.81017480007410        3.82686083537747
H           -0.25913848940326        2.41355226183709        3.54864928453048
H            4.34169640163306       -3.89768777897395        4.10792992267320
H            0.97109538867589       -6.54130339552317        3.85236967101903
H           -3.43862466262735       -4.76263531246218        3.89124212822849
H           -4.03930515351454       -0.51432121192660        3.68112640728019
H            2.74301048599745        2.95426843465761        1.42396151896960
H            3.72910841015565        4.22019116741289        2.17709927012712
H            4.14299321760186        2.52135814104110        2.39019214934176
H            3.70634370112351        4.45915320805693        4.74389667071762
H            4.09216835275184        2.74901138411951        4.90256968879171
H            2.66785662893995        3.40548710522154        5.70673708373524
H            0.72522183411509        4.29255149923708        4.32706689273773
H            1.83284215685541        5.24198525909938        3.34166345647115
H            0.73602700436956        4.10307560359552        2.56495108326006
H            5.18980417236669       -5.70994874244311        5.31841283921500
H            5.57885431171409       -5.58311706898950        3.59475922831551
H            5.74104211097244       -7.12174282800106        4.42009859915733
H            4.00128070217831       -6.53604464216603        1.86528356957720
H            4.30347437661149       -8.11107268374785        2.60110908950147
H            2.64819853712675       -7.54903916522173        2.35900409867075
H            3.15413691921287       -7.12458408170501        6.04861662640640
H            3.87258051250402       -8.44109005051744        5.11867521832382
H            2.20395706222223       -7.97266596870507        4.82903119671891
H           -5.54627200139132       -4.81466372986453        2.99252408238488
H           -5.43727032521605       -4.84316725175849        4.75931176106739
H           -6.94369031898262       -4.39184137955270        3.97399864360291
H           -6.97783188238238       -2.32711453193650        5.34123485586476
H           -5.67376829511998       -1.14456209252904        5.25587805044554
H           -5.41083963756617       -2.68626822279011        6.06920392025393
H           -5.94060327699255       -1.07027849283169        2.72888468099638
H           -5.77915781972830       -2.54452681034903        1.78182778659106
H           -7.20976110364985       -2.28817399537533        2.78264232479426
O           -1.50180711711279        0.12827641067831        3.65348519943655
134
 energy: -186.471263703362 gnorm: 0.007032546153 xtb: 6.7.1 (edcfbbe)
C           -2.28716695571122        1.76001561292737        0.12312138277502
C           -1.85325990564849        0.45095342213929        0.20413026566922
C           -0.47793293827478        0.21620486662359        0.31591417013998
C            0.48160056301756        1.26003449598640        0.33073325746065
C           -0.00936820213244        2.57517000266244        0.21316646917091
C           -1.36250470810780        2.82805529475579        0.11776694465492
C           -0.01216833092452       -1.10251561981645        0.40849166201936
C            1.34346342247016       -1.35185410071319        0.53003704380847
C            2.23242852543372       -0.24606398744502        0.56034949119754
N            1.79782114613048        1.01589250816556        0.44521634901278
C           -0.92086818362291       -2.16897343877694        0.36138675002304
C           -0.40236677073250       -3.48962037715672        0.42236607857377
N            0.91344069306979       -3.72862086985632        0.56006001996574
C            1.77118693138847       -2.70172402965257        0.62120669699659
C            3.15677703485720       -2.91740918399673        0.77817189195229
C            4.05560239298208       -1.85598054075473        0.84773180828387
C            3.60059589791072       -0.54227619170269        0.72668439194924
C           -2.28421257659697       -1.89627679944684        0.21476247034190
C           -3.15640092068122       -2.96211229562761        0.09335721088429
C           -2.68001347480952       -4.28799687820501        0.12079273488271
C           -1.33157323007971       -4.53905887248929        0.30090456357139
C           -1.89174564085977        4.25575188712000        0.01761413061904
C           -3.61332352754480       -5.47564378233064       -0.09683905232256
C            5.54188010605509       -2.08849527862444        1.08847571256602
C           -5.08176705367779       -5.06532435488917       -0.22782421962474
C           -3.49161205727503       -6.45658759947213        1.07593020337884
C           -3.20380171743140       -6.18901057673070       -1.39456638513512
C            6.36576763835022       -1.44346809618971       -0.03379719860343
C            5.91315636148909       -1.44963736149610        2.43338463839611
C            5.89732065936354       -3.57558914875973        1.13959322929879
C           -2.69526219143942        4.57620027856272        1.28545110688555
C           -0.77161231941939        5.29305556500190       -0.11365163689514
C           -2.79517377741009        4.39345941384531       -1.21504881265079
H            0.71804067558775        3.36751674555344        0.19659102231730
H           -3.34699136807413        1.94833231756957        0.05203491644704
H            4.28409819683571        0.29022102604064        0.77093665967155
H            3.47784130010252       -3.94174686218342        0.85299145914967
H           -0.94579281796108       -5.54441278557043        0.33297243673074
H           -4.20207636848366       -2.74568792910729       -0.04445848069823
H           -3.66842223935961        3.75195116628964       -1.14847317244692
H           -3.13959122908094        5.42169827732808       -1.30686258899357
H           -2.24457932153315        4.13392387257114       -2.11643489957654
H           -1.20787248774164        6.28464733822476       -0.21975910267943
H           -0.16099260059012        5.09824854249735       -0.99192851073881
H           -0.13522260418814        5.30702538182353        0.76738751697002
H           -2.06496366461628        4.48385443968361        2.16735093699260
H           -3.07221331848955        5.59609382058135        1.23958252250195
H           -3.54079539022876        3.90328140208756        1.39687195143939
H            6.21432911168290       -0.36894371479086       -0.07432100304445
H            6.09197104383927       -1.86508238332698       -0.99850810739955
H            7.42468305465168       -1.62905553238293        0.13507655772782
H            5.66959188607294       -4.06434962079322        0.19472314116667
H            6.96256763216865       -3.69106817805192        1.33129855665196
H            5.35342509349177       -4.07272484581912        1.93760436263551
H            5.77561376355709       -0.37268819881695        2.40146408886558
H            6.95565525552998       -1.65398686308284        2.67079779483520
H            5.27744208501819       -1.83977622073693        3.22436803034385
H           -3.27186093217764       -5.50931458805599       -2.24114834362391
H           -2.18472800510927       -6.55958073130748       -1.33512801321373
H           -3.86484651653216       -7.03418969557546       -1.57756577816695
H           -4.16907680693601       -7.29604767864106        0.92923155622652
H           -3.74524831596547       -5.96328927723454        2.00920557531448
H           -2.48289189151929       -6.84561228505953        1.16805677570209
H           -5.42631698343810       -4.55504929168587        0.66794621424618
H           -5.23409425010100       -4.41960439665619       -1.08939334667845
H           -5.69623277947102       -5.95333067411409       -0.36452092109322
O           -2.74115535503466       -0.59920241380195        0.16232749458727
C            0.40664542569577        1.57818217116120        3.62094413127706
C           -0.13102991211619        0.30636409614396        3.67157260751098
C            0.74085046902997       -0.78209008110198        3.76348016360344
C            2.15084339130788       -0.63254078416992        3.83323013531233
C            2.64908307753607        0.68251423299965        3.78371711608398
C            1.80174298142564        1.76952254598082        3.66429311053771
C            0.21344903380119       -2.08096244327644        3.77735216073350
C            1.06001366054075       -3.17224606765547        3.85246724750924
C            2.45512690738009       -2.93196555433643        3.93667317892260
N            2.96903280342021       -1.69475232388158        3.93448385513429
C           -1.17408724158714       -2.27186087844388        3.72709733782521
C           -1.66307553464753       -3.60279776153862        3.77374370496556
N           -0.83864612977019       -4.66266421894861        3.81197368532732
C            0.48701308587347       -4.47056330794619        3.84173410978684
C            1.38774651275744       -5.55494787775872        3.88614503335508
C            2.76618654501662       -5.35828907225830        3.98733866237063
C            3.28778880582695       -4.06804684415186        4.02495328288488
C           -2.01696983416154       -1.15511999014979        3.68011448636250
C           -3.38150876640890       -1.36362888196961        3.70494720038440
C           -3.90931536345319       -2.67103400573067        3.78905248896326
C           -3.06303468551655       -3.76073215168552        3.81203125208676
C            2.41457076783398        3.16200776529262        3.56270964454509
C           -5.42187684137089       -2.83524627110815        3.90306169853012
C            3.68120878016679       -6.57840935307830        4.01768278853426
C           -6.11878996126308       -2.13685365630577        2.72885714534462
C           -5.88723709133141       -2.20289389313523        5.22286073970482
C           -5.85695356869309       -4.30373811336757        3.90788074784034
C            5.13111103208088       -6.22322081327413        4.36005878204355
C            3.19144994929565       -7.58336247241998        5.06862437881391
C            3.65107541849690       -7.22985259181497        2.62818993895370
C            1.35768703012218        4.26159810476496        3.44332056358219
C            3.26240490864365        3.44941550207208        4.80995425179911
C            3.31048647157058        3.21358737484268        2.31753590787708
H            3.71824499806502        0.80823369143855        3.82789469663865
H           -0.27314557754855        2.40904461861477        3.54055878368516
H            4.34569825609708       -3.89143073553723        4.11919756623014
H            0.96702332388486       -6.54660186842588        3.84546648423240
H           -3.43302615246969       -4.76730835758964        3.89041686312900
H           -4.03356364529167       -0.50460021745131        3.68041731290288
H            2.74568386652631        2.93075271935508        1.43305254022135
H            3.71164028610890        4.21723593512692        2.18716167271377
H            4.14458286707701        2.52437389634714        2.41074246048071
H            3.68977363391294        4.44810061329514        4.74162816635979
H            4.07777770656899        2.73887589316221        4.90801284513662
H            2.65233901352605        3.39669587671092        5.70894752845755
H            0.72514948037632        4.29461200083543        4.32783174684809