116
 energy: -22.928061455056 gnorm: 0.329736929581 xtb: 6.6.1 (8d0f1dd)
C           -3.31122850772930        0.79849766164622       -0.92477639677520
C           -2.44380812530352       -0.12270372891954       -0.27661132624697
C           -1.41337090092821        0.39579727573559        0.56335275196199
C           -0.89266158675590        1.65801491088749        0.27377586709581
C           -1.72665675402493        2.51431363229076       -0.49448366572522
C           -2.95444148494349        2.13954154133227       -1.01494489940871
C           -0.74098268209890       -0.43411532818871        1.49825021926784
C            0.56872586496315        0.03782116815119        1.86248088067890
C            1.03782416582094        1.29402317993033        1.50887470833621
N            0.31238977034758        2.07067427098208        0.65193736800696
C           -1.29695700510141       -1.39996043042223        2.41574187746061
C           -0.38243517664656       -2.18060797534842        3.13232615520648
N            0.91308504082021       -1.90366887689689        3.30325166013478
C            1.37712470144904       -0.74872102533751        2.81811050966982
C            2.52149331701875       -0.17739833758153        3.39379298866852
C            2.95849061756259        1.02681208890480        2.95105897606587
C            2.24288949469137        1.78498308775960        2.03503020483770
C           -2.74860936222260       -1.74497937691422        2.38401158947411
C           -3.09416315450955       -2.91614440870436        3.00571134491758
C           -2.16786021984049       -3.77788778654213        3.63251872101904
C           -0.85708937311598       -3.40495313382985        3.68547234358092
O           -3.71994433332149       -0.94984598373544        1.67726658385724
O           -2.55702603277562       -1.47241711578389       -0.57241635275616
C           -3.84297843593025        3.13357444054366       -1.60938954875544
C           -2.68769581069131       -5.03867041417370        4.30484659386931
H           -1.39666850744143        3.51251503834900       -0.76806311868865
H           -4.27662633836220        0.55105838579656       -1.33106614114542
H            2.66329581305412        2.73912661909249        1.72562431984580
H            3.05775395548473       -0.69369546277216        4.16536137542516
H           -0.24710966264510       -4.12034095424229        4.22946223699121
H           -4.11477991332403       -3.04712728052358        3.03244694615357
O           -4.21824883374556        4.03433712717988       -0.87713382485991
O           -4.44510595673734        2.90643496899600       -2.81853501752979
C           -5.44216520282800        3.83300025693726       -3.02488532025093
C            4.23586651889298        1.50004220933226        3.59165660008449
O            5.05927614697201        0.66079890002952        3.91714215179376
O            4.47001334453535        2.86385149488593        3.72605651435371
C            5.79457498613219        3.08584475587818        4.15829123132174
O           -3.82227255313510       -5.27347675879771        4.16636005494405
O           -1.85023202017753       -5.79767454267276        5.06656077253571
C           -2.55119635829503       -6.86252441382958        5.62930343183426
C           -5.07197156564436       -1.42399175670916        1.58830531863830
C           -1.33089900128490       -2.23622472573986       -0.99264499351172
H           -2.54510546830388       -7.76426885143998        4.99136022291012
H           -3.57194749219491       -6.44405511486021        5.74196173723541
H           -2.09133598235598       -7.02043774843818        6.64022264233588
H            5.72707967266424        3.46798026205549        5.10135971236643
H            6.34060091246885        3.78468702308830        3.50069950143490
H            6.17933064298187        2.03010500085905        4.19342358084693
H           -0.91862729772622       -2.57650129080332       -0.01361370304871
H           -0.49769766914251       -1.60651221708571       -1.34094446550576
H           -1.52632419730509       -2.94569707152159       -1.75361447637286
H           -5.11788846557077       -2.41810833635233        1.17520213188926
H           -5.67929807973498       -0.69619639428435        1.04301666067831
H           -5.57598832326623       -1.42383358739762        2.57928294206544
H           -6.13050215934830        3.76035386975488       -2.23272855695873
H           -5.86615610071888        3.45938329385866       -4.02668959924245
H           -5.13479557532099        4.87790991548477       -2.98314551356402
C           -1.38192942069774        3.73616555005018        2.91232598411686
C           -1.84821468128685        2.59982427735607        3.49755545445181
C           -1.05946531454833        2.05730632010638        4.60922730982276
C            0.19893954712228        2.69376791964407        4.86302140881997
C            0.50425395911860        3.94630308659851        4.28768785650746
C           -0.26031777722226        4.46998310053134        3.25072669343212
C           -1.20488993561782        0.74454293276906        5.14851520323437
C           -0.06287609782692        0.02744069315890        5.60930570802864
C            1.19208754369866        0.71421540266195        5.78882868583885
N            1.19428660993148        2.06344359410476        5.62744624321596
C           -2.41361422770794        0.07928500213936        5.25249410304426
C           -2.45851584031083       -1.32662100968547        5.60237876023992
N           -1.29466212405906       -1.98318595734370        5.89916817085159
C           -0.14475655767527       -1.32117560077092        5.98824682881008
C            0.97209270935794       -1.98958449505532        6.53157704134458
C            2.21982707914082       -1.36973967291181        6.68703967237737
C            2.30561929262884       -0.09745313075593        6.26436900324455
C           -3.73018485967715        0.71367583494582        5.25810242262992
C           -4.89964478833448       -0.06184623426677        5.21204641615509
C           -4.82617965800088       -1.39228978090841        5.46901303780036
C           -3.67144193418464       -1.98914944386360        5.67265433266067
O           -3.75568638935321        2.07705011038914        5.52067969627343
O           -2.94192434743730        1.91263938797883        3.01658762327703
C            0.21273512614467        5.50086066357994        2.34765104514621
C           -6.06660304520411       -2.17604633098929        5.80641622556876
H            1.41756699010566        4.38133362238595        4.66974005703471
H           -1.82880610647429        4.11982501512100        2.06992133318584
H            3.26888037378556        0.32655662585251        6.31721410015598
H            0.87146188387207       -3.08471526305024        6.57830423410869
H           -3.67716811065157       -3.05999292755990        5.83019634570050
H           -5.77379677507622        0.43595144608221        4.71017130754348
O            1.34459852619901        5.82615848916894        2.44941456579099
O           -0.74718748219123        6.07961784856304        1.59848183464284
C           -0.21473095568964        7.24015934882472        1.05753806029483
C            3.53228080814219       -2.00967610361154        7.02506769044485
O            3.64093082622715       -3.14437803815732        7.50071391725347
O            4.56565258381079       -1.22937033368332        6.69086985080897
C            5.72579357310716       -1.80692399125161        7.22246151275881
O           -7.04801223588612       -1.95726935745904        5.14194115322235
O           -6.01514389321278       -2.93743591896022        6.94765316328794
C           -7.21292732384718       -3.62681918543340        7.15115816329978
C           -4.95459780685163        2.65960679932188        5.86868674392943
C           -3.68284113682406        2.59129188358641        2.05479246020704
H           -7.43119628931628       -4.22607794725959        6.20622607140901
H           -8.06548455146707       -2.91765848248592        7.29781126410398
H           -7.07314693247270       -4.33087306029711        7.91223421050944
H            6.57332189837178       -1.29353136199234        6.78341268688262
H            5.74663761932316       -2.84282155125561        6.88089468184451
H            5.69426191474290       -1.72781984964892        8.29460302186842
H           -4.10481209541493        3.44288266176275        2.60483747673152
H           -4.49244774344916        1.87419893016926        1.82433103764650
H           -3.18901540870812        2.85154642679373        1.06781919454921
H           -5.55414326821421        2.76698137191684        4.93950725322359
H           -4.78658370641210        3.62090640967288        6.25983200635257
H           -5.43485580473958        1.97242995129449        6.65265772412460
H            0.89164886030839        7.38838561720231        1.13776105146914
H           -0.62894889903848        8.04195665205089        1.64837664327952
H           -0.59282546386754        7.45699159724320        0.03719083132488
116
 energy: -22.711150557061 gnorm: 0.482018636056 xtb: 6.6.1 (8d0f1dd)
C           -3.27278822875808        1.04433144996134       -0.71318707126582
C           -2.45960275852422        0.03839101320878       -0.08659976935292
C           -1.25975811814126        0.45589607619337        0.57572820233272
C           -0.75031393850737        1.81226489845201        0.41988584586264
C           -1.60172709168566        2.80942677935963       -0.11847196146245
C           -2.85367182005328        2.40514131573079       -0.61896288414042
C           -0.49320361942225       -0.46660263920086        1.44719214126625
C            0.83803498396919       -0.08232012580369        1.37401208043648
C            1.22522288678479        1.15252662277299        0.91490578864549
N            0.49302010563339        2.22008382272187        0.64693878263001
C           -0.76268389666522       -1.77012715034406        2.00897786864180
C            0.33173983089081       -2.59580211730718        2.52410069347757
N            1.63315736560653       -2.20109962269138        2.34514177199459
C            1.84661129705533       -1.02569490454692        1.78509082371001
C            3.21032867080685       -0.69971341704436        1.62214107692277
C            3.59835125292242        0.54194815152946        1.18913331480928
C            2.60561582161717        1.39004453265797        0.77107151422614
C           -2.10792282398397       -2.17536193015014        2.08333918634758
C           -2.35922111821942       -3.49652954035653        2.30765282153669
C           -1.30195160129206       -4.35054173428898        2.70085325568392
C            0.04616939816461       -3.88116690851402        2.91493819997427
O           -3.00526115130998       -1.17322356694794        1.91892694660683
O           -2.50405435272142       -1.24705846035825       -0.62972194311015
C           -3.71959289769969        3.50498563107604       -1.02765038511197
C           -1.59952730482534       -5.65638583797821        3.12842476866572
H           -1.35656609594176        3.79163716690438       -0.28131124481378
H           -4.27513041255205        0.68805018262502       -1.14973817653444
H            3.03360000186915        2.16102454602249        0.12915892231483
H            4.10157727615955       -1.33646342856083        1.83418912304563
H            0.80882254086845       -4.59676686618582        2.99238434348256
H           -3.42801774353299       -3.87383163100431        2.26115003918523
O           -3.21233273411207        4.51739673145425       -1.49705897158381
O           -5.02629718821506        3.07607491575393       -1.17887521178761
C           -5.94577403003127        4.13092017732751       -1.65065715143624
C            5.15260071744376        0.70901027177579        1.26021778252915
O            6.03686276616535       -0.16270241646235        1.17521943175869
O            5.50700451102012        2.10698823188044        1.24996782243872
C            6.83973844986877        2.25846862754174        0.73508175889525
O           -2.70625061044464       -6.23126631683794        2.97191010647320
O           -0.57774117390157       -6.28777563761547        3.76978022492597
C           -0.83755537134223       -7.59855931777293        4.40181823501420
C           -4.43035731382412       -1.36279567973263        2.27132960361681
C           -1.81818487505154       -1.50027522036664       -1.85032655222571
H           -1.36424170781277       -8.07375149476691        3.65604463995844
H           -1.22473522050453       -7.77311777753876        5.41848286455319
H            0.22650816472266       -8.14115626669174        4.29218396072904
H            7.33723015034206        3.01018601119201        1.51556694547150
H            6.95508299461700        2.61704745514780       -0.31590740899001
H            7.28708051317271        1.30206296203281        0.87089902994407
H           -2.14560099975250       -0.72630233268101       -2.41618402176164
H           -1.94307954463049       -2.51961462809322       -2.28084364423517
H           -0.70931359870661       -1.46627055801383       -1.67922840161646
H           -5.04931530334915       -0.84123282354705        1.45826393751110
H           -4.70842133067816       -0.84396545710916        3.15937936357693
H           -4.54996413485865       -2.40616501514015        2.53186475102753
H           -5.60573008426427        5.17908811470176       -1.35199157834921
H           -7.09893637032896        4.19738645505994       -1.36293357322836
H           -5.75731964757338        4.41337316063218       -2.70213661745725
C           -1.63241918596456        3.77050823537111        3.26688286618860
C           -2.01994390290930        2.57912085567589        3.90475687899482
C           -1.25566371891918        1.97448245370251        4.93491821888133
C            0.14225262780762        2.52913275485405        5.06914305872611
C            0.48314516592276        3.70004152977724        4.49653777864283
C           -0.38914876680772        4.29129050316199        3.53330811178614
C           -1.47497651192905        0.69700780711385        5.45510745640028
C           -0.33099149780884       -0.06941596685162        5.95246328404547
C            0.90732888298462        0.55966464259888        6.10388558380941
N            1.18864735780827        1.76527610671367        5.59874146770353
C           -2.86015783129302        0.22068456881009        5.64487240625037
C           -2.88948556304352       -1.13151689683351        6.02319521677092
N           -1.85103426510997       -1.84899351057505        6.45346453678637
C           -0.63379739041621       -1.28769597242495        6.57730492533437
C            0.31651980979328       -1.79559559364139        7.46092524781214
C            1.56365669044445       -1.21264667362326        7.57969862157121
C            1.86324794111499       -0.08471490270612        6.86555942674331
C           -3.98802671830408        1.07052019362518        5.65231150278159
C           -5.20433392513659        0.42982246785277        5.85559314840379
C           -5.26609348421951       -0.99636830005799        5.75665001410192
C           -4.14174508643595       -1.78824830656983        5.82850981430870
O           -3.97366798493873        2.46814351541234        5.50331916045658
O           -3.06195258574167        1.80487292412846        3.42189051410799
C           -0.13229081739019        5.50702470953192        2.70093357556499
C           -6.48801136018701       -1.61863396621055        6.08504629568100
H            1.42573023078088        4.29850689370357        4.66632843408254
H           -2.20847662300294        4.19378192557944        2.46071920627685
H            2.89547449981793        0.30596542090989        6.67718310049973
H            0.05126875829331       -2.51425751543683        8.27373876265231
H           -4.25071905541982       -2.76169546000038        6.28601331679631
H           -6.05650700809357        0.99909670232033        5.88518137213007
O            0.52904294129618        6.41709740847998        3.21888872336184
O           -0.66252898359135        5.38022618630292        1.41039486743076
C           -0.67033986182816        6.72828492108129        0.97042186388960
C            2.11173835661195       -1.45488685903836        8.96174814266374
O            1.69304862663500       -2.48407026852639        9.58874652767455
O            3.02804538170886       -0.49130702972913        9.47322664559420
C            3.33304789237898       -0.92232254409254       10.77549937236989
O           -7.43090157022353       -1.16527144444401        5.37354428602385
O           -6.55846701429554       -2.33617721380488        7.17854843142612
C           -7.76754773213589       -3.02639614915951        7.32700914018646
C           -4.80996687007421        3.19270538701629        6.50509994737240
C           -4.11819756776597        2.31765904553817        2.73073851155591
H           -8.47851889943386       -2.51737711290634        6.59780312886003
H           -8.04865784538828       -2.68693203339832        8.33859376110198
H           -7.66588959059539       -4.02354560904804        7.16550421504646
H            4.42476354138417       -1.09176995447019       11.02120686140007
H            2.72046249176987       -1.79661557114241       11.06107107975194
H            2.87482313146123       -0.05698652065863       11.14205372763340
H           -4.85898407290956        1.56436708372979        2.55932103095198
H           -3.62566984942310        2.54546888775152        1.84831452450690
H           -4.62106953919399        3.20321621572546        3.11151388272157
H           -5.87559414435447        3.07642438690061        6.24876417745386
H           -4.55004968548991        4.23901134211959        6.87572965075358
H           -4.49584219148327        2.50951477195619        7.24448888518285
H           -1.30465586822049        7.24164736863608        1.55076329726724
H           -0.96916771091560        6.88221765697462       -0.12383973798503
H            0.39205726719401        7.18767328978548        1.08504827813849
116
 energy: -22.733622815839 gnorm: 0.478480152365 xtb: 6.6.1 (8d0f1dd)
C           -3.12749829882508        1.11925222032109        0.28905395778516
C           -2.23183082481294        0.02845535603089        0.53848514237930
C           -0.73357385329978        0.24877989050788        0.60123305224530
C           -0.27460189371255        1.52691652698630        0.22120663149070
C           -1.26415497169357        2.44525775506107       -0.29239432806029
C           -2.63135157345137        2.28912987875792       -0.14458005344922
C            0.24483685846613       -0.68607859196810        1.14457318857838
C            1.60523054040035       -0.35862308095783        0.80943854386165
C            1.96328312450473        0.96973710451389        0.34159805764294
N            1.01525905355373        1.85184235418775        0.03289435193129
C            0.12643584284431       -1.87569609616364        1.93566215012310
C            1.22659517771548       -2.84184904326750        1.92763294847871
N            2.44649262932210       -2.61077330164124        1.34619621797202
C            2.54290314980380       -1.34800593385012        0.88725661936758
C            3.86606533129309       -0.93249340543412        0.65947283500624
C            4.21453794714855        0.35996695955540        0.42223177745098
C            3.21214328136671        1.29130890804440        0.11486316189091
C           -1.08935847544468       -2.16432758638325        2.67967081180642
C           -1.27412352142966       -3.43862815441040        3.23810031689355
C           -0.30896662608557       -4.34798443215748        3.04190917008235
C            0.87759864449343       -4.13201126188643        2.39224570837540
O           -1.91005348180002       -1.07708510787394        2.90186592086969
O           -2.85765704233504       -1.23236192218136        0.59570651216418
C           -3.61457591843879        3.37287990502077       -0.48639465803365
C           -0.69165878448807       -5.84301961658791        3.21825189052258
H           -0.94430447269659        3.25987138522600       -0.72406950193192
H           -4.27164672294718        1.19548243533273        0.19108191120527
H            3.35327774698752        2.34300191384868       -0.04820075495912
H            4.59213525383559       -1.68551088764771        0.53150775384136
H            1.62196750750794       -4.83584490880459        2.29573833839561
H           -2.22423146601691       -3.68538959731248        3.86019130227130
O           -3.37636354351328        4.55287280737057       -0.62222711759474
O           -4.98428714750958        3.09104308787484       -0.47038638012526
C           -5.74299146277456        4.15917223995321       -0.73194309570676
C            5.67969079790908        0.91126623236669        0.36795781573572
O            6.65140878118225        0.40780171457745        0.93841172837525
O            5.76592268086418        1.98439385313837       -0.38415037963607
C            7.15274336655827        2.36983657350838       -0.59284372592013
O           -1.51334117436684       -6.00719758047913        4.06749724503235
O           -0.20263877819348       -6.72434892250160        2.08191764764297
C           -0.38264553328523       -8.02112495746666        2.17971273422030
C           -3.30165849440765       -1.33116905598237        3.19779965600711
C           -2.08894923034433       -2.12706750996461       -0.21146195955888
H           -1.08233993095977       -8.24710253632053        3.01487486087740
H            0.61887313790610       -8.47956885163547        2.31533533479253
H           -0.81294740265237       -8.44378073636237        1.24321743421692
H            7.29459059056745        2.71362512473184       -1.55396893935622
H            7.71096565454856        1.39066837996337       -0.39572458994539
H            7.43633772238178        3.21845115966289        0.04972644490957
H           -2.39388842850661       -1.93297111806847       -1.34439423280318
H           -2.59596239648971       -3.09175248329050       -0.07475269574815
H           -1.03363217652295       -2.28069364887768       -0.02144455480832
H           -3.87636711483562       -0.46197960272095        2.85557122160855
H           -3.19494348431094       -1.51195831761525        4.33588022152539
H           -3.48010640744565       -2.31768137342030        2.76409736800218
H           -5.31813887383455        4.94368557201143       -0.10717502349287
H           -6.69014630315924        3.90035430752830       -0.39522763048738
H           -5.48458104233852        4.24742260013399       -1.77151336411596
C           -2.12893800444931        3.40160326145247        3.08434113729205
C           -2.78508256964573        2.63929850084775        4.00882336363341
C           -1.87867042488851        2.28164792051082        5.19469414841101
C           -0.43161405388750        2.62738177361847        5.17868318687465
C            0.03501615659601        3.60351566919997        4.26754952753899
C           -0.76964493559319        3.86545311642209        3.13538828263963
C           -2.35522697307922        1.56841745915011        6.28374525060885
C           -1.32713229448992        0.76354747118269        6.93569487977752
C            0.05155814150816        1.15017377669904        6.94801420483702
N            0.45057485165205        2.15595638195048        6.15486342208906
C           -3.68050132495487        1.05747469070688        6.64008776036588
C           -3.84585844951245       -0.22279345684469        7.31580048358801
N           -2.89388610086041       -0.76072606743802        8.08850394323638
C           -1.62043093354983       -0.31561036517930        7.78686334422311
C           -0.70933349533073       -1.08483414292049        8.48404192783327
C            0.61083800263372       -0.77941891626890        8.39933076995901
C            1.03803541614955        0.35435169583307        7.67552829991380
C           -4.89871985432643        1.65700622386383        6.10081549477903
C           -5.90709763713465        0.75229166952451        5.74128923769627
C           -5.99654942656138       -0.57010173524746        6.23895103237896
C           -5.07839817203366       -1.01776529278134        7.11077404044418
O           -5.13507326738331        3.02167114722166        6.03066341010456
O           -4.03580970288587        2.19496153877559        3.70347523320292
C           -0.20895066321208        4.68521115310117        2.06454603594682
C           -7.18769787780349       -1.39407496019979        5.86518848671812
H            1.13659780700801        3.82230287259460        4.45734876868619
H           -2.56795403074495        3.99910287006743        2.31225320164875
H            2.04679737075032        0.31367942666898        7.30824707782494
H           -0.84597318341402       -2.05258863501882        8.94868270735854
H           -5.33178415784069       -2.02304616554392        7.50970798181980
H           -6.59566554462866        1.17944156805758        5.07638672682374
O            0.97671591436012        4.69572524771831        1.94614573079920
O           -1.17682597301569        5.38758530692907        1.31733018118301
C           -0.57575682489682        6.23474583964459        0.27649050705793
C            1.51660049997213       -1.83525894881260        9.10784255882618
O            1.09874138362902       -2.98436680421027        9.49472490128296
O            2.78974050283082       -1.18120003635731        9.25646130265372
C            3.77389228882711       -1.95144075930358        9.97906453847031
O           -8.33844707884743       -1.33451376050165        6.32463601932636
O           -6.82067410637085       -2.41643635412936        4.91429405970998
C           -7.99050080772581       -3.17697942391887        4.64970441166320
C           -4.28638838589659        3.77467895080868        6.81851310506784
C           -4.93264273819728        3.14583657963344        3.02433782833470
H           -8.61015160008722       -3.12795475712599        5.63070048522914
H           -7.71266969105069       -4.17226818078712        4.36357903604027
H           -8.52874638054868       -2.76084014135527        3.82488358565449
H            4.63014342272076       -2.09810994220597        9.22031469477188
H            3.31809737846966       -2.80586979079684       10.54133653721717
H            4.12603328499721       -1.27741852736592       10.80826576244490
H           -6.06654013816122        2.99059036939440        3.28858758236865
H           -4.73664704110978        3.19486893090524        1.96672790986450
H           -4.76192620643062        4.04055798370866        3.45644143097373
H           -4.23709796975422        3.58867121585335        7.87037394535361
H           -4.53502734476062        4.72810579061203        6.66796189779763
H           -3.22079321616484        3.71258840169652        6.54555774966076
H            0.27627319819186        6.71427543354656        0.71646329856841
H           -1.26312406407664        7.07715127824847       -0.09906499242185
H           -0.15301104125441        5.80587500479996       -0.53595732685441
116
 energy: -22.764861442771 gnorm: 0.453931656956 xtb: 6.6.1 (8d0f1dd)
C           -3.03297136431781        0.57688537294044        0.19848520948849
C           -2.01229102106801       -0.37232761120739        0.36733582885435
C           -0.68220716115182        0.04845763793835        0.75822484643904
C           -0.33618470954522        1.47803161445286        0.57698490237138
C           -1.31902708036960        2.32129451184467        0.19206170117490
C           -2.59714625563647        1.95079640876804        0.00470584354757
C            0.52485861806909       -0.73753889798528        1.14544833815832
C            1.82791212170584       -0.32946451657167        0.76907629013934
C            1.98378949271473        0.98261502850906        0.47111424293755
N            0.99136710402880        1.89049097871159        0.56298577926742
C            0.50396031395696       -1.99304418957978        1.92709351704952
C            1.61285915926481       -2.91670928051387        1.76046886028604
N            2.70509758418922       -2.54452219826287        1.02438177920994
C            2.97178256267525       -1.26601616901157        0.66801992682206
C            4.10462894202348       -0.78442634036712        0.03648490956578
C            4.33475964053950        0.58683222173418       -0.29749993237007
C            3.23156200638600        1.39384616059678        0.00367434660061
C           -0.69053222727211       -2.33254871779953        2.80523746143215
C           -0.74772734170259       -3.57645844349018        3.34406914713587
C            0.20336950593569       -4.48228053901966        3.10676105724498
C            1.40358186281162       -4.11943412889405        2.47469266793773
O           -1.63133466703292       -1.28691282213597        2.88904145137624
O           -2.35089569153559       -1.70990315502126        0.29981334923977
C           -3.59222504957312        2.91658351313516       -0.44126253822810
C           -0.05643193650438       -5.85012262061443        3.57060594719382
H           -1.20289078758881        3.38293893012393       -0.21664666664099
H           -3.98487355413551        0.14059859025802        0.13108731714974
H            3.18426177971451        2.37926854934335       -0.33024211725438
H            4.82990365591611       -1.52315455150236        0.02450972231173
H            2.25070023105155       -4.64758125243167        2.73670709748541
H           -1.72410926719800       -3.87004854911745        3.78473244150524
O           -3.27593462491612        4.05653581557717       -0.76058475055812