116
 energy: -22.928061455056 gnorm: 0.329736929581 xtb: 6.6.1 (8d0f1dd)
C           -3.31122850772930        0.79849766164622       -0.92477639677520
C           -2.44380812530352       -0.12270372891954       -0.27661132624697
C           -1.41337090092821        0.39579727573559        0.56335275196199
C           -0.89266158675590        1.65801491088749        0.27377586709581
C           -1.72665675402493        2.51431363229076       -0.49448366572522
C           -2.95444148494349        2.13954154133227       -1.01494489940871
C           -0.74098268209890       -0.43411532818871        1.49825021926784
C            0.56872586496315        0.03782116815119        1.86248088067890
C            1.03782416582094        1.29402317993033        1.50887470833621
N            0.31238977034758        2.07067427098208        0.65193736800696
C           -1.29695700510141       -1.39996043042223        2.41574187746061
C           -0.38243517664656       -2.18060797534842        3.13232615520648
N            0.91308504082021       -1.90366887689689        3.30325166013478
C            1.37712470144904       -0.74872102533751        2.81811050966982
C            2.52149331701875       -0.17739833758153        3.39379298866852
C            2.95849061756259        1.02681208890480        2.95105897606587
C            2.24288949469137        1.78498308775960        2.03503020483770
C           -2.74860936222260       -1.74497937691422        2.38401158947411
C           -3.09416315450955       -2.91614440870436        3.00571134491758
C           -2.16786021984049       -3.77788778654213        3.63251872101904
C           -0.85708937311598       -3.40495313382985        3.68547234358092
O           -3.71994433332149       -0.94984598373544        1.67726658385724
O           -2.55702603277562       -1.47241711578389       -0.57241635275616
C           -3.84297843593025        3.13357444054366       -1.60938954875544
C           -2.68769581069131       -5.03867041417370        4.30484659386931
H           -1.39666850744143        3.51251503834900       -0.76806311868865
H           -4.27662633836220        0.55105838579656       -1.33106614114542
H            2.66329581305412        2.73912661909249        1.72562431984580
H            3.05775395548473       -0.69369546277216        4.16536137542516
H           -0.24710966264510       -4.12034095424229        4.22946223699121
H           -4.11477991332403       -3.04712728052358        3.03244694615357
O           -4.21824883374556        4.03433712717988       -0.87713382485991
O           -4.44510595673734        2.90643496899600       -2.81853501752979
C           -5.44216520282800        3.83300025693726       -3.02488532025093
C            4.23586651889298        1.50004220933226        3.59165660008449
O            5.05927614697201        0.66079890002952        3.91714215179376
O            4.47001334453535        2.86385149488593        3.72605651435371
C            5.79457498613219        3.08584475587818        4.15829123132174
O           -3.82227255313510       -5.27347675879771        4.16636005494405
O           -1.85023202017753       -5.79767454267276        5.06656077253571
C           -2.55119635829503       -6.86252441382958        5.62930343183426
C           -5.07197156564436       -1.42399175670916        1.58830531863830
C           -1.33089900128490       -2.23622472573986       -0.99264499351172
H           -2.54510546830388       -7.76426885143998        4.99136022291012
H           -3.57194749219491       -6.44405511486021        5.74196173723541
H           -2.09133598235598       -7.02043774843818        6.64022264233588
H            5.72707967266424        3.46798026205549        5.10135971236643
H            6.34060091246885        3.78468702308830        3.50069950143490
H            6.17933064298187        2.03010500085905        4.19342358084693
H           -0.91862729772622       -2.57650129080332       -0.01361370304871
H           -0.49769766914251       -1.60651221708571       -1.34094446550576
H           -1.52632419730509       -2.94569707152159       -1.75361447637286
H           -5.11788846557077       -2.41810833635233        1.17520213188926
H           -5.67929807973498       -0.69619639428435        1.04301666067831
H           -5.57598832326623       -1.42383358739762        2.57928294206544
H           -6.13050215934830        3.76035386975488       -2.23272855695873
H           -5.86615610071888        3.45938329385866       -4.02668959924245
H           -5.13479557532099        4.87790991548477       -2.98314551356402
C           -1.38192942069774        3.73616555005018        2.91232598411686
C           -1.84821468128685        2.59982427735607        3.49755545445181
C           -1.05946531454833        2.05730632010638        4.60922730982276
C            0.19893954712228        2.69376791964407        4.86302140881997
C            0.50425395911860        3.94630308659851        4.28768785650746
C           -0.26031777722226        4.46998310053134        3.25072669343212
C           -1.20488993561782        0.74454293276906        5.14851520323437
C           -0.06287609782692        0.02744069315890        5.60930570802864
C            1.19208754369866        0.71421540266195        5.78882868583885
N            1.19428660993148        2.06344359410476        5.62744624321596
C           -2.41361422770794        0.07928500213936        5.25249410304426
C           -2.45851584031083       -1.32662100968547        5.60237876023992
N           -1.29466212405906       -1.98318595734370        5.89916817085159
C           -0.14475655767527       -1.32117560077092        5.98824682881008
C            0.97209270935794       -1.98958449505532        6.53157704134458
C            2.21982707914082       -1.36973967291181        6.68703967237737
C            2.30561929262884       -0.09745313075593        6.26436900324455
C           -3.73018485967715        0.71367583494582        5.25810242262992
C           -4.89964478833448       -0.06184623426677        5.21204641615509
C           -4.82617965800088       -1.39228978090841        5.46901303780036
C           -3.67144193418464       -1.98914944386360        5.67265433266067
O           -3.75568638935321        2.07705011038914        5.52067969627343
O           -2.94192434743730        1.91263938797883        3.01658762327703
C            0.21273512614467        5.50086066357994        2.34765104514621
C           -6.06660304520411       -2.17604633098929        5.80641622556876
H            1.41756699010566        4.38133362238595        4.66974005703471
H           -1.82880610647429        4.11982501512100        2.06992133318584
H            3.26888037378556        0.32655662585251        6.31721410015598
H            0.87146188387207       -3.08471526305024        6.57830423410869
H           -3.67716811065157       -3.05999292755990        5.83019634570050
H           -5.77379677507622        0.43595144608221        4.71017130754348
O            1.34459852619901        5.82615848916894        2.44941456579099
O           -0.74718748219123        6.07961784856304        1.59848183464284
C           -0.21473095568964        7.24015934882472        1.05753806029483
C            3.53228080814219       -2.00967610361154        7.02506769044485
O            3.64093082622715       -3.14437803815732        7.50071391725347
O            4.56565258381079       -1.22937033368332        6.69086985080897
C            5.72579357310716       -1.80692399125161        7.22246151275881
O           -7.04801223588612       -1.95726935745904        5.14194115322235
O           -6.01514389321278       -2.93743591896022        6.94765316328794
C           -7.21292732384718       -3.62681918543340        7.15115816329978
C           -4.95459780685163        2.65960679932188        5.86868674392943
C           -3.68284113682406        2.59129188358641        2.05479246020704
H           -7.43119628931628       -4.22607794725959        6.20622607140901
H           -8.06548455146707       -2.91765848248592        7.29781126410398
H           -7.07314693247270       -4.33087306029711        7.91223421050944
H            6.57332189837178       -1.29353136199234        6.78341268688262
H            5.74663761932316       -2.84282155125561        6.88089468184451
H            5.69426191474290       -1.72781984964892        8.29460302186842
H           -4.10481209541493        3.44288266176275        2.60483747673152
H           -4.49244774344916        1.87419893016926        1.82433103764650
H           -3.18901540870812        2.85154642679373        1.06781919454921
H           -5.55414326821421        2.76698137191684        4.93950725322359
H           -4.78658370641210        3.62090640967288        6.25983200635257
H           -5.43485580473958        1.97242995129449        6.65265772412460
H            0.89164886030839        7.38838561720231        1.13776105146914
H           -0.62894889903848        8.04195665205089        1.64837664327952
H           -0.59282546386754        7.45699159724320        0.03719083132488
116
 energy: -22.846408133003 gnorm: 0.368561302527 xtb: 6.6.1 (8d0f1dd)
C           -3.12494254946581        0.85512717943538       -0.83885164085124
C           -2.37877111376971       -0.13321295085033       -0.11738034634405
C           -1.21299166409161        0.25866338544747        0.61932889489517
C           -0.56650259896584        1.55179928296879        0.31685920866623
C           -1.39562664134273        2.50887715606517       -0.47223388185842
C           -2.67338641016744        2.17584654624538       -0.94837832622129
C           -0.54769847980910       -0.59356709238829        1.60641869836211
C            0.75169090578467       -0.11001353355069        1.97634933913217
C            1.28648946048776        1.19576522870032        1.67490725860429
N            0.54486853303254        2.05498710183682        0.97613620110039
C           -1.11956196528451       -1.72821568498126        2.31553112283949
C           -0.19760673050696       -2.54104678419306        3.15806694083708
N            1.10176818842941       -2.16139633097697        3.23860195432569
C            1.52641941561139       -0.92738949207631        2.87597898893994
C            2.84897316039440       -0.52798243167265        3.19977803456935
C            3.37187706884300        0.66316795951621        2.69002530850572
C            2.62664255378733        1.60606602675400        1.97283520473875
C           -2.48359509922098       -2.07984835075546        2.38651935024228
C           -2.88680382115979       -3.23685155494772        2.99365702331417
C           -1.94585530564791       -4.00903261351181        3.70662020430260
C           -0.56864026149094       -3.69015243316432        3.71516548246701
O           -3.41333925854763       -1.19970740014076        1.93922182747976
O           -2.87028786777726       -1.44757928228790       -0.22371972877672
C           -3.58551778278101        3.26097144487813       -1.41396659339325
C           -2.48027237015183       -5.05019123852206        4.58161295135408
H           -1.16384808801264        3.58020349138126       -0.60850254345767
H           -4.16499214794690        0.60362338212278       -1.00876529293086
H            3.02906190975078        2.44024363672463        1.47629344630256
H            3.40758345673592       -1.22068728489358        3.78039118455146
H            0.21412912900164       -4.32647736183299        4.12873917557437
H           -3.92128156555874       -3.26269848708131        3.37869798950410
O           -4.65671668413020        3.20127375784072       -0.89311133107465
O           -3.13805636744537        4.16416220172331       -2.31276108252840
C           -4.22719800290719        4.94646846694615       -2.75340644161451
C            4.79320297404961        0.82093613210108        3.12167315197204
O            5.43884435450114       -0.22048302288042        3.23340208753577
O            5.29983948314968        2.00635008237365        3.56266138684722
C            6.69250196718988        2.16247067660772        3.61233094142806
O           -3.62674170275855       -4.94330638763347        5.07132573014669
O           -1.54847033616574       -6.03930377025193        4.96071501572498
C           -1.90695519198658       -6.93912420772962        5.98180756558761
C           -4.78801629905095       -1.33923536053271        2.06950804928746
C           -2.31275660630377       -2.32758392545603       -1.17436727062193
H           -2.54591180883647       -7.81172635113918        5.57517547979489
H           -2.45469220512410       -6.44638959092289        6.84247067984503
H           -0.96500524309046       -7.41866245449995        6.34807877620739
H            7.01043359041806        1.94146259382170        2.59154010152053
H            7.00913170153301        1.42766184500603        4.26299094671436
H            6.84643345703007        3.10040727204711        4.00090242431610
H           -1.57027644222679       -1.62698844439515       -1.65325315515022
H           -3.22365016785822       -2.69810981805848       -1.80401255682980
H           -1.71365617621780       -3.12874498842313       -0.76677450491075
H           -5.23425888127281       -0.62739231164651        1.32564782338130
H           -5.01160033655707       -0.95281664508580        3.04664435773556
H           -5.00624563120871       -2.33565726644076        1.51670708229983
H           -3.88077618064160        5.68210071576038       -3.45724974858413
H           -4.73695320233133        5.42744185422870       -1.92183022909969
H           -4.72321944180986        4.22198596957302       -3.44149361944058
C           -2.03045222672901        3.83111595538244        3.20068588217598
C           -2.19615877610841        2.56171047738884        3.69142343116897
C           -1.09321298683284        1.98030738525120        4.32929975484567
C            0.12065112054442        2.63502395129361        4.42059071876261
C            0.29712617694140        3.86050169491320        3.70069312083370
C           -0.78998412734689        4.43597034762923        3.03289827850499
C           -1.20690024261632        0.76025189121845        5.05330392325013
C           -0.04644725693921        0.05166522099077        5.40829343057975
C            1.13274894868166        0.79631084879579        5.39407423732319
N            1.24741769785892        2.13526095226011        5.03352732967615
C           -2.50122580372065        0.23022203512764        5.53954884162357
C           -2.52533044001374       -1.15807593140111        5.77985323231050
N           -1.42393964828747       -1.85498008365728        6.11731132217496
C           -0.20597542768073       -1.29569109043783        5.95683667933489
C            0.93383379415472       -1.88829777419265        6.55980866803380
C            2.09394648725202       -1.14293926590642        6.70673820839680
C            2.22340829603516        0.13598037665969        6.07437055743312
C           -3.68979400514975        1.04064667312437        5.76936515921641
C           -4.98464114425162        0.45988565661352        5.72628643425729
C           -5.01565303397458       -0.95566148904793        5.58107683404334
C           -3.81035143580357       -1.73961092740993        5.69015847062950
O           -3.42135087659319        2.25867207004570        6.44212703240830
O           -3.47245790074462        1.97273557863084        3.48593808619258
C           -0.81337499349664        5.58371089816252        2.08864829609221
C           -6.34194515798215       -1.64396428013684        5.37592330210518
H            1.20263248871961        4.26418279183296        3.50706878127603
H           -2.88591408547183        4.11091413319857        2.56609439025618
H            3.18762048379829        0.58147375103106        5.97546180106574
H            0.90841228049156       -2.90255050914912        6.89675435614510
H           -4.11281080146463       -2.79279899878609        5.50646238742919
H           -5.80872480197563        1.09205032457533        5.50194264894536
O            0.13076927724256        6.41930469252153        2.09122242696655
O           -1.97544616018791        5.59789362652328        1.30515953832902
C           -1.88695680788261        6.65926367926381        0.39916438663366
C            3.25418239978688       -1.65315209145904        7.47970886022482
O            3.24626835494781       -2.63020484527768        8.18074103438873
O            4.33900078548433       -0.82050880771592        7.39637315327793
C            5.53921857274361       -1.42988525525636        7.74926371470119
O           -7.43739967145806       -1.15584802425427        5.64569533778770
O           -6.13592437565472       -2.91663497830028        4.96844209552752
C           -7.32775165343261       -3.72424192670806        4.73938400046259
C           -4.44753201932127        3.06997052296977        6.90597219275290
C           -4.40017119000782        2.39311196846087        2.50899790261503
H           -7.78517865519320       -4.11440907180986        5.56025028190847
H           -7.19582749029138       -4.65356326042785        4.05872253592974
H           -8.05115143052417       -3.07137600941868        4.24041163053179
H            6.01944862352950       -0.87320303462248        8.64227119672226
H            6.24915370935786       -1.40867301899074        6.81904370124492
H            5.40485460701269       -2.45698359771710        8.01444620372743
H           -5.12336854787116        1.58413172478348        2.45047897879762
H           -3.80661346771277        2.58658715436757        1.62464148424999
H           -4.87819761780794        3.26215371225355        2.92748268938067
H           -5.02736112157622        2.47505328764425        7.50578300738856
H           -4.99774253653712        3.55177044551120        6.08938488621633
H           -4.13514991029711        3.92384474069501        7.51985096664565
H           -1.47443283328087        7.54220123191399        0.91714425663088
H           -2.89034845457304        7.05899897539365       -0.01588661562801
H           -1.19933551869213        6.34269077133745       -0.47478949961086
116
 energy: -22.854051566822 gnorm: 0.396520631415 xtb: 6.6.1 (8d0f1dd)
C           -2.48983391169121        0.48185197097602       -1.02678670698089
C           -1.76729985722884       -0.46145429070279       -0.27461087160724
C           -0.86384550308408        0.05384924280834        0.73186831194744
C           -0.42652582766496        1.40313267162328        0.59141234976572
C           -1.14550348040352        2.29009769373837       -0.21055265343141
C           -2.10778769015484        1.88258453323776       -1.06437987824333
C           -0.24512158743805       -0.66574395708744        1.84111006908328
C            1.07966760761044       -0.32171835777509        2.09213459713067
C            1.51956825255655        0.97476513669634        1.74325536979466
N            0.74076365949518        1.85142731080730        1.05333338030376
C           -0.78739572205377       -1.77990490153926        2.43750045918045
C            0.17228353462228       -2.69586826428035        3.05089729138432
N            1.49193598181700       -2.52086949333699        3.27613354596653
C            1.89781466220790       -1.31608693764979        2.82249854885481
C            3.26250667017607       -0.89950606278294        3.12506931133548
C            3.65139881307788        0.30918818994690        2.67012772430915
C            2.80690451158034        1.26309753800027        2.08786488834998
C           -2.21868940381865       -1.95595408007884        2.59577593823395
C           -2.65068380387021       -3.11307088838624        3.23995394470681
C           -1.72193524789316       -4.00822178972569        3.70912681281258
C           -0.34044771331880       -3.88830056511485        3.55770065284661
O           -3.00886125524951       -0.96475436976214        1.96760832643778
O           -2.26591221721340       -1.74020003955886       -0.64998643923636
C           -3.01653528534153        2.81568646433600       -1.81362731460992
C           -2.23376716610636       -5.27419963362019        4.32546945121186
H           -0.80912346232469        3.29509225851369       -0.41517428997395
H           -3.35529681159902        0.08957454619966       -1.51611626799056
H            3.31134728988982        2.16688169413149        1.95529494500852
H            3.86550140103880       -1.34939750171532        3.80823785798091
H            0.28043037185259       -4.60195549987261        4.04140675959794
H           -3.71734271618482       -3.34775394065073        3.49718307041829
O           -3.82809076595437        2.38997062859481       -2.67595193015892
O           -2.74232550829462        4.12601966670581       -1.52178129099570
C           -3.52791086763616        5.05485523323937       -2.25389270016227
C            5.02696934559259        0.69208277786668        3.01239936983507
O            5.66376538880877        0.11296652413718        3.82599939757420
O            5.45054865592812        1.83428206790377        2.40972002693765
C            6.88486381140690        2.01450466371109        2.49596161943415
O           -3.26472011118569       -5.29317982757279        5.02687744807815
O           -1.34352394196204       -6.40391754242835        4.18483229526576
C           -1.62329277656064       -7.36382287390245        5.11358084546041
C           -4.50557936406580       -1.22149441578101        2.15232550806781
C           -1.51307494028700       -2.92791820160014       -0.38066005814893
H           -2.52753844277394       -7.85429567681740        4.87850949777378
H           -1.56072562984950       -6.86382848287788        6.03309067337182
H           -0.80664069195917       -8.06386244007352        5.06246311376402
H            7.33797959575648        1.67853070008126        1.54659977977608
H            7.19921123933127        1.14838411508824        3.18570508273524
H            7.22910910402450        3.03075754505148        2.87685006222319
H           -0.57682679603841       -2.90035739318918       -1.09139365166150
H           -2.03217182961877       -3.89776588685876       -0.60837016148438
H           -1.11887687432028       -2.95366102331682        0.61094950013415
H           -5.09640699777880       -0.26959309432990        1.86557256058316
H           -4.73199058251531       -1.51502890655221        3.14264976511528
H           -4.85672847644324       -2.02070390522749        1.53868679237192
H           -3.62554164451043        6.03953888659066       -1.81587554019607
H           -4.59834577911999        4.57727054750410       -2.06606247582816
H           -3.10718196577437        5.28596206246662       -3.28037314721948
C           -2.42023444145159        4.19493525455731        3.25632657621387
C           -2.64857644226690        3.05871848424254        4.04582311645135
C           -1.64750540093430        2.47783357554424        4.86871861553902
C           -0.33339960966372        3.01116197768083        4.83916108378957
C           -0.09349361421937        4.15853077324157        3.96991450986417
C           -1.14033901368372        4.69840286902422        3.19780415839182
C           -1.83908917470941        1.21522392115702        5.49993172140029
C           -0.70525564234193        0.58367506896139        5.95220199447691
C            0.57835736031356        1.18003508375408        5.85942718145240
N            0.74739315439052        2.42983132145847        5.41412855568704
C           -3.00621515284638        0.47844707680383        5.60205026581186
C           -2.98494649538224       -0.95463530827940        5.69819481921573
N           -1.86349527410396       -1.59286946981431        5.89253806821288
C           -0.74543604385274       -0.88197338418943        6.05931520525757
C            0.46395510748277       -1.56454882373916        6.45709109544682
C            1.67406470477062       -0.89328712906656        6.55297720422979
C            1.72453110156767        0.47135475201765        6.22811156397811
C           -4.23884184636134        1.24635713046800        5.90160554240256
C           -5.37870987463033        0.43644687316469        6.17747313831395
C           -5.34752166209551       -0.98559936227690        6.07064176730099
C           -4.17598798849029       -1.66441682929511        5.81058981844479
O           -4.17718852636069        2.63781394217161        6.30953874424545
O           -3.82998351100535        2.40388654599595        3.85205829647742
C           -0.76465519936696        5.67385889877066        2.13528174680288
C           -6.56789901782021       -1.90228986336982        6.26456493483319
H            0.86355532251262        4.44978221619560        3.76275345282239
H           -3.11010399423739        4.70810901015784        2.55650504996656
H            2.61868835509737        0.90799039626758        6.01954865507700
H            0.57277919136450       -2.62059009600882        6.64413506222537
H           -3.94375870919656       -2.68469938257910        5.98648138982338
H           -6.35493421660419        0.75653982891431        6.11306049457892
O            0.32637553591299        6.21392426254498        2.14133195449876
O           -1.74491664626274        5.77154976730592        0.99798381059767
C           -1.50776677399533        6.90256480645653        0.29947029462926
C            2.96301584557423       -1.62612444502504        6.55672963767694
O            2.97273226491032       -2.83345664127132        6.46062788635550
O            4.07513237437932       -0.81408499893384        6.70597916009800
C            5.24509953743314       -1.55215317057601        6.42072478616600
O           -6.73531502223943       -2.41196025469712        7.36108728742015
O           -7.25645876204917       -2.20491263760337        5.13972159320024
C           -8.28666285294429       -3.07005468531323        5.56694900282984
C           -5.35983757915144        3.17344631721269        6.76456177235455
C           -4.86312671527923        3.08945514064644        3.06635815165754
H           -8.59876982386444       -2.89397559918585        6.51155701324726
H           -7.80315481178087       -4.01323989763858        5.62245007613839
H           -9.09467016021734       -3.04355100490216        4.90546474310309
H            5.55935377059064       -1.94122989378708        7.36827341514422
H            6.03402268598623       -0.95241462047395        6.03750575618369
H            4.92006041913804       -2.28453260018601        5.76811230153537
H           -5.84250611324946        2.66196461148077        3.32366492259322
H           -4.67826769299611        2.94104208432629        1.99744104681216
H           -4.72998022964964        4.14203792529137        3.41641527800241
H           -5.55872187537812        2.68544118555999        7.73884360601412
H           -6.06717396513181        3.06512418047766        5.91273601117654
H           -5.23465524811450        4.18118151209601        6.91267751164075
H           -1.34216889824117        7.64214460824399        1.03174808501171
H           -2.24369623781512        7.28121599498907       -0.29264890446035
H           -0.55734236427579        6.70530233829223       -0.15231833821585
116
 energy: -22.870030347907 gnorm: 0.391988818661 xtb: 6.6.1 (8d0f1dd)
C           -2.81933170414806        0.59084265094180       -0.96437705314669
C           -2.00772957919441       -0.27099729957239       -0.26051998903914
C           -0.86420215587638        0.21076763386990        0.50622425716001
C           -0.37019341368963        1.54285205765448        0.21228748768234
C           -1.20163047859416        2.34919263021715       -0.59786783585899
C           -2.44585150914158        1.91531142401322       -1.04424702351360
C           -0.11843402481962       -0.52814290080845        1.51528206823042
C            1.12316728058011        0.03649707774198        1.86087641552203
C            1.59042960840867        1.25675728890538        1.44666744632525
N            0.78875035176639        2.02681634125669        0.66671843445945
C           -0.56109865532955       -1.73266538684697        2.17383910838659
C            0.40693093285847       -2.50157261870047        2.84225690725938
N            1.67689653498687       -2.03508071955493        3.10692648466276
C            1.99705197379664       -0.79277917766132        2.73087248595757
C            3.27929598711287       -0.42937412080391        3.07807794753462
C            3.69582742285871        0.84317410976322        2.51767718571903
C            2.89442106282289        1.67332505321414        1.71979185521880
C           -1.96417262413541       -2.13684201394709        2.26161623743346
C           -2.16459118468933       -3.41918763512634        2.77087957525686
C           -1.13802674197047       -4.31921256533262        3.13082458670945
C            0.19671646392160       -3.77450666109586        3.29647488985023
O           -2.99280341645006       -1.19030576207852        2.04426309398159
O           -2.27971752137253       -1.59980012679566       -0.41418668087121
C           -3.30492790127654        3.13448668407411       -1.41043496861940
C           -1.57114740211859       -5.47413239355970        4.03229694416032
H           -0.93228988523220        3.41834720254062       -0.64327494682625
H           -3.65515491511411        0.29036948103425       -1.61296227744377
H            3.18768374458388        2.63365679995586        1.40723861277267
H            3.88494031332337       -1.04816819637166        3.65758976577773
H            1.06387513669405       -4.22451046143461        3.78532500711947
H           -3.18836182917901       -3.70908485316318        3.08664432850658
O           -4.40466553570038        3.18921282759375       -0.91021595883014