      -----------------------------------------------------------      
     |                   =====================                   |     
     |                           x T B                           |     
     |                   =====================                   |     
     |                         S. Grimme                         |     
     |          Mulliken Center for Theoretical Chemistry        |     
     |                    University of Bonn                     |     
      -----------------------------------------------------------      

   * xtb version 6.6.1 (8d0f1dd) compiled by 'runner@Mac-1690902418499.local' on 2023-08-01

   xtb is free software: you can redistribute it and/or modify it under
   the terms of the GNU Lesser General Public License as published by
   the Free Software Foundation, either version 3 of the License, or
   (at your option) any later version.
   
   xtb is distributed in the hope that it will be useful,
   but WITHOUT ANY WARRANTY; without even the implied warranty of
   MERCHANTABILITY or FITNESS FOR A PARTICULAR PURPOSE.  See the
   GNU Lesser General Public License for more details.
   
   Cite this work as:
   * C. Bannwarth, E. Caldeweyher, S. Ehlert, A. Hansen, P. Pracht,
     J. Seibert, S. Spicher, S. Grimme, WIREs Comput. Mol. Sci., 2020, 11,
     e01493. DOI: 10.1002/wcms.1493
   
   for GFN2-xTB:
   * C. Bannwarth, S. Ehlert and S. Grimme., J. Chem. Theory Comput., 2019,
     15, 1652-1671. DOI: 10.1021/acs.jctc.8b01176
   for GFN1-xTB:
   * S. Grimme, C. Bannwarth, P. Shushkov, J. Chem. Theory Comput., 2017,
     13, 1989-2009. DOI: 10.1021/acs.jctc.7b00118
   for GFN0-xTB:
   * P. Pracht, E. Caldeweyher, S. Ehlert, S. Grimme, ChemRxiv, 2019, preprint.
     DOI: 10.26434/chemrxiv.8326202.v1
   for GFN-FF:
   * S. Spicher and S. Grimme, Angew. Chem. Int. Ed., 2020, 59, 15665-15673.
     DOI: 10.1002/anie.202004239
   
   for ALPB and GBSA implicit solvation:
   * S. Ehlert, M. Stahn, S. Spicher, S. Grimme, J. Chem. Theory Comput.,
     2021, 17, 4250-4261. DOI: 10.1021/acs.jctc.1c00471
   
   for DFT-D4:
   * E. Caldeweyher, C. Bannwarth and S. Grimme, J. Chem. Phys., 2017,
     147, 034112. DOI: 10.1063/1.4993215
   * E. Caldeweyher, S. Ehlert, A. Hansen, H. Neugebauer, S. Spicher,
     C. Bannwarth and S. Grimme, J. Chem. Phys., 2019, 150, 154122.
     DOI: 10.1063/1.5090222
   * E. Caldeweyher, J.-M. Mewes, S. Ehlert and S. Grimme, Phys. Chem. Chem. Phys.
     2020, 22, 8499-8512. DOI: 10.1039/D0CP00502A
   
   for sTDA-xTB:
   * S. Grimme and C. Bannwarth, J. Chem. Phys., 2016, 145, 054103.
     DOI: 10.1063/1.4959605
   
   in the mass-spec context:
   * V. Asgeirsson, C. Bauer and S. Grimme, Chem. Sci., 2017, 8, 4879.
     DOI: 10.1039/c7sc00601b
   * J. Koopman and S. Grimme, ACS Omega 2019, 4, 12, 15120-15133.
     DOI: 10.1021/acsomega.9b02011
   
   for metadynamics refer to:
   * S. Grimme, J. Chem. Theory Comput., 2019, 155, 2847-2862
     DOI: 10.1021/acs.jctc.9b00143
   
   for SPH calculations refer to:
   * S. Spicher and S. Grimme, J. Chem. Theory Comput., 2021, 17, 1701-1714
     DOI: 10.1021/acs.jctc.0c01306
   
   with help from (in alphabetical order)
   P. Atkinson, C. Bannwarth, F. Bohle, G. Brandenburg, E. Caldeweyher
   M. Checinski, S. Dohm, S. Ehlert, S. Ehrlich, I. Gerasimov, C. Hölzer
   A. Katbashev, J. Koopman, C. Lavigne, S. Lehtola, F. März, M. Müller,
   F. Musil, H. Neugebauer, J. Pisarek, C. Plett, P. Pracht, F. Pultar,
   J. Seibert, P. Shushkov, S. Spicher, M. Stahn, M. Steiner, T. Strunk,
   J. Stückrath, T. Rose, and J. Unsleber
   
 * started run on 2025/03/14 at 12:43:04.032     

           -------------------------------------------------
          |                Calculation Setup                |
           -------------------------------------------------

          program call               : xtb scoord.19 --md --gfnff --input md_settings.inp
          coordinate file            : scoord.19
          omp threads                :                     8

   ID    Z sym.   atoms
    1    6 C      1-9, 11, 12, 14-21, 24, 25, 34, 35, 38, 41-43, 59-67, 69,
                  70, 72-79, 82, 83, 92, 93, 96, 99-101
    2    7 N      10, 13, 68, 71
    3    8 O      22, 23, 32, 33, 36, 37, 39, 40, 80, 81, 90, 91, 94, 95, 97,
                  98
    4    1 H      26-31, 44-58, 84-89, 102-116

molecular fragmentation (1/2 indicates fragments):
111111111111111111111111111111111111111111111111111111111122222222222222
22222222222222222222222222222222222222222222
# atoms in fragment 1/2:    58    58
 fragment masses (1/2) :      501.47      501.47
CMA distance (Bohr)    :   8.271
constraining FC (au)   :  0.0500

          ==================== Thresholds ====================
          CN  :   150.00000
          rep :   500.00000
          disp:  2500.00000
          HB1 :   250.00000
          HB2 :   450.00000

          Pauling EN used:
          Z : 1  EN :  2.20
          Z : 6  EN :  2.55
          Z : 7  EN :  3.04
          Z : 8  EN :  3.44
          electric field strengths (au): 0.000

           ------------------------------------------------- 
          |           Force Field Initialization            |
           ------------------------------------------------- 

          distances ...
          ----------------------------------------
          generating topology and atomic info file ...
          pair mat ...
          computing topology distances matrix with Floyd-Warshall algo ...
          making topology EEQ charges ...
          #fragments for EEQ constrain: 2
          ----------------------------------------
          generating topology and atomic info file ...
          pair mat ...
          computing topology distances matrix with Floyd-Warshall algo ...
          making topology EEQ charges ...
          rings ...
          # BATM   1140
          # H in HB   42
          doing iterative Hueckel for 2 subsystem(s) ...

  atom   neighbors  erfCN metchar sp-hybrid imet pi  qest     coordinates
    1  C       3    2.81   0.00         2    0    1  -0.013  -10.818931    4.249598   10.906808
    2  C       3    2.80   0.00         2    0    1   0.104   -8.658299    4.575053    9.228205
    3  C       3    2.84   0.00         2    0    1   0.014   -6.265422    3.103124    9.681090
    4  C       3    2.84   0.00         2    0    1   0.068   -6.040265    2.093341   12.237193
    5  C       3    2.81   0.00         2    0    1  -0.010   -8.132699    2.057641   13.806037
    6  C       3    2.80   0.00         2    0    1   0.024  -10.543816    3.013849   13.135139
    7  C       3    2.83   0.00         2    0    1   0.003   -4.151142    3.011405    7.859535
    8  C       3    2.87   0.00         2    0    1   0.018   -1.958222    2.632942    9.235405
    9  C       3    2.86   0.00         2    0    1   0.069   -1.721085    1.905915   11.794117
   10  N       2    1.96   0.00         2    0    1  -0.182   -3.795042    0.937550   12.899811
   11  C       3    2.84   0.00         2    0    1   0.014   -4.010194    3.123016    5.206790
   12  C       3    2.85   0.00         2    0    1   0.068   -1.726567    3.255457    3.965520
   13  N       2    1.97   0.00         2    0    1  -0.182    0.471026    3.370372    5.321240
   14  C       3    2.86   0.00         2    0    1   0.069    0.322315    3.120258    7.885170
   15  C       3    2.83   0.00         2    0    1  -0.009    2.624658    3.122004    9.127227
   16  C       3    2.81   0.00         2    0    1   0.024    2.797220    2.080687   11.605715
   17  C       3    2.83   0.00         2    0    1  -0.009    0.625014    1.624743   12.882447
   18  C       3    2.83   0.00         2    0    1   0.104   -6.212586    2.951232    3.730194
   19  C       3    2.80   0.00         2    0    1  -0.013   -6.097151    3.570821    1.107901
   20  C       3    2.80   0.00         2    0    1   0.024   -3.622093    3.811330   -0.161726
   21  C       3    2.82   0.00         2    0    1  -0.010   -1.600584    3.542223    1.410143
   22  O       2    1.93   0.00         3    0    1  -0.326   -8.061089    1.909527    5.222630
   23  O       2    1.91   0.00         3    0    1  -0.326   -8.490621    6.567507    7.552981
   24  C       3    2.88   0.00         2    0    1   0.224  -12.849300    2.868919   14.805248
   25  C       3    2.90   0.00         2    0    1   0.224   -3.367711    4.525150   -2.852933
   26  H       1    0.97   0.00         0    0    0   0.083   -8.118637    1.486918   15.798607
   27  H       1    0.98   0.00         0    0    0   0.084  -12.091133    5.695135   10.922720
   28  H       1    0.97   0.01         0    0    0   0.084    0.440275    1.301069   14.960561
   29  H       1    0.98   0.00         0    0    0   0.084    4.134066    3.731793    8.078642
   30  H       1    0.96   0.01         0    0    0   0.083    0.288862    4.036975    0.488196
   31  H       1    0.97   0.01         0    0    0   0.084   -7.535118    3.159445   -0.406685
   32  O       1    0.99   0.00         2    0    1  -0.364  -13.298537    0.949276   15.702336
   33  O       2    1.92   0.00         3    0    1  -0.315  -14.383569    4.911299   15.344549
   34  C       4    3.55   0.00         3    0    0   0.037  -15.958545    4.364586   17.228331
   35  C       3    2.83   0.00         2    0    1   0.223    5.102411    2.241294   13.369482
   36  O       1    0.98   0.00         2    0    1  -0.365    6.845430    0.766586   13.361308
   37  O       2    1.92   0.00         3    0    1  -0.315    5.149322    4.510673   14.552396
   38  C       4    3.50   0.00         3    0    0   0.039    7.079751    4.743288   16.366935
   39  O       1    0.99   0.00         2    0    1  -0.364   -5.116803    4.982284   -4.015546
   40  O       2    1.92   0.00         3    0    1  -0.315   -1.020185    5.122166   -3.715445
   41  C       4    3.57   0.00         3    0    0   0.037   -1.102059    5.687430   -6.140912
   42  C       4    3.48   0.00         3    0    0   0.033  -10.568940    2.135903    4.422487
   43  C       4    3.49   0.00         3    0    0   0.033   -6.591651    8.557292    7.853622
   44  H       1    0.98   0.00         0    0    0   0.079   -2.845639    5.047976   -6.621867
   45  H       1    0.97   0.01         0    0    0   0.079    0.319800    4.550770   -7.178447
   46  H       1    0.97   0.01         0    0    0   0.079   -0.756219    7.776390   -6.133503
   47  H       1    0.95   0.02         0    0    0   0.078    7.374876    6.846700   16.987507
   48  H       1    0.98   0.00         0    0    0   0.078    8.759201    3.827691   15.747709
   49  H       1    0.98   0.00         0    0    0   0.078    6.264247    3.789823   17.900283
   50  H       1    0.98   0.00         0    0    0   0.076   -5.638727    8.270354    9.521156
   51  H       1    0.98   0.00         0    0    0   0.076   -7.072482   10.488047    7.792186
   52  H       1    0.97   0.01         0    0    0   0.076   -5.233738    7.951871    6.379616
   53  H       1    0.97   0.01         0    0    0   0.076  -10.787048    1.294905    2.519108
   54  H       1    0.94   0.02         0    0    0   0.076  -10.584738    4.328763    3.950805
   55  H       1    0.98   0.00         0    0    0   0.076  -12.114033    1.824633    5.663470
   56  H       1    0.97   0.01         0    0    0   0.079  -16.642657    2.434622   16.792502
   57  H       1    0.96   0.01         0    0    0   0.079  -17.394321    5.975839   17.137289
   58  H       1    0.98   0.00         0    0    0   0.079  -14.783806    4.471659   18.841016
   59  C       3    2.83   0.00         2    0    1  -0.013    5.752497   -4.604948    6.957602
   60  C       3    2.82   0.00         2    0    1   0.104    3.804510   -4.323133    5.318833
   61  C       3    2.84   0.00         2    0    1   0.014    1.558512   -3.384308    6.339630
   62  C       3    2.88   0.00         2    0    1   0.068    1.147736   -3.428288    8.979120
   63  C       3    2.84   0.00         2    0    1  -0.010    3.117709   -3.888902   10.643468
   64  C       3    2.85   0.00         2    0    1   0.024    5.431571   -4.257888    9.456525
   65  C       3    2.86   0.00         2    0    1   0.003   -0.747898   -2.668410    5.000841
   66  C       3    2.84   0.00         2    0    1   0.018   -3.037658   -3.545802    5.772444
   67  C       3    2.87   0.00         2    0    1   0.069   -3.194860   -4.000793    8.369882
   68  N       2    1.96   0.00         2    0    1  -0.182   -1.190193   -3.734230   10.028467
   69  C       3    2.82   0.00         2    0    1   0.014   -0.574417   -1.999958    2.281669
   70  C       3    2.84   0.00         2    0    1   0.068   -2.669120   -2.570621    0.611541
   71  N       2    1.94   0.00         2    0    1  -0.182   -5.005670   -3.154573    1.429898
   72  C       3    2.85   0.00         2    0    1   0.069   -5.117023   -3.778115    4.026481
   73  C       3    2.83   0.00         2    0    1  -0.009   -7.480745   -3.830460    5.162208
   74  C       3    2.81   0.00         2    0    1   0.024   -7.741570   -4.068710    7.703319
   75  C       3    2.81   0.00         2    0    1  -0.009   -5.764115   -4.108164    9.383494
   76  C       3    2.82   0.00         2    0    1   0.104    1.409793   -0.634002    1.286174
   77  C       3    2.81   0.00         2    0    1  -0.013    1.702473    0.074079   -1.279108
   78  C       3    2.82   0.00         2    0    1   0.024   -0.127061   -0.688756   -2.944644
   79  C       3    2.82   0.00         2    0    1  -0.010   -2.440220   -1.720787   -1.959746
   80  O       2    1.91   0.00         3    0    1  -0.326    2.901380    0.375914    3.365244
   81  O       2    1.88   0.00         3    0    1  -0.326    3.692170   -5.445650    2.774202
   82  C       3    2.87   0.00         2    0    1   0.224    7.588928   -4.438837   11.199211
   83  C       3    2.94   0.00         2    0    1   0.224   -0.052796   -0.323393   -5.650287
   84  H       1    0.97   0.00         0    0    0   0.083    3.070417   -3.251304   12.612808
   85  H       1    0.97   0.00         0    0    0   0.084    7.785318   -4.847486    6.639151
   86  H       1    0.97   0.01         0    0    0   0.084   -6.208665   -3.725992   11.438728
   87  H       1    0.98   0.00         0    0    0   0.084   -9.108595   -3.916483    4.043669
   88  H       1    0.98   0.00         0    0    0   0.083   -4.057065   -1.656768   -2.900563
   89  H       1    0.98   0.00         0    0    0   0.084    2.991773    1.566724   -1.421702
   90  O       1    0.99   0.00         2    0    1  -0.364    7.148092   -4.687413   13.338663
   91  O       2    1.91   0.00         3    0    1  -0.315   10.124193   -4.258713   10.092291
   92  C       4    3.52   0.00         3    0    0   0.037   11.574426   -3.022522   11.746378
   93  C       3    2.83   0.00         2    0    1   0.223  -10.454181   -4.174007    8.773689
   94  O       1    0.98   0.00         2    0    1  -0.365  -12.317814   -3.288691    7.810395
   95  O       2    1.92   0.00         3    0    1  -0.315  -10.856112   -4.998439   11.279076
   96  C       4    3.52   0.00         3    0    0   0.039  -13.261506   -4.730059   12.035842
   97  O       1    0.99   0.00         2    0    1  -0.364   -1.842237   -1.148072   -6.746406
   98  O       2    1.92   0.00         3    0    1  -0.315    1.862694    1.133787   -6.656406
   99  C       4    3.59   0.00         3    0    0   0.037    2.688988    0.069018   -8.688819
  100  C       4    3.49   0.00         3    0    0   0.033    4.637542    2.319620    2.626564
  101  C       4    3.48   0.00         3    0    0   0.033    6.123798   -4.955729    1.334607
  102  H       1    0.97   0.00         0    0    0   0.079    1.139225   -0.557341   -9.894432
  103  H       1    0.97   0.01         0    0    0   0.079    3.360630   -1.853841   -8.292746
  104  H       1    0.97   0.01         0    0    0   0.079    4.161072    1.240458   -9.648778
  105  H       1    0.98   0.00         0    0    0   0.078  -14.074110   -5.482332   13.657088
  106  H       1    0.97   0.01         0    0    0   0.078  -14.687244   -5.139259   10.550054
  107  H       1    0.98   0.00         0    0    0   0.078  -13.830463   -2.788235   12.196721
  108  H       1    0.98   0.00         0    0    0   0.076    6.056553   -4.290848   -0.492041
  109  H       1    0.97   0.01         0    0    0   0.076    7.499146   -6.551948    1.384928
  110  H       1    0.98   0.00         0    0    0   0.076    6.907413   -3.460913    2.240397
  111  H       1    0.97   0.00         0    0    0   0.076    6.211508    1.053215    2.200452
  112  H       1    0.97   0.00         0    0    0   0.076    5.027227    3.266376    4.403720
  113  H       1    0.98   0.00         0    0    0   0.076    4.206079    3.391346    1.038095
  114  H       1    0.97   0.01         0    0    0   0.079   13.104171   -4.110361   12.711398
  115  H       1    0.95   0.02         0    0    0   0.079   10.276077   -2.430373   13.430213
  116  H       1    0.97   0.01         0    0    0   0.079   12.620869   -1.521326   10.693201

          #atoms :   116
          #bonds :   124
          #angl  :   206
          #tors  :   302
          #nmol  :   2
          #optfrag :   2
           ------------------------------------------------- 
          |                   G F N - F F                   |
          |          A general generic force-field          |
          |                  Version 1.0.3                  | 
           ------------------------------------------------- 
          Number of HB bonds (bound hydrogen)     20534
          Number of HB bonds (unbound hydrogen)   518
          Number of XB bonds                      0

 E+G (total)                   0 d,  0 h,  0 min,  0.002 sec
 distance/D3 list               ...        0 min,  0.000 sec (  1.097%)
 non bonded repulsion           ...        0 min,  0.000 sec (  4.410%)
 dCN                            ...        0 min,  0.000 sec (  7.023%)
 EEQ energy and q               ...        0 min,  0.000 sec ( 10.573%)
 D3                             ...        0 min,  0.000 sec ( 15.085%)
 EEQ gradient                   ...        0 min,  0.000 sec (  2.239%)
 bonds                          ...        0 min,  0.000 sec (  3.178%)
 bend and torsion               ...        0 min,  0.000 sec (  3.460%)
 bonded ATM                     ...        0 min,  0.000 sec (  2.420%)
 HB/XB (incl list setup)        ...        0 min,  0.001 sec ( 50.243%)

         :::::::::::::::::::::::::::::::::::::::::::::::::::::
         ::                     SUMMARY                     ::
         :::::::::::::::::::::::::::::::::::::::::::::::::::::
         :: total energy             -22.695105381412 Eh    ::
         :: gradient norm              0.563151126493 Eh/a0 ::
         ::.................................................::
         :: bond energy              -23.574734182546 Eh    ::
         :: angle energy               0.148834326927 Eh    ::
         :: torsion energy             0.125407982278 Eh    ::
         :: repulsion energy           1.756432629823 Eh    ::
         :: electrostat energy        -0.949447471687 Eh    ::
         :: dispersion energy         -0.163091398557 Eh    ::
         :: HB energy                 -0.004134120087 Eh    ::
         :: XB energy                  0.000000000000 Eh    ::
         :: bonded atm energy         -0.034373147563 Eh    ::
         :: external energy            0.000000000000 Eh    ::
         :: add. restraining           0.000000000000 Eh    ::
         :: total charge              -0.000000000000 e     ::
         :::::::::::::::::::::::::::::::::::::::::::::::::::::

           -------------------------------------------------
          |                Property Printout                |
           -------------------------------------------------

           -------------------------------------------------
          | TOTAL ENERGY              -22.695105381412 Eh   |
          | GRADIENT NORM               0.563151126493 Eh/α |
           -------------------------------------------------
           ------------------------------------------------- 
          |               Molecular Dynamics                |
           ------------------------------------------------- 
 trajectories on xtb.trj or xtb.trj.<n>

 MD time /ps        :   20.00
 dt /fs             :    2.00
 SCC accuracy       :    2.00
 temperature /K     :  709.00
 max steps          : 10000
 block length (av.) :  2500
 dumpstep(trj) /fs  :  500.00   250
 dumpstep(coords)/fs: 1000.00   500
 H atoms mass (amu) :     4
 # deg. of freedom  :   348
 SHAKE off
 Berendsen THERMOSTAT on
         time (ps)    <Epot>      Ekin   <T>   T     Etot
      0    0.00      0.00000   0.8150    0.    0.   -21.88007
est. speed in wall clock h for 100 ps :  0.02
    200    0.40    -22.40318   0.6135 1028. 1113.   -21.98589
    400    0.80    -22.48231   0.5025  969.  912.   -22.13113
    600    1.20    -22.52396   0.4488  931.  814.   -22.14405
    800    1.60    -22.55200   0.4415  900.  801.   -22.20501
   1000    2.00    -22.57186   0.4434  874.  805.   -22.26835
   1200    2.40    -22.58673   0.4561  853.  828.   -22.25318
   1400    2.80    -22.59846   0.4168  837.  756.   -22.26560
   1600    3.20    -22.60928   0.4052  824.  735.   -22.28158
   1800    3.60    -22.61768   0.3868  813.  702.   -22.31883
   2000    4.00    -22.62405   0.3950  803.  717.   -22.27888
   2200    4.40    -22.63005   0.4064  795.  738.   -22.30313
   2400    4.80    -22.63538   0.4056  789.  736.   -22.28940
block <Epot> / <T> :     -22.64652  786.     drift:  0.99D+02   Tbath : 709.
   2600    5.20    -22.63964   0.3869  783.  702.   -22.27855
   2800    5.60    -22.64268   0.3769  777.  684.   -22.32618
   3000    6.00    -22.64524   0.3714  772.  674.   -22.28752
   3200    6.40    -22.64806   0.3685  768.  669.   -22.32801
   3400    6.80    -22.64987   0.4344  764.  788.   -22.28086
   3600    7.20    -22.65158   0.4109  761.  746.   -22.27453
   3800    7.60    -22.65266   0.4060  758.  737.   -22.29357
   4000    8.00    -22.65380   0.3768  755.  684.   -22.25941
   4200    8.40    -22.65432   0.4012  753.  728.   -22.27061
   4400    8.80    -22.65542   0.4058  751.  736.   -22.27769
   4600    9.20    -22.65595   0.3411  749.  619.   -22.26727
   4800    9.60    -22.65656   0.4249  747.  771.   -22.28934
   5000   10.00    -22.65721   0.3925  746.  712.   -22.27372
block <Epot> / <T> :     -22.67696  706.     drift:  0.99D+02   Tbath : 709.
   5200   10.40    -22.65790   0.3740  745.  679.   -22.28425
   5400   10.80    -22.65865   0.4062  743.  737.   -22.25139
   5600   11.20    -22.65925   0.4112  742.  746.   -22.27114
   5800   11.60    -22.66000   0.4014  741.  729.   -22.26693
   6000   12.00    -22.66080   0.3768  740.  684.   -22.30598
   6200   12.40    -22.66176   0.3633  740.  659.   -22.31545
   6400   12.80    -22.66256   0.3719  739.  675.   -22.29029
   6600   13.20    -22.66322   0.4079  738.  740.   -22.28361
   6800   13.60    -22.66410   0.4184  737.  759.   -22.29610
   7000   14.00    -22.66480   0.3968  736.  720.   -22.29502
   7200   14.40    -22.66509   0.3542  735.  643.   -22.30285
   7400   14.80    -22.66530   0.4008  734.  727.   -22.28141
block <Epot> / <T> :     -22.68201  710.     drift:  0.99D+02   Tbath : 709.
   7600   15.20    -22.66567   0.4088  734.  742.   -22.28826
   7800   15.60    -22.66599   0.3843  733.  697.   -22.27285
   8000   16.00    -22.66623   0.3753  732.  681.   -22.30063
   8200   16.40    -22.66660   0.4181  732.  759.   -22.26267
   8400   16.80    -22.66708   0.3520  732.  639.   -22.31299
   8600   17.20    -22.66749   0.3964  731.  719.   -22.29672
   8800   17.60    -22.66792   0.3452  731.  627.   -22.31220
   9000   18.00    -22.66842   0.3825  730.  694.   -22.26689
   9200   18.40    -22.66897   0.3903  730.  708.   -22.28571
   9400   18.80    -22.66946   0.4234  729.  768.   -22.29088
   9600   19.20    -22.67000   0.3752  729.  681.   -22.31369
   9800   19.60    -22.67051   0.4211  729.  764.   -22.28975
 average properties 
 Epot               :  -22.670910402228674     
 Epot (accurate SCC):  -22.673747624343033     
 Ekin               :  0.40127994918658971     
 Etot               :  -22.269630453042083     
 T                  :   728.24313415878078     
 thermostating problem
 normal exit of md()
########################################################################
[WARNING] Runtime exception occurred
-1- gfnff_setup: Could not read topology file.
########################################################################
Note: The following floating-point exceptions are signalling: IEEE_UNDERFLOW_FLAG
normal termination of xtb

------------------------------------------------------------------------
 * finished run on 2025/03/14 at 12:43:20.121     
------------------------------------------------------------------------
 total:
 * wall-time:     0 d,  0 h,  0 min, 16.088 sec
 *  cpu-time:     0 d,  0 h,  0 min, 31.533 sec
 * ratio c/w:     1.960 speedup
 SCF:
 * wall-time:     0 d,  0 h,  0 min,  0.003 sec
 *  cpu-time:     0 d,  0 h,  0 min,  0.005 sec
 * ratio c/w:     1.917 speedup
 MD:
 * wall-time:     0 d,  0 h,  0 min, 16.069 sec
 *  cpu-time:     0 d,  0 h,  0 min, 31.516 sec
 * ratio c/w:     1.961 speedup

