116
 energy: -22.695105381412 gnorm: 0.563151126493 xtb: 6.6.1 (8d0f1dd)
C           -5.72513170782361        2.24879046472750        5.77163428954184
C           -4.58177447449262        2.42101390245153        4.88335572972424
C           -3.31551867474222        1.64210270963986        5.12301194724432
C           -3.19637051571024        1.10774839420897        6.47564348348457
C           -4.30363887239607        1.08885677697098        7.30584023312944
C           -5.57954723406556        1.59486017371586        6.95081615821423
C           -2.19668977660084        1.59356703694914        4.15908676409955
C           -1.03624626427593        1.39329308484829        4.88716561364160
C           -0.91075898318542        1.00856664883243        6.24117818501431
N           -2.00824985236303        0.49613013459599        6.82628594399730
C           -2.12210311655966        1.65262875792900        2.75531451498249
C           -0.91365993917823        1.72271353133607        2.09846294889768
N            0.24925640928333        1.78352431621168        2.81587908875834
C            0.17056169083743        1.65116950508449        4.17265251052436
C            1.38890926410130        1.65209315554964        4.82992076859618
C            1.48022525123583        1.10105210673037        6.14147985365320
C            0.33074334520775        0.85977704189097        6.81709726273043
C           -3.28755873988557        1.56172498248958        1.97393344670314
C           -3.22647340985347        1.88959729073721        0.58627596409547
C           -1.91672912082981        2.01686872079359       -0.08558177929810
C           -0.84699280866865        1.87446343435396        0.74621529951631
O           -4.26574441411428        1.01047826020405        2.76369666458296
O           -4.49304337205509        3.47537493444074        3.99686519667033
C           -6.79955664928875        1.51816651660040        7.83460002578085
C           -1.78211581875115        2.39460599268233       -1.50970686451982
H           -4.29619762043571        0.78684327615455        8.36026259788752
H           -6.39835210765547        3.01373554013714        5.78005445077787
H            0.23298368892254        0.68849626958807        7.91678820293435
H            2.18765354955126        1.97477956637458        4.27503299887054
H            0.15285942799279        2.13627510137612        0.25834243732838
H           -3.98741277538792        1.67190613283647       -0.21520847089557
O           -7.03728268461207        0.50233527353829        8.30931810674026
O           -7.61145685085195        2.59894743765101        8.11998575576379
C           -8.44489831769762        2.30963958267555        9.11684013042337
C            2.70007985821036        1.18604184638177        7.07482541223889
O            3.62244546507828        0.40565998008258        7.07049960373760
O            2.72490378447480        2.38694519595255        7.70079630129572
C            3.74644275505202        2.51003970405272        8.66100903275391
O           -2.70769574083467        2.63651115827889       -2.12493565812396
O           -0.53985871952713        2.71053339966126       -1.96612883252758
C           -0.58318451980010        3.00965812772191       -3.24963089888564
C           -5.59284213239069        1.13027107430301        2.34027928750656
C           -3.48815164324624        4.52832389014909        4.15595783776628
H           -1.50584716231782        2.67127408872446       -3.50414121376861
H            0.16923098111469        2.40816357397485       -3.79867073987202
H           -0.40017405767093        4.11508830455507       -3.24570975130027
H            3.90261646785240        3.62311754645474        8.98940163653490
H            4.63516935054274        2.02552709419474        8.33332876977036
H            3.31489649597593        2.00548774055795        9.47242170927914
H           -2.98388608940368        4.37648280320034        5.03837865498484
H           -3.74259627048669        5.55003559631334        4.12344728640341
H           -2.76957470888770        4.20794916110458        3.37594727060079
H           -5.70825978439518        0.68523403422805        1.33305429728612
H           -5.60120223601911        2.29068295665844        2.09067584366206
H           -6.41047012881287        0.96555397628064        2.99697945850284
H           -8.80691499456202        1.28834633114032        8.88620944690831
H           -9.20467820124813        3.16227796130951        9.06866255757376
H           -7.82325344148604        2.36630021327794        9.97023647188908
C            3.04409033600101       -2.43683352764754        3.68180459471018
C            2.01326002687742       -2.28770361307144        2.81460530249527
C            0.82472893010976       -1.79089851874668        3.35478792063950
C            0.60735553311541       -1.81417186888239        4.75154553074621
C            1.64982050153504       -2.05791843709220        5.63228076204152
C            2.87426339970106       -2.25317712754294        5.00417744440599
C           -0.39577054819646       -1.41206163652718        2.64633094048433
C           -1.60745939009190       -1.87635774195198        3.05464591275569
C           -1.69064734907407       -2.11712839769258        4.42915069840989
N           -0.62982306714666       -1.97606933340169        5.30683645820223
C           -0.30396814163495       -1.05833236695607        1.20740700115848
C           -1.41243731262561       -1.36031379775484        0.32361344406991
N           -2.64888660505533       -1.66932812523679        0.75666956182838
C           -2.70781177160142       -1.99929228524715        2.13072188123195
C           -3.95863973368261       -2.02699196282560        2.73172259783730
C           -4.09666244820275       -2.15306839079810        4.07642099964703
C           -3.05023830322010       -2.17394653557232        4.96553116337811
C            0.74603047562158       -0.33549954107022        0.68061375945534
C            0.90091009504735        0.03920100842350       -0.67687456771939
C           -0.06723771559409       -0.36447386376970       -1.55823827723491
C           -1.29130892485035       -0.91060117551287       -1.03705277024292
O            1.53534432149589        0.19892504145432        1.78081063412367
O            1.95381245905722       -2.88171372914126        1.46804466554161
C            4.01588762097598       -2.34893149577661        5.92636707965861
C           -0.02793824463591       -0.17113240570417       -2.99000287422207
H            1.62479483280367       -1.72051581242701        6.67441065511385
H            4.11981282938585       -2.56517929703879        3.51328748583867
H           -3.28548401737485       -1.97171005419692        6.05311443877341
H           -4.82006114429766       -2.07251370329265        2.13981734545669
H           -2.14690608745095       -0.87672393794133       -1.53491170178826
H            1.58317810452613        0.82907458534914       -0.75233236871491
O            3.78260755639972       -2.48047227616664        7.05851643578079
O            5.35749241069753       -2.25361361956190        5.34061037600105
C            6.12492255928643       -1.59944965962755        6.21591574327952
C           -5.53211422937997       -2.20878948858600        4.64283639828177
O           -6.51830643854819       -1.74030012453921        4.13308281284233
O           -5.74480688638612       -2.64505994458215        5.96863008660563
C           -7.01768690030161       -2.50303949293456        6.36909310874104
O           -0.97486999617963       -0.60753330150421       -3.57004441889558
O            0.98569508918925        0.59997402487151       -3.52241842854329
C            1.42295106120923        0.03652254787182       -4.59792515216343
C            2.45408172003982        1.22749019436084        1.38991775462458
C            3.24057419815850       -2.62245883995276        0.70624347653574
H            0.60285201528255       -0.29493209138215       -5.23590776402784
H            1.77836906147927       -0.98101049967919       -4.38833208351053
H            2.20194469842267        0.65642229933369       -5.10591321954587
H           -7.44769845774520       -2.90112501958622        7.22701957207503
H           -7.77215486399422       -2.71957878719599        5.58284811449162
H           -7.31876582752189       -1.47547068296383        6.45422704416084
H            3.20498960815223       -2.27061906335932       -0.26037681241912
H            3.96837696196474       -3.46714150330530        0.73287232453275
H            3.65524549195673       -1.83143651908878        1.18556705217453
H            3.28698859738327        0.55733738328643        1.16442900032475
H            2.66029385345146        1.72849190776800        2.33034833682641
H            2.22576139800434        1.79462312108698        0.54933641008099
H            6.93442843824996       -2.17510948619978        6.72658192207001
H            5.43786583849307       -1.28609800189466        7.10696288190818
H            6.67867637671252       -0.80505100431127        5.65859838800632
116
 energy: -22.559299192954 gnorm: 0.531159746429 xtb: 6.6.1 (8d0f1dd)
C           -6.28714737876654        2.65072593233677        5.32614879248297
C           -5.18777489660275        3.33323471629197        4.83539604474704
C           -3.90673154375611        2.67369961029627        5.28539888918492
C           -3.87895291695969        2.21625789711950        6.68168929846929
C           -5.06217806965005        1.77808136870643        7.26240389732413
C           -6.22469287600753        1.81654920238200        6.53731399786103
C           -2.75073472967015        2.38009698105711        4.44209593259548
C           -1.54652232751800        2.17027664907635        5.07825745922044
C           -1.62887841267442        1.87632788309283        6.45667705629234
N           -2.69473060974657        1.97861784940543        7.34101400668691
C           -2.56333297303412        2.51151305254647        3.07328994023388
C           -1.26181686771398        2.80967952990367        2.49813225803989
N           -0.10555888427287        2.83502982319149        3.21721483223050
C           -0.18436177888888        2.39019503029693        4.50870795369924
C            1.06487937496679        2.12302149569374        5.23953183547177
C            0.82769072066160        1.68715776611735        6.50126316952936
C           -0.41739419410219        1.52467667858694        7.12549993875538
C           -3.61598695450104        2.20240345794759        2.13481133200730
C           -3.48791882439193        2.37296516518411        0.77953701289994
C           -2.26775435350953        2.89938061368661        0.28848637099986
C           -1.16930588012303        3.12137953564197        1.12562377500189
O           -4.56625650764825        1.39445661674036        2.97947446403366
O           -5.32359419401239        4.49638683082273        4.00484807798974
C           -7.37387696774994        1.01597431608864        7.13735801293802
C           -2.02431312413152        3.35287725923633       -1.08793990467329
H           -5.13467275120791        0.99366300512951        8.03141965109273
H           -7.30305288395160        2.74333419727388        4.94239725893277
H           -0.33693359972656        1.49536691640667        8.21005693893150
H            1.95252871586384        2.47709356790661        4.94614949849188
H           -0.17362547824393        3.21819240455385        0.51468528181272
H           -4.30769625944085        2.23304708163598        0.06105288898368
O           -7.24222285990786        0.22358664832508        8.02894988496169
O           -8.63278435006002        1.15522129123144        6.59869254464870
C           -9.62809641961543        0.76083248256566        7.34857985634578
C            2.14259908611279        1.86058932610378        7.19686620086136
O            3.11827367121641        1.41847553497494        6.57398838500077
O            2.26604486291260        2.68205068771555        8.28656959706342
C            3.71409359683210        2.94189731322695        8.53909408412818
O           -2.99630519087688        3.89635725335870       -1.78791529083182
O           -0.71738871911642        3.28863833165574       -1.37114963343119
C           -0.60460987464990        3.60252342459940       -2.81380046004373
C           -5.80510345960240        0.87162995591955        2.44100763709713
C           -4.68260674745783        5.69611839604308        4.59398245894292
H            0.21868013107664        4.34976838210508       -2.92365292582306
H           -1.35316882576811        4.43919363226377       -2.84976164149612
H            0.04426883547825        2.66172961215817       -3.06736482751369
H            4.32045034451175        2.68253185114708        7.73518058969679
H            4.45434450926597        3.20996556592487        9.38901533091563
H            3.60729734220117        4.08834841790817        8.26873916183930
H           -4.74630786352228        6.33609583390463        3.71736826105860
H           -3.81567599940550        5.20931772400808        4.90458481141112
H           -4.99091212634272        6.03804921446358        5.52268288966557
H           -5.61142598291384        0.70311970621698        1.29314351651079
H           -6.32252387449283        1.73189602102133        2.83982854479726
H           -5.96865654908981       -0.01486788456992        3.04776297869691
H           -9.78701714142511       -0.30106013196977        7.30804904380154
H          -10.52197818539210        1.28917130938166        7.25114747330340
H           -9.26321304940284        0.90968348522966        8.39486306423961
C            3.54654710840672       -3.23935250528240        3.24278485610044
C            2.50522113915054       -2.90384557832363        2.44967511374980
C            1.52515958068348       -2.07526282656424        3.14628239779301
C            1.45235389971305       -2.02777888153148        4.57031701084697
C            2.70094417880347       -2.37116569275048        5.32758252753877
C            3.61877629319857       -3.16798075990669        4.66513316777725
C            0.38316276087605       -1.59562655097539        2.44900465786916
C           -0.85180219975291       -1.55552532264895        3.16679032987931
C           -0.91426907400627       -1.48412311310176        4.58302172840376
N            0.33674932382847       -1.50216492533712        5.13046863781453
C            0.19671995189790       -1.21729678230343        1.05630951271339
C           -0.94819252881537       -1.71302902566066        0.48505283961094
N           -2.09333186093338       -2.09600213463222        1.21191566398185
C           -2.16037912838247       -1.61809358809416        2.46879927009724
C           -3.29758237143903       -1.63926054896156        3.31181101118251
C           -3.25959464161490       -1.60840522798001        4.62887926040530
C           -2.05838681173801       -1.51771103190818        5.23084978905696
C            1.35901182744144       -0.76626238065977        0.32922646049494
C            1.36500397866663       -0.67222996590443       -1.10117188982618
C            0.25784462450812       -1.26283835199002       -1.75436392866878
C           -0.68109467391106       -1.85015168906000       -0.99835803441671
O            2.31774087480719       -0.66907970076225        1.22770249350277
O            2.22095851403209       -3.23163041315787        1.10228523622763
C            4.81978458300495       -3.92914477378960        5.25834978599224
C           -0.09263691156820       -1.15199987619172       -3.20762719708725
H            3.18218047848931       -1.65389248502912        6.00215749633491
H            4.45207028738564       -3.68954013136655        2.77921110091940
H           -2.27259221367444       -1.53072810593239        6.30269455804627
H           -4.28287101295025       -1.60405983897613        2.86473065286869
H           -1.26127517834435       -2.56385837427636       -1.40871585603970
H            2.27883684763512       -0.63877929288889       -1.70071268658743
O            5.28409760857444       -4.82639843315852        4.60232330341093
O            5.00791184616787       -3.33831958180490        6.43779509483032
C            5.99378693813638       -3.99376964317362        7.15472676229527
C           -4.50345299896859       -1.46022018221245        5.44217493907721
O           -5.41202564282254       -0.82444890497285        4.96504522763684
O           -4.46301468018499       -2.04386912071412        6.66410447556046
C           -5.73701508830314       -2.14662314851099        7.12224692563711
O           -0.85550903778735       -1.98252885262771       -3.61069913340564
O            0.52206985676833       -0.21784913652622       -3.89935505336286
C            0.06121851280423       -0.27862720981548       -5.24834876882628
C            3.30074760009037        0.22819317037315        0.93378348824311
C            2.74757294287806       -4.30564416719590        0.52614619618858
H            0.87511492979088       -0.29207156239906       -5.89312423483837
H           -0.36959866926227        0.67384210002269       -5.39832886718397
H           -0.66147406981222       -0.97052429448378       -5.40602334920070
H           -5.59678462238750       -2.80945449077381        7.87742456604665
H           -6.19152462231269       -2.55362458347756        6.26537010838236
H           -6.26294775590650       -1.14824602606168        7.36134369485508
H            1.77948994247072       -4.97582315983813        0.58193102267409
H            3.63023051026135       -4.55218122053340        1.22863625737038
H            3.06802363218784       -3.90547483514594       -0.33128176928340
H            3.92663761275995        0.12866546177823        0.08483398099197
H            3.70675697198281        0.61623419277574        1.76742956744085
H            2.80666082700598        1.08809529108931        0.60928862285859
H            6.32407174776630       -3.31595614083043        7.99375995514086
H            6.84319882440376       -4.36383765162789        6.55118141848747
H            5.48321890790843       -4.92292402348763        7.34045473877954
116
 energy: -22.622247074988 gnorm: 0.531628043486 xtb: 6.6.1 (8d0f1dd)
C           -6.61495092681847        2.89290599676900        5.36105390509188
C           -5.43838461195959        3.17783366245589        4.74184282265709
C           -4.02958649480788        2.76646219772715        5.11918672970012
C           -3.88091445289403        2.27348939333942        6.39964954227647
C           -5.06695712036715        2.01346364203206        7.11072034448276
C           -6.45000012167685        2.05425056202909        6.51743195439611
C           -2.79858046360148        2.58529291493808        4.33776285188000
C           -1.55187320070196        2.57757652892722        5.11531338437199
C           -1.57854615461950        2.28872116413916        6.53539852835248
N           -2.79271733924692        2.01261292473720        7.18541597805617
C           -2.68727724473454        2.67129521505681        2.87037920779016
C           -1.36988620653109        2.76982324097565        2.33726782664954
N           -0.43629406548526        2.47893598545186        3.25125036749100
C           -0.31825493024216        2.58445538869066        4.53508826427246
C            0.88696294799369        2.40049388361607        5.20330426411879
C            0.88600554341512        2.21976942622186        6.62701642197492
C           -0.33999944761790        2.07270252544480        7.32137660538057
C           -3.66532108898614        2.23270652387974        1.96235367227909
C           -3.41328785062078        2.14523330943310        0.55040323017512
C           -2.21668824544620        2.65850260759034        0.12407613422920
C           -1.06488472352454        2.65107543563073        0.96437306576808
O           -5.01642878476950        1.83081776258462        2.48491889553158
O           -5.60787927944422        3.92034446629029        3.65057416855211
C           -7.65904976637997        1.46673253602512        7.16479210947514
C           -2.11920359753551        2.76594223858508       -1.33806444890964
H           -4.97364636628134        2.03545535890573        8.16103386160743
H           -7.71456155041667        3.17375807649433        5.02495927447165
H           -0.48868280009243        1.62564933626054        8.32448577337994
H            1.79124380519978        2.45198604876801        4.76926486619547
H           -0.21253124374237        2.86692180782848        0.37190583003735
H           -4.22933889339311        1.82896625076058       -0.24550903837734
O           -7.60110446393991        0.65643262666212        8.09313818226091
O           -8.78868260730910        1.96534929516043        6.62443387687650
C           -9.92383017222322        1.05317880503790        6.89370230761157
C            2.10426468907815        1.77177200752933        7.36552392612984
O            3.12690915298307        2.36857235529222        7.17629348715373
O            2.06061061261071        0.68048123310819        8.21817479680574
C            3.28326869427003        0.51947258927152        8.80132257953163
O           -2.82834861999370        2.16915830422173       -2.11782635635615
O           -0.87793462062189        3.28231601961293       -1.89084939321600
C           -0.72213999174791        3.14220529284805       -3.27213067824994
C           -5.83974917924254        0.98935900304868        1.69238638319860
C           -4.86925875850792        5.27981391311168        3.79225777474278
H            0.16913150278940        2.56649097951678       -3.47625703142819
H           -0.28312601165390        4.04460119342045       -3.48735361165016
H           -1.72877785109394        2.79337687054589       -3.70748478448828
H            4.07516392116342        0.25479185885707        8.19223796464156
H            3.23926608832967       -0.53105017815002        9.10187751528488
H            3.56237718326184        1.18295615653757        9.70960407182714
H           -4.02197720358811        5.19697061551306        3.11620059692016
H           -4.71099050622259        5.45977808577761        4.83767896355339
H           -5.55385103062011        6.12142710241408        3.48030784117263
H           -6.80081269108519        1.02480993295292        1.99812596451679
H           -5.38457107795933       -0.03615059185830        1.96481514343466
H           -5.87421917323694        1.35797119838343        0.67345395946488
H           -9.73852939006188       -0.04602572648503        6.90177459927771
H          -10.54663597016482        1.10449466683692        6.02006276809699
H          -10.43966576456714        1.45420729955657        7.77580775772566
C            3.84019252255085       -2.98994887250646        3.17936182390201
C            2.55313444837568       -2.70549261592566        2.56047911948278
C            1.78879928625787       -1.78181969385506        3.45057091393231
C            1.92080176945508       -1.66062935491860        4.86431748256371
C            2.97028000724107       -2.34703049352730        5.38075180845583
C            3.91459283476513       -2.97046885242731        4.58993076934313
C            0.59549555851893       -1.12416447384586        2.86825913650370
C           -0.50937397602644       -1.19796711198408        3.66796461354032
C           -0.40329108683707       -1.16541582809803        5.13728910381527
N            0.88147934948047       -1.29559998134123        5.67931157665351
C            0.47982394910401       -1.02972451037290        1.40948360001351
C           -0.72762566059413       -1.55334395297986        0.78066668118863
N           -1.72054942903386       -1.77349673341894        1.62608953489325
C           -1.78464051461033       -1.40731678561427        2.91401171395022
C           -2.90681107713843       -1.30717675536956        3.69337202177352
C           -2.88451068911185       -1.12192825438748        5.03900619362319
C           -1.73660115231592       -1.08980213106517        5.84903530935453
C            1.56298420416588       -0.43844788065541        0.54204344872263
C            1.26890324601046       -0.35568146134550       -0.84291409225091
C            0.11138446293745       -0.81128600590498       -1.38937344802634
C           -0.79282505229740       -1.51454643459916       -0.66926352132352
O            2.81074854750785       -0.29583902785899        1.05116804943765
O            2.02121018422544       -3.23223746598919        1.36970138917525
C            5.18454089017900       -3.60895905217606        5.19334061947157
C           -0.18501645744295       -0.48449411975522       -2.90824058793044
H            3.03158524414386       -2.25543992827276        6.49563991026125
H            4.58919111463908       -3.51919510673005        2.59342788176799
H           -1.71793024756059       -1.05932192989085        6.99730116053864
H           -3.81805801079934       -1.52437198084603        3.18471044504776
H           -1.69485611199409       -1.69805831312764       -1.03095030444888
H            1.90497329353166        0.14543268038845       -1.54156521961725
O            5.98358313445473       -3.82620105383106        4.30901973000192
O            5.17286796965316       -3.95571666374354        6.45638226676547
C            6.36360724091627       -4.72418125667964        6.74174403275734
C           -4.26649927785234       -1.25349721964144        5.66707615860091
O           -5.14693006736119       -0.69654851823880        5.04277004901328
O           -4.33317350610094       -1.88938289473420        6.85793300264500
C           -5.55545713956881       -2.46320822842525        7.05499970327468
O            0.69826575972099       -0.65032185174673       -3.77200696296885
O           -1.57259682890069       -0.25737929617591       -3.08730252180496
C           -1.76468387404515       -0.13743248177985       -4.53532248942598
C            3.79185237464612       -0.91663552346699        0.26323399032228
C            2.82894463950170       -4.11150006020812        0.63352644243894
H           -2.69102042809653        0.45754542080422       -4.78541803270520
H           -1.98670583056343       -1.28819334042802       -4.95166496047422
H           -0.83352304300767        0.19763852537790       -5.19863987696812
H           -6.11720239128169       -2.02142466484206        6.22069311449270
H           -5.87326933413446       -2.07284475521105        8.02693186874429
H           -5.22025334993403       -3.61586936395865        7.34901362782573
H            3.37893315308430       -4.63577300102749        1.52327573158147
H            3.61440015383354       -3.53651017883702        0.08029515959584
H            2.36047761836029       -4.81418160974033        0.03643526745023
H            3.78496990077821       -1.95831732987206        0.42859032726062
H            4.77989520993492       -0.52095849541486        0.43229726337745
H            3.56130217444685       -0.92192058727648       -0.85600576504043
H            6.32460290115350       -5.30256796535839        7.64798537689872
H            7.12834520024888       -3.96623499824679        6.82388799967251
H            6.72459267162675       -5.15148461337111        5.83453834100919
116
 energy: -22.671854694418 gnorm: 0.546857616466 xtb: 6.6.1 (8d0f1dd)
C           -5.92694249517255        2.92367151122644        5.04381743758720
C           -4.82894886667743        2.83481497112480        4.20182634051879
C           -3.74399847483454        1.97947658322130        4.54102411455809
C           -3.71145505261986        1.78674319108789        6.01750949613186
C           -4.81484383734495        1.96895096508994        6.86681057370016
C           -5.97016230436551        2.43161142489816        6.35099986213682
C           -2.65552449744749        1.68155313490773        3.74752693851208
C           -1.48830570790458        1.47015399701950        4.49938030747910
C           -1.48791119643915        1.35745379179623        5.86673799285341
N           -2.58009213022764        1.58653010772492        6.58803447889009
C           -2.47800438316195        1.87311753661451        2.47364117541811
C           -1.15883733291767        2.07876791461675        1.93935016469566
N           -0.06898678320420        1.85529810124525        2.56507417042161
C           -0.25110338572062        1.31680987007845        3.82535031322127
C            0.95213811105150        0.95137178671489        4.48142775678868
C            0.86690886023036        0.81676439069929        5.91742560434888
C           -0.35813367427740        0.98701867065694        6.52202284160176
C           -3.64138258147213        2.05637318999373        1.61121673648789
C           -3.42504929080528        2.36576108297525        0.26173517427882
C           -2.18747701316041        2.69451731313192       -0.19026350226786
C           -1.03499241221245        2.44440723795748        0.56604810926868
O           -4.85476897414478        1.35170661878947        1.94486265023110
O           -5.02162587572915        3.61774887589499        2.99710281621978
C           -7.11408905120707        2.48938227929040        7.28953023193082
C           -2.16864682336794        3.20273080665450       -1.52485213449478
H           -4.42085397100739        1.92553291868842        7.81875175628023
H           -6.69863820709482        3.52979209923608        4.65434452372211
H           -0.48952858201818        0.64657438318241        7.58641362145846
H            1.87706567985967        0.96059321451625        4.02553766790387
H           -0.06220879731931        2.71087731819698        0.35884643358226
H           -4.24888006822219        2.32660499544413       -0.52842418570144
O           -6.88413483631059        2.00625543209245        8.39005548885982