      -----------------------------------------------------------      
     |                   =====================                   |     
     |                           x T B                           |     
     |                   =====================                   |     
     |                         S. Grimme                         |     
     |          Mulliken Center for Theoretical Chemistry        |     
     |                    University of Bonn                     |     
      -----------------------------------------------------------      

   * xtb version 6.6.1 (8d0f1dd) compiled by 'runner@Mac-1690902418499.local' on 2023-08-01

   xtb is free software: you can redistribute it and/or modify it under
   the terms of the GNU Lesser General Public License as published by
   the Free Software Foundation, either version 3 of the License, or
   (at your option) any later version.
   
   xtb is distributed in the hope that it will be useful,
   but WITHOUT ANY WARRANTY; without even the implied warranty of
   MERCHANTABILITY or FITNESS FOR A PARTICULAR PURPOSE.  See the
   GNU Lesser General Public License for more details.
   
   Cite this work as:
   * C. Bannwarth, E. Caldeweyher, S. Ehlert, A. Hansen, P. Pracht,
     J. Seibert, S. Spicher, S. Grimme, WIREs Comput. Mol. Sci., 2020, 11,
     e01493. DOI: 10.1002/wcms.1493
   
   for GFN2-xTB:
   * C. Bannwarth, S. Ehlert and S. Grimme., J. Chem. Theory Comput., 2019,
     15, 1652-1671. DOI: 10.1021/acs.jctc.8b01176
   for GFN1-xTB:
   * S. Grimme, C. Bannwarth, P. Shushkov, J. Chem. Theory Comput., 2017,
     13, 1989-2009. DOI: 10.1021/acs.jctc.7b00118
   for GFN0-xTB:
   * P. Pracht, E. Caldeweyher, S. Ehlert, S. Grimme, ChemRxiv, 2019, preprint.
     DOI: 10.26434/chemrxiv.8326202.v1
   for GFN-FF:
   * S. Spicher and S. Grimme, Angew. Chem. Int. Ed., 2020, 59, 15665-15673.
     DOI: 10.1002/anie.202004239
   
   for ALPB and GBSA implicit solvation:
   * S. Ehlert, M. Stahn, S. Spicher, S. Grimme, J. Chem. Theory Comput.,
     2021, 17, 4250-4261. DOI: 10.1021/acs.jctc.1c00471
   
   for DFT-D4:
   * E. Caldeweyher, C. Bannwarth and S. Grimme, J. Chem. Phys., 2017,
     147, 034112. DOI: 10.1063/1.4993215
   * E. Caldeweyher, S. Ehlert, A. Hansen, H. Neugebauer, S. Spicher,
     C. Bannwarth and S. Grimme, J. Chem. Phys., 2019, 150, 154122.
     DOI: 10.1063/1.5090222
   * E. Caldeweyher, J.-M. Mewes, S. Ehlert and S. Grimme, Phys. Chem. Chem. Phys.
     2020, 22, 8499-8512. DOI: 10.1039/D0CP00502A
   
   for sTDA-xTB:
   * S. Grimme and C. Bannwarth, J. Chem. Phys., 2016, 145, 054103.
     DOI: 10.1063/1.4959605
   
   in the mass-spec context:
   * V. Asgeirsson, C. Bauer and S. Grimme, Chem. Sci., 2017, 8, 4879.
     DOI: 10.1039/c7sc00601b
   * J. Koopman and S. Grimme, ACS Omega 2019, 4, 12, 15120-15133.
     DOI: 10.1021/acsomega.9b02011
   
   for metadynamics refer to:
   * S. Grimme, J. Chem. Theory Comput., 2019, 155, 2847-2862
     DOI: 10.1021/acs.jctc.9b00143
   
   for SPH calculations refer to:
   * S. Spicher and S. Grimme, J. Chem. Theory Comput., 2021, 17, 1701-1714
     DOI: 10.1021/acs.jctc.0c01306
   
   with help from (in alphabetical order)
   P. Atkinson, C. Bannwarth, F. Bohle, G. Brandenburg, E. Caldeweyher
   M. Checinski, S. Dohm, S. Ehlert, S. Ehrlich, I. Gerasimov, C. Hölzer
   A. Katbashev, J. Koopman, C. Lavigne, S. Lehtola, F. März, M. Müller,
   F. Musil, H. Neugebauer, J. Pisarek, C. Plett, P. Pracht, F. Pultar,
   J. Seibert, P. Shushkov, S. Spicher, M. Stahn, M. Steiner, T. Strunk,
   J. Stückrath, T. Rose, and J. Unsleber
   
 * started run on 2024/11/12 at 11:19:18.124     

           -------------------------------------------------
          |                Calculation Setup                |
           -------------------------------------------------

          program call               : xtb Katherine2.mol --opt --gfn2 --chrg -3 --uhf 0 --tight
          coordinate file            : Katherine2.mol
          omp threads                :                     8

   ID    Z sym.   atoms
    1    6 C      1-21, 25-44, 47, 52-75
    2    8 O      22, 23, 45, 46, 48-51
    3    5 B      24
    4    1 H      76-141
########################################################################
[WARNING] Please study the warnings concerning your input carefully
-2- prog_main: Charge in sdf/mol input was overwritten
-1- prog_main_parseArguments: Unknown option '--tight' provided
########################################################################

           -------------------------------------------------
          |                 G F N 2 - x T B                 |
           -------------------------------------------------

        Reference                      10.1021/acs.jctc.8b01176
      * Hamiltonian:
        H0-scaling (s, p, d)           1.850000    2.230000    2.230000
        zeta-weighting                 0.500000
      * Dispersion:
        s8                             2.700000
        a1                             0.520000
        a2                             5.000000
        s9                             5.000000
      * Repulsion:
        kExp                           1.500000    1.000000
        rExp                           1.000000
      * Coulomb:
        alpha                          2.000000
        third order                    shell-resolved
        anisotropic                    true
        a3                             3.000000
        a5                             4.000000
        cn-shift                       1.200000
        cn-exp                         4.000000
        max-rad                        5.000000

q/qsh data taken from xtbrestart
CAMM data taken from xtbrestart

          ...................................................
          :                      SETUP                      :
          :.................................................:
          :  # basis functions                 366          :
          :  # atomic orbitals                 366          :
          :  # shells                          216          :
          :  # electrons                       384          :
          :  max. iterations                   250          :
          :  Hamiltonian                  GFN2-xTB          :
          :  restarted?                       true          :
          :  GBSA solvation                  false          :
          :  PC potential                    false          :
          :  electronic temp.          300.0000000     K    :
          :  accuracy                    1.0000000          :
          :  -> integral cutoff          0.2500000E+02      :
          :  -> integral neglect         0.1000000E-07      :
          :  -> SCF convergence          0.1000000E-05 Eh   :
          :  -> wf. convergence          0.1000000E-03 e    :
          :  Broyden damping             0.4000000          :
          ...................................................

 iter      E             dE          RMSdq      gap      omega  full diag
   1   -212.5390897 -0.212539E+03  0.109E+00    1.20       0.0  T
   2   -212.5138066  0.252831E-01  0.954E-01    0.50       1.0  T
   3   -212.5874811 -0.736746E-01  0.521E-01    0.97       1.0  T
   4   -212.6011859 -0.137048E-01  0.170E-01    0.80       1.0  T
   5   -212.6034610 -0.227507E-02  0.835E-02    0.79       1.0  T
   6   -212.6040086 -0.547655E-03  0.437E-02    0.80       1.0  T
   7   -212.6044051 -0.396422E-03  0.143E-02    0.80       1.0  T
   8   -212.6044399 -0.347837E-04  0.522E-03    0.80       1.6  T
   9   -212.6044408 -0.964967E-06  0.285E-03    0.80       3.0  T
  10   -212.6044414 -0.585812E-06  0.933E-04    0.80       9.0  T
  11   -212.6044415 -0.504557E-07  0.462E-04    0.80      18.2  T

   *** convergence criteria satisfied after 11 iterations ***

         #    Occupation            Energy/Eh            Energy/eV
      -------------------------------------------------------------
         1        2.0000           -0.4404186             -11.9844
       ...           ...                  ...                  ...
       186        2.0000           -0.0986639              -2.6848
       187        2.0000           -0.0939612              -2.5568
       188        2.0000           -0.0928218              -2.5258
       189        2.0000           -0.0903709              -2.4591
       190        2.0000           -0.0894022              -2.4328
       191        2.0000           -0.0504683              -1.3733
       192        2.0000           -0.0486738              -1.3245 (HOMO)
       193        0.0000           -0.0192117              -0.5228 (LUMO)
       194                         -0.0176194              -0.4794
       195                          0.0220455               0.5999
       196                          0.0243312               0.6621
       197                          0.0354642               0.9650
       ...                                ...                  ...
       366                          1.2863318              35.0029
      -------------------------------------------------------------
                  HL-Gap            0.0294621 Eh            0.8017 eV
             Fermi-level           -0.0339574 Eh           -0.9240 eV

 SCC (total)                   0 d,  0 h,  0 min,  1.340 sec
 SCC setup                      ...        0 min,  0.000 sec (  0.031%)
 Dispersion                     ...        0 min,  0.002 sec (  0.135%)
 classical contributions        ...        0 min,  0.000 sec (  0.026%)
 integral evaluation            ...        0 min,  0.008 sec (  0.569%)
 iterations                     ...        0 min,  1.260 sec ( 93.998%)
 molecular gradient             ...        0 min,  0.066 sec (  4.952%)
 printout                       ...        0 min,  0.004 sec (  0.289%)

         :::::::::::::::::::::::::::::::::::::::::::::::::::::
         ::                     SUMMARY                     ::
         :::::::::::::::::::::::::::::::::::::::::::::::::::::
         :: total energy            -209.321955759721 Eh    ::
         :: gradient norm              0.323495885425 Eh/a0 ::
         :: HOMO-LUMO gap              0.801704035416 eV    ::
         ::.................................................::
         :: SCC energy              -212.604441454184 Eh    ::
         :: -> isotropic ES            0.745225803522 Eh    ::
         :: -> anisotropic ES          0.045570555765 Eh    ::
         :: -> anisotropic XC          0.061904310410 Eh    ::
         :: -> dispersion             -0.212354699082 Eh    ::
         :: repulsion energy           3.279566034305 Eh    ::
         :: add. restraining           0.000000000000 Eh    ::
         :: total charge              -3.000042540414 e     ::
         :::::::::::::::::::::::::::::::::::::::::::::::::::::

      ----------------------------------------------------------- 
     |                   =====================                   |
     |                        A N C O P T                        |
     |                   =====================                   |
     |               Approximate Normal Coordinate               |
     |                Rational Function Optimizer                |
      ----------------------------------------------------------- 

          ...................................................
          :                      SETUP                      :
          :.................................................:
          :   optimization level            normal          :
          :   max. optcycles                   423          :
          :   ANC micro-cycles                  20          :
          :   degrees of freedom               417          :
          :.................................................:
          :   RF solver                   davidson          :
          :   write xtbopt.log                true          :
          :   linear?                        false          :
          :   energy convergence         0.5000000E-05 Eh   :
          :   grad. convergence          0.1000000E-02 Eh/α :
          :   maxmium RF displ.          1.0000000          :
          :   Hlow (freq-cutoff)         0.1000000E-01      :
          :   Hmax (freq-cutoff)         5.0000000          :
          :   S6 in model hess.         20.0000000          :
          ...................................................

generating ANC from model Hessian ...
Using Lindh-Hessian (1995)
 Shifting diagonal of input Hessian by    9.9710332750351446E-003
 Lowest  eigenvalues of input Hessian
    0.000000    0.000000    0.000000    0.000000    0.000000    0.000000
    0.010000    0.010040    0.010062    0.010233    0.010269    0.010384
    0.010389    0.010428    0.010703    0.010729    0.010781    0.010975
 Highest eigenvalues
    2.018941    2.023626    2.188521    2.189969    2.214259    2.215411


........................................................................
.............................. CYCLE    1 ..............................
........................................................................

 iter      E             dE          RMSdq      gap      omega  full diag
   1   -212.6044415 -0.212604E+03  0.263E-04    0.80       0.0  T
   2   -212.6044415  0.665059E-08  0.272E-04    0.80      31.0  T
   3   -212.6044415 -0.159253E-07  0.100E-04    0.80      84.1  T
     SCC iter.                  ...        0 min,  0.221 sec
     gradient                   ...        0 min,  0.064 sec
 * total energy  :  -209.3219558 Eh     change       -0.3178417E-07 Eh
   gradient norm :     0.3234961 Eh/α   predicted     0.0000000E+00 (-100.00%)
   displ. norm   :     0.6408456 α      lambda       -0.1616260E+00
   maximum displ.:     0.1495062 α      in ANC's #154, #84, #146, ...

........................................................................
.............................. CYCLE    2 ..............................
........................................................................

 iter      E             dE          RMSdq      gap      omega  full diag
   1   -212.6290551 -0.212629E+03  0.267E-01    0.82       0.0  T
   2   -212.6296498 -0.594734E-03  0.242E-01    1.02       1.0  T
   3   -212.6355471 -0.589728E-02  0.111E-01    0.91       1.0  T
   4   -212.6353472  0.199957E-03  0.587E-02    0.94       1.0  T
   5   -212.6358008 -0.453661E-03  0.153E-02    0.93       1.0  T
   6   -212.6358242 -0.233707E-04  0.653E-03    0.93       1.3  T
   7   -212.6358254 -0.119936E-05  0.381E-03    0.93       2.2  T
   8   -212.6358283 -0.294667E-05  0.136E-03    0.93       6.2  T
   9   -212.6358286 -0.224407E-06  0.614E-04    0.93      13.7  T
  10   -212.6358286 -0.233170E-07  0.235E-04    0.93      35.9  T
     SCC iter.                  ...        0 min,  0.685 sec
     gradient                   ...        0 min,  0.064 sec
 * total energy  :  -209.4439258 Eh     change       -0.1219700E+00 Eh
   gradient norm :     0.1579515 Eh/α   predicted    -0.1140456E+00 (  -6.50%)
   displ. norm   :     0.6229853 α      lambda       -0.7669064E-01
   maximum displ.:     0.1875472 α      in ANC's #146, #84, #154, ...

........................................................................
.............................. CYCLE    3 ..............................
........................................................................

 iter      E             dE          RMSdq      gap      omega  full diag
   1   -212.6324696 -0.212632E+03  0.193E-01    0.98       0.0  T
   2   -212.6333072 -0.837569E-03  0.166E-01    1.09       1.0  T
   3   -212.6353743 -0.206709E-02  0.806E-02    1.03       1.0  T
   4   -212.6352328  0.141532E-03  0.427E-02    1.05       1.0  T
   5   -212.6355153 -0.282534E-03  0.887E-03    1.04       1.0  T
   6   -212.6355213 -0.599261E-05  0.373E-03    1.04       2.3  T
   7   -212.6355217 -0.387715E-06  0.193E-03    1.04       4.4  T
   8   -212.6355223 -0.609609E-06  0.875E-04    1.04       9.6  T
   9   -212.6355224 -0.114992E-06  0.370E-04    1.04      22.7  T
     SCC iter.                  ...        0 min,  0.695 sec
     gradient                   ...        0 min,  0.070 sec
 * total energy  :  -209.4986562 Eh     change       -0.5473035E-01 Eh
   gradient norm :     0.0562094 Eh/α   predicted    -0.5322755E-01 (  -2.75%)
   displ. norm   :     0.6879272 α      lambda       -0.3357270E-01
   maximum displ.:     0.2392926 α      in ANC's #84, #18, #70, ...

........................................................................
.............................. CYCLE    4 ..............................
........................................................................

 iter      E             dE          RMSdq      gap      omega  full diag
   1   -212.6462919 -0.212646E+03  0.143E-01    1.07       0.0  T
   2   -212.6464178 -0.125869E-03  0.891E-02    1.09       1.0  T
   3   -212.6460051  0.412651E-03  0.519E-02    1.07       1.0  T
   4   -212.6465160 -0.510810E-03  0.142E-02    1.09       1.0  T
   5   -212.6465454 -0.294956E-04  0.508E-03    1.08       1.7  T
   6   -212.6465476 -0.211684E-05  0.182E-03    1.09       4.6  T
   7   -212.6465478 -0.197186E-06  0.865E-04    1.08       9.7  T
   8   -212.6465479 -0.109717E-06  0.390E-04    1.08      21.6  T
     SCC iter.                  ...        0 min,  0.509 sec
     gradient                   ...        0 min,  0.062 sec
 * total energy  :  -209.5250586 Eh     change       -0.2640245E-01 Eh
   gradient norm :     0.0356483 Eh/α   predicted    -0.2473041E-01 (  -6.33%)
   displ. norm   :     0.7233273 α      lambda       -0.2059699E-01
   maximum displ.:     0.2581449 α      in ANC's #18, #84, #70, ...

........................................................................
.............................. CYCLE    5 ..............................
........................................................................

 iter      E             dE          RMSdq      gap      omega  full diag
   1   -212.6548169 -0.212655E+03  0.127E-01    1.09       0.0  T
   2   -212.6548665 -0.495147E-04  0.753E-02    1.09       1.0  T
   3   -212.6547510  0.115476E-03  0.248E-02    1.09       1.0  T
   4   -212.6548746 -0.123619E-03  0.822E-03    1.10       1.0  T
   5   -212.6548848 -0.102120E-04  0.323E-03    1.10       2.6  T
   6   -212.6548858 -0.990853E-06  0.120E-03    1.10       7.0  T
   7   -212.6548859 -0.843835E-07  0.569E-04    1.10      14.8  T
   8   -212.6548859 -0.428676E-07  0.281E-04    1.10      30.0  T
     SCC iter.                  ...        0 min,  0.547 sec
     gradient                   ...        0 min,  0.071 sec
 * total energy  :  -209.5418279 Eh     change       -0.1676932E-01 Eh
   gradient norm :     0.0266525 Eh/α   predicted    -0.1568669E-01 (  -6.46%)
   displ. norm   :     0.7436778 α      lambda       -0.1380474E-01
   maximum displ.:     0.3082766 α      in ANC's #18, #29, #70, ...

........................................................................
.............................. CYCLE    6 ..............................
........................................................................

 iter      E             dE          RMSdq      gap      omega  full diag
   1   -212.6609036 -0.212661E+03  0.115E-01    1.09       0.0  T
   2   -212.6609335 -0.299370E-04  0.683E-02    1.09       1.0  T
   3   -212.6608186  0.114954E-03  0.255E-02    1.09       1.0  T
   4   -212.6609408 -0.122260E-03  0.669E-03    1.09       1.3  T
   5   -212.6609482 -0.738566E-05  0.299E-03    1.09       2.8  T
   6   -212.6609495 -0.131539E-05  0.988E-04    1.09       8.5  T
   7   -212.6609496 -0.730263E-07  0.471E-04    1.09      17.9  T
   8   -212.6609496 -0.221326E-07  0.224E-04    1.09      37.5  T
     SCC iter.                  ...        0 min,  0.714 sec
     gradient                   ...        0 min,  0.060 sec
 * total energy  :  -209.5531968 Eh     change       -0.1136888E-01 Eh
   gradient norm :     0.0177801 Eh/α   predicted    -0.1071977E-01 (  -5.71%)
   displ. norm   :     0.7517447 α      lambda       -0.9511602E-02
   maximum displ.:     0.3419747 α      in ANC's #18, #29, #70, ...

........................................................................
.............................. CYCLE    7 ..............................
........................................................................

 iter      E             dE          RMSdq      gap      omega  full diag
   1   -212.6668177 -0.212667E+03  0.103E-01    1.08       0.0  T
   2   -212.6668366 -0.189591E-04  0.608E-02    1.09       1.0  T
   3   -212.6666689  0.167708E-03  0.300E-02    1.09       1.0  T
   4   -212.6668503 -0.181351E-03  0.551E-03    1.09       1.5  T
   5   -212.6668552 -0.492291E-05  0.260E-03    1.09       3.2  T
   6   -212.6668564 -0.115727E-05  0.827E-04    1.09      10.2  T
   7   -212.6668564 -0.385212E-07  0.467E-04    1.09      18.0  T
   8   -212.6668564 -0.232327E-07  0.200E-04    1.09      42.0  T
     SCC iter.                  ...        0 min,  0.612 sec
     gradient                   ...        0 min,  0.065 sec
 * total energy  :  -209.5611122 Eh     change       -0.7915340E-02 Eh
   gradient norm :     0.0132711 Eh/α   predicted    -0.7443400E-02 (  -5.96%)
   displ. norm   :     0.7563196 α      lambda       -0.6844229E-02
   maximum displ.:     0.3618012 α      in ANC's #18, #29, #28, ...

........................................................................
.............................. CYCLE    8 ..............................
........................................................................

 iter      E             dE          RMSdq      gap      omega  full diag
   1   -212.6719573 -0.212672E+03  0.902E-02    1.08       0.0  T
   2   -212.6719695 -0.121432E-04  0.539E-02    1.08       1.0  T
   3   -212.6717415  0.227998E-03  0.338E-02    1.08       1.0  T
   4   -212.6719930 -0.251528E-03  0.513E-03    1.08       1.6  T
   5   -212.6719977 -0.471218E-05  0.223E-03    1.08       3.8  T
   6   -212.6719985 -0.808200E-06  0.700E-04    1.08      12.0  T
   7   -212.6719986 -0.289046E-07  0.354E-04    1.08      23.8  T
     SCC iter.                  ...        0 min,  0.590 sec
     gradient                   ...        0 min,  0.067 sec
 * total energy  :  -209.5668398 Eh     change       -0.5727639E-02 Eh
   gradient norm :     0.0117598 Eh/α   predicted    -0.5379654E-02 (  -6.08%)
   displ. norm   :     0.7516920 α      lambda       -0.5020672E-02
   maximum displ.:     0.3634000 α      in ANC's #18, #29, #28, ...

........................................................................
.............................. CYCLE    9 ..............................
........................................................................

 iter      E             dE          RMSdq      gap      omega  full diag
   1   -212.6770625 -0.212677E+03  0.840E-02    1.08       0.0  T
   2   -212.6770719 -0.940928E-05  0.499E-02    1.08       1.0  T
   3   -212.6768964  0.175519E-03  0.296E-02    1.08       1.0  T
   4   -212.6770880 -0.191542E-03  0.438E-03    1.08       1.9  T
   5   -212.6770914 -0.340412E-05  0.190E-03    1.08       4.4  T
   6   -212.6770919 -0.580622E-06  0.619E-04    1.08      13.6  T
   7   -212.6770920 -0.205887E-07  0.340E-04    1.08      24.8  T
     SCC iter.                  ...        0 min,  0.402 sec
     gradient                   ...        0 min,  0.063 sec
 * total energy  :  -209.5709993 Eh     change       -0.4159449E-02 Eh
   gradient norm :     0.0102813 Eh/α   predicted    -0.3928797E-02 (  -5.55%)
   displ. norm   :     0.7286687 α      lambda       -0.3566445E-02
   maximum displ.:     0.3428461 α      in ANC's #18, #29, #4, ...

........................................................................
.............................. CYCLE   10 ..............................
........................................................................

 iter      E             dE          RMSdq      gap      omega  full diag
   1   -212.6799474 -0.212680E+03  0.758E-02    1.08       0.0  T
   2   -212.6799528 -0.546996E-05  0.452E-02    1.08       1.0  T
   3   -212.6797615  0.191329E-03  0.306E-02    1.08       1.0  T
   4   -212.6799761 -0.214559E-03  0.427E-03    1.08       2.0  T
   5   -212.6799797 -0.361892E-05  0.145E-03    1.08       5.8  T
   6   -212.6799799 -0.252910E-06  0.648E-04    1.08      13.0  T
   7   -212.6799800 -0.436436E-07  0.313E-04    1.08      26.9  T
     SCC iter.                  ...        0 min,  0.348 sec
     gradient                   ...        0 min,  0.059 sec
 * total energy  :  -209.5738771 Eh     change       -0.2877874E-02 Eh
   gradient norm :     0.0085920 Eh/α   predicted    -0.2730039E-02 (  -5.14%)
   displ. norm   :     0.6875305 α      lambda       -0.2414065E-02
   maximum displ.:     0.3016177 α      in ANC's #18, #29, #4, ...

........................................................................
.............................. CYCLE   11 ..............................
........................................................................

 iter      E             dE          RMSdq      gap      omega  full diag
   1   -212.6822774 -0.212682E+03  0.722E-02    1.08       0.0  T
   2   -212.6822819 -0.450417E-05  0.425E-02    1.08       1.0  T
   3   -212.6822073  0.746389E-04  0.195E-02    1.08       1.0  T
   4   -212.6822872 -0.799341E-04  0.332E-03    1.08       2.5  T
   5   -212.6822896 -0.236446E-05  0.110E-03    1.08       7.7  T
   6   -212.6822897 -0.142426E-06  0.436E-04    1.08      19.3  T
   7   -212.6822897 -0.953540E-08  0.219E-04    1.08      38.4  T
     SCC iter.                  ...        0 min,  0.413 sec
     gradient                   ...        0 min,  0.059 sec
 * total energy  :  -209.5757807 Eh     change       -0.1903595E-02 Eh
   gradient norm :     0.0082305 Eh/α   predicted    -0.1777596E-02 (  -6.62%)
   displ. norm   :     0.6432360 α      lambda       -0.1679794E-02
   maximum displ.:     0.2670711 α      in ANC's #4, #18, #29, ...

........................................................................
.............................. CYCLE   12 ..............................
........................................................................

 iter      E             dE          RMSdq      gap      omega  full diag
   1   -212.6831861 -0.212683E+03  0.608E-02    1.08       0.0  T
   2   -212.6831890 -0.290995E-05  0.360E-02    1.08       1.0  T
   3   -212.6830881  0.100872E-03  0.227E-02    1.09       1.0  T
   4   -212.6832009 -0.112843E-03  0.310E-03    1.08       2.7  T
   5   -212.6832030 -0.208490E-05  0.875E-04    1.08       9.6  T
   6   -212.6832031 -0.767827E-07  0.470E-04    1.08      17.9  T
   7   -212.6832031 -0.154537E-07  0.226E-04    1.08      37.2  T
     SCC iter.                  ...        0 min,  0.426 sec
     gradient                   ...        0 min,  0.082 sec
 * total energy  :  -209.5771258 Eh     change       -0.1345044E-02 Eh
   gradient norm :     0.0087050 Eh/α   predicted    -0.1187409E-02 ( -11.72%)
   displ. norm   :     0.6256955 α      lambda       -0.1362644E-02
   maximum displ.:     0.3059686 α      in ANC's #4, #18, #29, ...

........................................................................
.............................. CYCLE   13 ..............................
........................................................................

 iter      E             dE          RMSdq      gap      omega  full diag
   1   -212.6841142 -0.212684E+03  0.555E-02    1.08       0.0  T
   2   -212.6841172 -0.302002E-05  0.325E-02    1.08       1.0  T
   3   -212.6840987  0.184890E-04  0.109E-02    1.08       1.0  T
   4   -212.6841189 -0.202185E-04  0.180E-03    1.08       4.7  T
   5   -212.6841195 -0.609402E-06  0.844E-04    1.08      10.0  T
   6   -212.6841196 -0.108653E-06  0.352E-04    1.08      24.0  T
     SCC iter.                  ...        0 min,  0.353 sec
     gradient                   ...        0 min,  0.065 sec
 * total energy  :  -209.5782706 Eh     change       -0.1144805E-02 Eh
   gradient norm :     0.0077648 Eh/α   predicted    -0.9480564E-03 ( -17.19%)
   displ. norm   :     0.6443394 α      lambda       -0.1316573E-02
   maximum displ.:     0.3526261 α      in ANC's #4, #7, #11, ...

........................................................................
.............................. CYCLE   14 ..............................
........................................................................

 iter      E             dE          RMSdq      gap      omega  full diag
   1   -212.6845415 -0.212685E+03  0.507E-02    1.09       0.0  T
   2   -212.6845461 -0.458586E-05  0.297E-02    1.09       1.0  T
   3   -212.6845310  0.151072E-04  0.961E-03    1.09       1.0  T
   4   -212.6845476 -0.165556E-04  0.197E-03    1.09       4.3  T
   5   -212.6845481 -0.544266E-06  0.108E-03    1.09       7.8  T
   6   -212.6845483 -0.216431E-06  0.425E-04    1.09      19.8  T
   7   -212.6845483 -0.580485E-08  0.257E-04    1.09      32.7  T
     SCC iter.                  ...        0 min,  0.419 sec
     gradient                   ...        0 min,  0.064 sec
 * total energy  :  -209.5793970 Eh     change       -0.1126453E-02 Eh
   gradient norm :     0.0070288 Eh/α   predicted    -0.9315899E-03 ( -17.30%)
   displ. norm   :     0.6625117 α      lambda       -0.1233112E-02
   maximum displ.:     0.3872232 α      in ANC's #4, #7, #11, ...

........................................................................
.............................. CYCLE   15 ..............................
........................................................................

 iter      E             dE          RMSdq      gap      omega  full diag
   1   -212.6839657 -0.212684E+03  0.471E-02    1.09       0.0  T
   2   -212.6839714 -0.571563E-05  0.278E-02    1.09       1.0  T
   3   -212.6839468  0.245627E-04  0.107E-02    1.09       1.0  T
   4   -212.6839725 -0.257086E-04  0.291E-03    1.09       2.9  T
   5   -212.6839742 -0.166341E-05  0.122E-03    1.09       6.9  T
   6   -212.6839744 -0.235557E-06  0.467E-04    1.09      18.0  T
   7   -212.6839744 -0.610061E-08  0.275E-04    1.09      30.6  T
     SCC iter.                  ...        0 min,  0.400 sec
     gradient                   ...        0 min,  0.064 sec
 * total energy  :  -209.5804276 Eh     change       -0.1030599E-02 Eh
   gradient norm :     0.0065738 Eh/α   predicted    -0.8871776E-03 ( -13.92%)
   displ. norm   :     0.6306958 α      lambda       -0.9696802E-03
   maximum displ.:     0.3844568 α      in ANC's #4, #7, #11, ...

........................................................................
.............................. CYCLE   16 ..............................
........................................................................

 iter      E             dE          RMSdq      gap      omega  full diag
   1   -212.6831528 -0.212683E+03  0.403E-02    1.09       0.0  T
   2   -212.6831574 -0.462588E-05  0.239E-02    1.09       1.0  T
   3   -212.6831282  0.291587E-04  0.117E-02    1.09       1.0  T
   4   -212.6831596 -0.313899E-04  0.274E-03    1.09       3.1  T
   5   -212.6831610 -0.143018E-05  0.109E-03    1.09       7.7  T
   6   -212.6831612 -0.168790E-06  0.455E-04    1.09      18.5  T
   7   -212.6831612 -0.844975E-08  0.267E-04    1.09      31.5  T
     SCC iter.                  ...        0 min,  0.446 sec
     gradient                   ...        0 min,  0.062 sec
 * total energy  :  -209.5812207 Eh     change       -0.7931083E-03 Eh
   gradient norm :     0.0068031 Eh/α   predicted    -0.6777018E-03 ( -14.55%)
   displ. norm   :     0.5531903 α      lambda       -0.7157483E-03
   maximum displ.:     0.3487088 α      in ANC's #4, #7, #11, ...

........................................................................
.............................. CYCLE   17 ..............................
........................................................................

 iter      E             dE          RMSdq      gap      omega  full diag
   1   -212.6835075 -0.212684E+03  0.314E-02    1.09       0.0  T
   2   -212.6835102 -0.270428E-05  0.188E-02    1.09       1.0  T
   3   -212.6834851  0.250848E-04  0.113E-02    1.09       1.0  T
   4   -212.6835133 -0.281470E-04  0.231E-03    1.09       3.6  T
   5   -212.6835143 -0.101460E-05  0.790E-04    1.09      10.7  T
   6   -212.6835144 -0.739079E-07  0.374E-04    1.09      22.5  T
   7   -212.6835144 -0.792599E-08  0.208E-04    1.09      40.5  T
     SCC iter.                  ...        0 min,  0.394 sec
     gradient                   ...        0 min,  0.061 sec
 * total energy  :  -209.5818167 Eh     change       -0.5959400E-03 Eh
   gradient norm :     0.0062685 Eh/α   predicted    -0.4673932E-03 ( -21.57%)
   displ. norm   :     0.5098443 α      lambda       -0.6075382E-03
   maximum displ.:     0.3265904 α      in ANC's #4, #3, #11, ...

........................................................................
.............................. CYCLE   18 ..............................
........................................................................

 iter      E             dE          RMSdq      gap      omega  full diag
   1   -212.6854421 -0.212685E+03  0.274E-02    1.09       0.0  T
   2   -212.6854440 -0.187638E-05  0.164E-02    1.09       1.0  T
   3   -212.6854284  0.155473E-04  0.905E-03    1.09       1.0  T
   4   -212.6854458 -0.173983E-04  0.182E-03    1.09       4.6  T
   5   -212.6854465 -0.642157E-06  0.599E-04    1.09      14.1  T
   6   -212.6854465 -0.376691E-07  0.302E-04    1.09      27.9  T
     SCC iter.                  ...        0 min,  0.560 sec
     gradient                   ...        0 min,  0.065 sec
 * total energy  :  -209.5823307 Eh     change       -0.5140332E-03 Eh
   gradient norm :     0.0055595 Eh/α   predicted    -0.3827362E-03 ( -25.54%)
   displ. norm   :     0.5275069 α      lambda       -0.5739898E-03
   maximum displ.:     0.3372265 α      in ANC's #4, #3, #11, ...

........................................................................
.............................. CYCLE   19 ..............................
........................................................................

 iter      E             dE          RMSdq      gap      omega  full diag
   1   -212.6874971 -0.212687E+03  0.283E-02    1.09       0.0  T
   2   -212.6874987 -0.159287E-05  0.172E-02    1.09       1.0  T
   3   -212.6874779  0.208155E-04  0.102E-02    1.09       1.0  T
   4   -212.6875012 -0.233528E-04  0.189E-03    1.09       4.5  T
   5   -212.6875019 -0.716633E-06  0.563E-04    1.09      15.0  T
   6   -212.6875020 -0.308684E-07  0.286E-04    1.09      29.4  T
     SCC iter.                  ...        0 min,  0.309 sec
     gradient                   ...        0 min,  0.064 sec
 * total energy  :  -209.5828213 Eh     change       -0.4906170E-03 Eh
   gradient norm :     0.0057610 Eh/α   predicted    -0.3668608E-03 ( -25.22%)
   displ. norm   :     0.5656365 α      lambda       -0.5656998E-03
   maximum displ.:     0.3585921 α      in ANC's #4, #3, #11, ...

........................................................................
.............................. CYCLE   20 ..............................
........................................................................

 iter      E             dE          RMSdq      gap      omega  full diag
   1   -212.6888040 -0.212689E+03  0.319E-02    1.08       0.0  T
   2   -212.6888055 -0.145744E-05  0.191E-02    1.09       1.0  T
   3   -212.6887928  0.127264E-04  0.776E-03    1.08       1.1  T
   4   -212.6888068 -0.140539E-04  0.122E-03    1.09       6.9  T
   5   -212.6888070 -0.205348E-06  0.555E-04    1.09      15.2  T
   6   -212.6888070 -0.265117E-07  0.258E-04    1.09      32.7  T
     SCC iter.                  ...        0 min,  0.388 sec
     gradient                   ...        0 min,  0.062 sec
 * total energy  :  -209.5833091 Eh     change       -0.4877756E-03 Eh
   gradient norm :     0.0058442 Eh/α   predicted    -0.3733470E-03 ( -23.46%)
   displ. norm   :     0.5975850 α      lambda       -0.5517711E-03
   maximum displ.:     0.3772244 α      in ANC's #4, #3, #11, ...
 * RMSD in coord.:     0.8269692 α      energy gain  -0.2613533E+00 Eh

generating ANC from model Hessian ...
Using Lindh-Hessian (1995)
 Shifting diagonal of input Hessian by    1.0119309940965769E-002
 Lowest  eigenvalues of input Hessian
    0.010000    0.000000    0.000000    0.000000    0.000000    0.000000
    0.000000    0.010139    0.010150    0.010205    0.010229    0.010387
    0.010451    0.010491    0.010518    0.010602    0.010667    0.010696
 Highest eigenvalues
    2.077701    2.078343    2.181459    2.183486    2.199789    2.201457


........................................................................
.............................. CYCLE   21 ..............................
........................................................................

 iter      E             dE          RMSdq      gap      omega  full diag
   1   -212.6894745 -0.212689E+03  0.332E-02    1.08       0.0  T
   2   -212.6894760 -0.149574E-05  0.199E-02    1.09       1.0  T
   3   -212.6894642  0.118725E-04  0.736E-03    1.08       1.1  T
   4   -212.6894772 -0.130342E-04  0.121E-03    1.09       7.0  T
   5   -212.6894774 -0.174079E-06  0.649E-04    1.09      13.0  T
   6   -212.6894774 -0.512791E-07  0.274E-04    1.09      30.8  T
     SCC iter.                  ...        0 min,  0.444 sec
     gradient                   ...        0 min,  0.067 sec
 * total energy  :  -209.5837859 Eh     change       -0.4768081E-03 Eh
   gradient norm :     0.0051541 Eh/α   predicted     0.0000000E+00 (-100.00%)
   displ. norm   :     0.0997849 α      lambda       -0.1661591E-03
   maximum displ.:     0.0442128 α      in ANC's #4, #7, #10, ...

........................................................................
.............................. CYCLE   22 ..............................
........................................................................

 iter      E             dE          RMSdq      gap      omega  full diag
   1   -212.6896124 -0.212690E+03  0.106E-02    1.09       0.0  T
   2   -212.6896128 -0.332547E-06  0.625E-03    1.09       1.3  T
   3   -212.6896102  0.261269E-05  0.399E-03    1.09       2.1  T
   4   -212.6896131 -0.293671E-05  0.881E-04    1.09       9.6  T
   5   -212.6896133 -0.173341E-06  0.256E-04    1.09      32.9  T
   6   -212.6896133 -0.573081E-08  0.129E-04    1.09      65.1  T
     SCC iter.                  ...        0 min,  0.491 sec
     gradient                   ...        0 min,  0.115 sec
 * total energy  :  -209.5839298 Eh     change       -0.1438964E-03 Eh
   gradient norm :     0.0029819 Eh/α   predicted    -0.8486425E-04 ( -41.02%)
   displ. norm   :     0.3470367 α      lambda       -0.4236268E-03
   maximum displ.:     0.1584708 α      in ANC's #4, #7, #9, ...

........................................................................
.............................. CYCLE   23 ..............................
........................................................................

 iter      E             dE          RMSdq      gap      omega  full diag
   1   -212.6897613 -0.212690E+03  0.290E-02    1.09       0.0  T
   2   -212.6897633 -0.205454E-05  0.171E-02    1.09       1.0  T
   3   -212.6897418  0.215840E-04  0.109E-02    1.09       1.0  T
   4   -212.6897658 -0.240355E-04  0.237E-03    1.09       3.6  T
   5   -212.6897670 -0.123042E-05  0.677E-04    1.09      12.4  T
   6   -212.6897671 -0.318770E-07  0.346E-04    1.09      24.4  T
   7   -212.6897671 -0.329868E-08  0.170E-04    1.09      49.4  T
     SCC iter.                  ...        0 min,  0.804 sec
     gradient                   ...        0 min,  0.060 sec
 * total energy  :  -209.5842124 Eh     change       -0.2825825E-03 Eh
   gradient norm :     0.0050667 Eh/α   predicted    -0.2373363E-03 ( -16.01%)
   displ. norm   :     0.2681974 α      lambda       -0.1937062E-03
   maximum displ.:     0.1341252 α      in ANC's #4, #7, #9, ...

........................................................................
.............................. CYCLE   24 ..............................
........................................................................

 iter      E             dE          RMSdq      gap      omega  full diag
   1   -212.6894028 -0.212689E+03  0.181E-02    1.09       0.0  T
   2   -212.6894031 -0.286052E-06  0.108E-02    1.09       1.0  T
   3   -212.6893941  0.904049E-05  0.639E-03    1.09       1.3  T
   4   -212.6894039 -0.987681E-05  0.977E-04    1.09       8.6  T
   5   -212.6894041 -0.174270E-06  0.353E-04    1.09      23.9  T
   6   -212.6894041 -0.526305E-08  0.185E-04    1.09      45.5  T
     SCC iter.                  ...        0 min,  0.377 sec
     gradient                   ...        0 min,  0.059 sec
 * total energy  :  -209.5843686 Eh     change       -0.1562017E-03 Eh
   gradient norm :     0.0060497 Eh/α   predicted    -0.1038222E-03 ( -33.53%)
   displ. norm   :     0.3639351 α      lambda       -0.2719651E-03
   maximum displ.:     0.1858701 α      in ANC's #4, #7, #9, ...

........................................................................
.............................. CYCLE   25 ..............................
........................................................................

 iter      E             dE          RMSdq      gap      omega  full diag
   1   -212.6898704 -0.212690E+03  0.215E-02    1.09       0.0  T
   2   -212.6898710 -0.640004E-06  0.128E-02    1.09       1.0  T
   3   -212.6898622  0.875212E-05  0.623E-03    1.09       1.4  T
   4   -212.6898717 -0.948321E-05  0.917E-04    1.09       9.2  T
   5   -212.6898718 -0.115942E-06  0.457E-04    1.09      18.4  T
   6   -212.6898719 -0.237212E-07  0.238E-04    1.09      35.4  T
     SCC iter.                  ...        0 min,  0.390 sec
     gradient                   ...        0 min,  0.063 sec
 * total energy  :  -209.5845960 Eh     change       -0.2274452E-03 Eh
   gradient norm :     0.0046667 Eh/α   predicted    -0.1540019E-03 ( -32.29%)
   displ. norm   :     0.4717392 α      lambda       -0.3154449E-03
   maximum displ.:     0.2487096 α      in ANC's #4, #7, #9, ...

........................................................................
.............................. CYCLE   26 ..............................
........................................................................

 iter      E             dE          RMSdq      gap      omega  full diag
   1   -212.6904799 -0.212690E+03  0.270E-02    1.09       0.0  T
   2   -212.6904811 -0.127380E-05  0.161E-02    1.09       1.0  T
   3   -212.6904707  0.104463E-04  0.715E-03    1.09       1.2  T
   4   -212.6904822 -0.114558E-04  0.112E-03    1.09       7.5  T
   5   -212.6904823 -0.166651E-06  0.568E-04    1.09      14.8  T
   6   -212.6904824 -0.402179E-07  0.268E-04    1.09      31.4  T
     SCC iter.                  ...        0 min,  0.435 sec
     gradient                   ...        0 min,  0.065 sec
 * total energy  :  -209.5848516 Eh     change       -0.2556106E-03 Eh
   gradient norm :     0.0035496 Eh/α   predicted    -0.1928221E-03 ( -24.56%)
   displ. norm   :     0.5009395 α      lambda       -0.2616779E-03
   maximum displ.:     0.2699812 α      in ANC's #4, #7, #9, ...

........................................................................
.............................. CYCLE   27 ..............................
........................................................................

 iter      E             dE          RMSdq      gap      omega  full diag
   1   -212.6906864 -0.212691E+03  0.276E-02    1.09       0.0  T
   2   -212.6906872 -0.812251E-06  0.164E-02    1.09       1.0  T
   3   -212.6906685  0.187517E-04  0.903E-03    1.09       1.0  T
   4   -212.6906889 -0.204640E-04  0.129E-03    1.09       6.5  T
   5   -212.6906892 -0.278748E-06  0.542E-04    1.09      15.5  T
   6   -212.6906892 -0.315848E-07  0.248E-04    1.09      33.9  T
     SCC iter.                  ...        0 min,  0.413 sec
     gradient                   ...        0 min,  0.061 sec
 * total energy  :  -209.5850680 Eh     change       -0.2163246E-03 Eh
   gradient norm :     0.0036400 Eh/α   predicted    -0.1636719E-03 ( -24.34%)
   displ. norm   :     0.4787490 α      lambda       -0.2250827E-03
   maximum displ.:     0.2666678 α      in ANC's #4, #7, #9, ...

........................................................................
.............................. CYCLE   28 ..............................
........................................................................

 iter      E             dE          RMSdq      gap      omega  full diag
   1   -212.6915435 -0.212692E+03  0.271E-02    1.09       0.0  T
   2   -212.6915439 -0.355349E-06  0.162E-02    1.09       1.0  T
   3   -212.6915176  0.262714E-04  0.108E-02    1.09       1.0  T
   4   -212.6915469 -0.292339E-04  0.138E-03    1.09       6.1  T
   5   -212.6915472 -0.341453E-06  0.446E-04    1.09      18.9  T
   6   -212.6915472 -0.148652E-07  0.229E-04    1.09      36.7  T
     SCC iter.                  ...        0 min,  0.478 sec
     gradient                   ...        0 min,  0.065 sec
 * total energy  :  -209.5852578 Eh     change       -0.1898338E-03 Eh
   gradient norm :     0.0039969 Eh/α   predicted    -0.1383360E-03 ( -27.13%)
   displ. norm   :     0.4754602 α      lambda       -0.2113553E-03
   maximum displ.:     0.2707897 α      in ANC's #4, #7, #9, ...

........................................................................
.............................. CYCLE   29 ..............................
........................................................................

 iter      E             dE          RMSdq      gap      omega  full diag
   1   -212.6920014 -0.212692E+03  0.270E-02    1.09       0.0  T
   2   -212.6920016 -0.144807E-06  0.162E-02    1.09       1.0  T
   3   -212.6919740  0.275316E-04  0.108E-02    1.09       1.0  T
   4   -212.6920046 -0.305654E-04  0.125E-03    1.09       6.7  T
   5   -212.6920049 -0.278130E-06  0.419E-04    1.09      20.1  T
   6   -212.6920049 -0.122442E-07  0.221E-04    1.09      38.2  T
     SCC iter.                  ...        0 min,  0.421 sec
     gradient                   ...        0 min,  0.064 sec
 * total energy  :  -209.5854403 Eh     change       -0.1824841E-03 Eh
   gradient norm :     0.0034950 Eh/α   predicted    -0.1295680E-03 ( -29.00%)
   displ. norm   :     0.4788986 α      lambda       -0.2159076E-03
   maximum displ.:     0.2813862 α      in ANC's #4, #7, #9, ...

........................................................................
.............................. CYCLE   30 ..............................
........................................................................

 iter      E             dE          RMSdq      gap      omega  full diag
   1   -212.6928419 -0.212693E+03  0.295E-02    1.09       0.0  T
   2   -212.6928423 -0.332145E-06  0.176E-02    1.09       1.0  T
   3   -212.6928126  0.296880E-04  0.111E-02    1.09       1.0  T
   4   -212.6928453 -0.326809E-04  0.133E-03    1.09       6.3  T
   5   -212.6928456 -0.317332E-06  0.465E-04    1.09      18.1  T
   6   -212.6928456 -0.185050E-07  0.236E-04    1.09      35.7  T
     SCC iter.                  ...        0 min,  0.339 sec
     gradient                   ...        0 min,  0.064 sec
 * total energy  :  -209.5856245 Eh     change       -0.1842111E-03 Eh
   gradient norm :     0.0036135 Eh/α   predicted    -0.1327127E-03 ( -27.96%)
   displ. norm   :     0.4847467 α      lambda       -0.2047171E-03
   maximum displ.:     0.2922078 α      in ANC's #4, #7, #9, ...

........................................................................
.............................. CYCLE   31 ..............................
........................................................................

 iter      E             dE          RMSdq      gap      omega  full diag
   1   -212.6923189 -0.212692E+03  0.313E-02    1.09       0.0  T
   2   -212.6923196 -0.777069E-06  0.185E-02    1.09       1.0  T
   3   -212.6922961  0.235124E-04  0.982E-03    1.09       1.0  T
   4   -212.6923216 -0.255174E-04  0.137E-03    1.09       6.2  T
   5   -212.6923220 -0.342720E-06  0.544E-04    1.09      15.5  T
   6   -212.6923220 -0.355375E-07  0.245E-04    1.09      34.4  T
     SCC iter.                  ...        0 min,  0.328 sec
     gradient                   ...        0 min,  0.062 sec
 * total energy  :  -209.5857940 Eh     change       -0.1695150E-03 Eh
   gradient norm :     0.0024234 Eh/α   predicted    -0.1264138E-03 ( -25.43%)
   displ. norm   :     0.4280731 α      lambda       -0.1568773E-03
   maximum displ.:     0.2659769 α      in ANC's #4, #7, #9, ...

........................................................................
.............................. CYCLE   32 ..............................
........................................................................

 iter      E             dE          RMSdq      gap      omega  full diag
   1   -212.6926695 -0.212693E+03  0.304E-02    1.09       0.0  T
   2   -212.6926703 -0.788340E-06  0.179E-02    1.09       1.0  T
   3   -212.6926570  0.132871E-04  0.746E-03    1.09       1.1  T
   4   -212.6926713 -0.142873E-04  0.121E-03    1.09       6.9  T
   5   -212.6926715 -0.264184E-06  0.523E-04    1.09      16.1  T
   6   -212.6926716 -0.375271E-07  0.219E-04    1.09      38.5  T
     SCC iter.                  ...        0 min,  0.394 sec
     gradient                   ...        0 min,  0.069 sec
 * total energy  :  -209.5859181 Eh     change       -0.1241365E-03 Eh
   gradient norm :     0.0019305 Eh/α   predicted    -0.9281260E-04 ( -25.23%)
   displ. norm   :     0.4854776 α      lambda       -0.9223024E-04
   maximum displ.:     0.3133224 α      in ANC's #4, #7, #9, ...

........................................................................
.............................. CYCLE   33 ..............................
........................................................................

 iter      E             dE          RMSdq      gap      omega  full diag
   1   -212.6914871 -0.212691E+03  0.344E-02    1.09       0.0  T
   2   -212.6914881 -0.103972E-05  0.202E-02    1.09       1.0  T
   3   -212.6914790  0.913783E-05  0.653E-03    1.09       1.3  T
   4   -212.6914888 -0.985332E-05  0.118E-03    1.09       7.1  T
   5   -212.6914891 -0.245351E-06  0.565E-04    1.09      14.9  T
   6   -212.6914891 -0.487308E-07  0.236E-04    1.09      35.7  T
     SCC iter.                  ...        0 min,  0.426 sec
     gradient                   ...        0 min,  0.064 sec
 * total energy  :  -209.5860112 Eh     change       -0.9305658E-04 Eh
   gradient norm :     0.0020613 Eh/α   predicted    -0.5094633E-04 ( -45.25%)
   displ. norm   :     0.1259607 α      lambda       -0.3348625E-04
   maximum displ.:     0.0876008 α      in ANC's #4, #7, #1, ...

........................................................................
.............................. CYCLE   34 ..............................
........................................................................

 iter      E             dE          RMSdq      gap      omega  full diag
   1   -212.6922186 -0.212692E+03  0.874E-03    1.09       0.0  T
   2   -212.6922187 -0.687911E-07  0.515E-03    1.09       1.6  T
   3   -212.6922180  0.664138E-06  0.174E-03    1.09       4.8  T
   4   -212.6922187 -0.704949E-06  0.355E-04    1.09      23.7  T
   5   -212.6922187 -0.262455E-07  0.135E-04    1.09      62.6  T
     SCC iter.                  ...        0 min,  0.360 sec
     gradient                   ...        0 min,  0.063 sec
 * total energy  :  -209.5860400 Eh     change       -0.2883613E-04 Eh
   gradient norm :     0.0014669 Eh/α   predicted    -0.1701000E-04 ( -41.01%)
   displ. norm   :     0.1925593 α      lambda       -0.4324298E-04
   maximum displ.:     0.1369503 α      in ANC's #4, #7, #1, ...

........................................................................
.............................. CYCLE   35 ..............................
........................................................................

 iter      E             dE          RMSdq      gap      omega  full diag
   1   -212.6930313 -0.212693E+03  0.138E-02    1.09       0.0  T
   2   -212.6930316 -0.233718E-06  0.814E-03    1.09       1.0  T
   3   -212.6930290  0.255965E-05  0.344E-03    1.09       2.5  T
   4   -212.6930317 -0.274005E-05  0.630E-04    1.09      13.4  T
   5   -212.6930318 -0.765692E-07  0.273E-04    1.09      30.8  T
   6   -212.6930318 -0.950388E-08  0.109E-04    1.09      77.0  T
     SCC iter.                  ...        0 min,  0.433 sec
     gradient                   ...        0 min,  0.066 sec
 * total energy  :  -209.5860900 Eh     change       -0.4994342E-04 Eh
   gradient norm :     0.0012571 Eh/α   predicted    -0.2197989E-04 ( -55.99%)
   displ. norm   :     0.1631863 α      lambda       -0.3008099E-04
   maximum displ.:     0.1185915 α      in ANC's #4, #2, #10, ...

........................................................................
.............................. CYCLE   36 ..............................
........................................................................

 iter      E             dE          RMSdq      gap      omega  full diag
   1   -212.6928013 -0.212693E+03  0.108E-02    1.09       0.0  T
   2   -212.6928015 -0.150131E-06  0.642E-03    1.09       1.3  T
   3   -212.6927995  0.200131E-05  0.294E-03    1.09       2.9  T
   4   -212.6928016 -0.214683E-05  0.485E-04    1.09      17.4  T
   5   -212.6928016 -0.365912E-07  0.234E-04    1.09      36.1  T
   6   -212.6928016 -0.711060E-08  0.825E-05    1.09     102.1  T
     SCC iter.                  ...        0 min,  0.307 sec
     gradient                   ...        0 min,  0.062 sec
 * total energy  :  -209.5861271 Eh     change       -0.3715442E-04 Eh
   gradient norm :     0.0010914 Eh/α   predicted    -0.1521892E-04 ( -59.04%)
   displ. norm   :     0.1588480 α      lambda       -0.2908837E-04
   maximum displ.:     0.1126213 α      in ANC's #4, #10, #2, ...

........................................................................
.............................. CYCLE   37 ..............................
........................................................................

 iter      E             dE          RMSdq      gap      omega  full diag
   1   -212.6928866 -0.212693E+03  0.108E-02    1.09       0.0  T
   2   -212.6928868 -0.147271E-06  0.638E-03    1.10       1.3  T
   3   -212.6928848  0.196124E-05  0.297E-03    1.10       2.8  T
   4   -212.6928869 -0.210717E-05  0.482E-04    1.10      17.5  T
   5   -212.6928869 -0.389265E-07  0.230E-04    1.10      36.6  T
   6   -212.6928869 -0.719615E-08  0.854E-05    1.10      98.6  T
     SCC iter.                  ...        0 min,  0.350 sec
     gradient                   ...        0 min,  0.066 sec
 * total energy  :  -209.5861641 Eh     change       -0.3698169E-04 Eh
   gradient norm :     0.0010841 Eh/α   predicted    -0.1470752E-04 ( -60.23%)
   displ. norm   :     0.1982975 α      lambda       -0.3466344E-04
   maximum displ.:     0.1318516 α      in ANC's #4, #5, #10, ...

........................................................................
.............................. CYCLE   38 ..............................
........................................................................

 iter      E             dE          RMSdq      gap      omega  full diag
   1   -212.6927338 -0.212693E+03  0.133E-02    1.10       0.0  T
   2   -212.6927340 -0.194354E-06  0.783E-03    1.10       1.1  T
   3   -212.6927334  0.644807E-06  0.181E-03    1.10       4.6  T
   4   -212.6927341 -0.702672E-06  0.426E-04    1.10      19.8  T
   5   -212.6927341 -0.207414E-07  0.247E-04    1.10      34.1  T
     SCC iter.                  ...        0 min,  0.416 sec
     gradient                   ...        0 min,  0.064 sec
 * total energy  :  -209.5862072 Eh     change       -0.4306774E-04 Eh
   gradient norm :     0.0012054 Eh/α   predicted    -0.1763533E-04 ( -59.05%)
   displ. norm   :     0.2334499 α      lambda       -0.3613612E-04
   maximum displ.:     0.1522616 α      in ANC's #4, #5, #10, ...

........................................................................
.............................. CYCLE   39 ..............................
........................................................................

 iter      E             dE          RMSdq      gap      omega  full diag
   1   -212.6924358 -0.212692E+03  0.150E-02    1.10       0.0  T
   2   -212.6924359 -0.180782E-06  0.882E-03    1.10       1.0  T
   3   -212.6924353  0.642549E-06  0.193E-03    1.10       4.4  T
   4   -212.6924360 -0.724756E-06  0.377E-04    1.10      22.4  T
   5   -212.6924360 -0.919857E-08  0.241E-04    1.10      35.0  T
     SCC iter.                  ...        0 min,  0.368 sec
     gradient                   ...        0 min,  0.060 sec
 * total energy  :  -209.5862522 Eh     change       -0.4498023E-04 Eh
   gradient norm :     0.0013271 Eh/α   predicted    -0.1850750E-04 ( -58.85%)
   displ. norm   :     0.2336428 α      lambda       -0.3245363E-04
   maximum displ.:     0.1507861 α      in ANC's #4, #5, #12, ...

........................................................................
.............................. CYCLE   40 ..............................
........................................................................

 iter      E             dE          RMSdq      gap      omega  full diag
   1   -212.6926034 -0.212693E+03  0.142E-02    1.10       0.0  T
   2   -212.6926036 -0.125533E-06  0.840E-03    1.10       1.0  T
   3   -212.6926027  0.921241E-06  0.215E-03    1.10       3.9  T
   4   -212.6926037 -0.100774E-05  0.395E-04    1.10      21.3  T
   5   -212.6926037 -0.201178E-07  0.219E-04    1.10      38.4  T
   6   -212.6926037 -0.480463E-08  0.954E-05    1.10      88.3  T
     SCC iter.                  ...        0 min,  0.345 sec
     gradient                   ...        0 min,  0.061 sec
 * total energy  :  -209.5862939 Eh     change       -0.4174290E-04 Eh
   gradient norm :     0.0012129 Eh/α   predicted    -0.1662168E-04 ( -60.18%)
   displ. norm   :     0.2447282 α      lambda       -0.3324941E-04
   maximum displ.:     0.1592962 α      in ANC's #4, #5, #2, ...

........................................................................
.............................. CYCLE   41 ..............................
........................................................................

 iter      E             dE          RMSdq      gap      omega  full diag
   1   -212.6924699 -0.212692E+03  0.146E-02    1.10       0.0  T
   2   -212.6924701 -0.111792E-06  0.860E-03    1.10       1.0  T
   3   -212.6924692  0.850337E-06  0.218E-03    1.10       3.9  T
   4   -212.6924701 -0.936560E-06  0.369E-04    1.10      22.8  T
   5   -212.6924702 -0.164612E-07  0.208E-04    1.10      40.4  T
     SCC iter.                  ...        0 min,  0.329 sec
     gradient                   ...        0 min,  0.069 sec
 * total energy  :  -209.5863366 Eh     change       -0.4271611E-04 Eh
   gradient norm :     0.0010708 Eh/α   predicted    -0.1706985E-04 ( -60.04%)
   displ. norm   :     0.2711882 α      lambda       -0.3574814E-04
   maximum displ.:     0.1788127 α      in ANC's #4, #5, #2, ...

........................................................................
.............................. CYCLE   42 ..............................
........................................................................

 iter      E             dE          RMSdq      gap      omega  full diag
   1   -212.6924875 -0.212692E+03  0.160E-02    1.10       0.0  T
   2   -212.6924876 -0.128490E-06  0.941E-03    1.10       1.0  T
   3   -212.6924869  0.677789E-06  0.201E-03    1.10       4.2  T
   4   -212.6924877 -0.749350E-06  0.391E-04    1.10      21.5  T
   5   -212.6924877 -0.179935E-07  0.228E-04    1.10      36.9  T
     SCC iter.                  ...        0 min,  0.356 sec
     gradient                   ...        0 min,  0.066 sec
 * total energy  :  -209.5863807 Eh     change       -0.4410945E-04 Eh
   gradient norm :     0.0009960 Eh/α   predicted    -0.1846225E-04 ( -58.14%)
   displ. norm   :     0.2736042 α      lambda       -0.3232799E-04
   maximum displ.:     0.1835342 α      in ANC's #4, #5, #2, ...
 * RMSD in coord.:     0.4766186 α      energy gain  -0.3071638E-02 Eh

generating ANC from model Hessian ...
Using Lindh-Hessian (1995)
 Shifting diagonal of input Hessian by    1.0139752137688153E-002
 Lowest  eigenvalues of input Hessian
    0.010000    0.000000    0.000000    0.000000    0.000000    0.000000
    0.000000    0.010162    0.010176    0.010229    0.010250    0.010413
    0.010493    0.010507    0.010534    0.010633    0.010681    0.010711
 Highest eigenvalues
    2.077263    2.077435    2.180447    2.180889    2.199225    2.199323


........................................................................
.............................. CYCLE   43 ..............................
........................................................................

 iter      E             dE          RMSdq      gap      omega  full diag
   1   -212.6927474 -0.212693E+03  0.157E-02    1.10       0.0  T
   2   -212.6927475 -0.131008E-06  0.929E-03    1.10       1.0  T
   3   -212.6927465  0.100423E-05  0.252E-03    1.10       3.3  T
   4   -212.6927476 -0.112068E-05  0.363E-04    1.10      23.2  T
   5   -212.6927476 -0.133767E-07  0.214E-04    1.10      39.3  T
   6   -212.6927477 -0.325744E-08  0.874E-05    1.10      96.3  T
     SCC iter.                  ...        0 min,  0.323 sec
     gradient                   ...        0 min,  0.064 sec
 * total energy  :  -209.5864196 Eh     change       -0.3890397E-04 Eh
   gradient norm :     0.0009075 Eh/α   predicted     0.0000000E+00 (-100.00%)
   displ. norm   :     0.0359030 α      lambda       -0.8256193E-05
   maximum displ.:     0.0239691 α      in ANC's #4, #21, #25, ...

........................................................................
.............................. CYCLE   44 ..............................
........................................................................

 iter      E             dE          RMSdq      gap      omega  full diag
   1   -212.6929394 -0.212693E+03  0.382E-03    1.10       0.0  T
   2   -212.6929395 -0.218951E-07  0.229E-03    1.10       3.7  T
   3   -212.6929391  0.406311E-06  0.145E-03    1.10       5.8  T
   4   -212.6929395 -0.456495E-06  0.246E-04    1.10      34.2  T
   5   -212.6929395 -0.118937E-07  0.842E-05    1.10     100.0  T
     SCC iter.                  ...        0 min,  0.404 sec
     gradient                   ...        0 min,  0.071 sec
 * total energy  :  -209.5864297 Eh     change       -0.1006896E-04 Eh
   gradient norm :     0.0005067 Eh/α   predicted    -0.4135807E-05 ( -58.93%)
   displ. norm   :     0.1023904 α      lambda       -0.1766954E-04
   maximum displ.:     0.0625822 α      in ANC's #4, #21, #25, ...

........................................................................
.............................. CYCLE   45 ..............................
........................................................................

 iter      E             dE          RMSdq      gap      omega  full diag
   1   -212.6931299 -0.212693E+03  0.989E-03    1.10       0.0  T
   2   -212.6931300 -0.145576E-06  0.582E-03    1.10       1.4  T
   3   -212.6931290  0.103850E-05  0.248E-03    1.10       3.4  T
   4   -212.6931301 -0.113855E-05  0.451E-04    1.10      18.7  T
   5   -212.6931301 -0.367338E-07  0.214E-04    1.10      39.4  T
   6   -212.6931301 -0.640875E-08  0.850E-05    1.10      99.0  T
     SCC iter.                  ...        0 min,  0.464 sec
     gradient                   ...        0 min,  0.061 sec
 * total energy  :  -209.5864478 Eh     change       -0.1811780E-04 Eh
   gradient norm :     0.0009293 Eh/α   predicted    -0.8877155E-05 ( -51.00%)
   displ. norm   :     0.0919152 α      lambda       -0.1013411E-04
   maximum displ.:     0.0604363 α      in ANC's #4, #21, #13, ...

........................................................................
.............................. CYCLE   46 ..............................
........................................................................

 iter      E             dE          RMSdq      gap      omega  full diag
   1   -212.6927097 -0.212693E+03  0.738E-03    1.10       0.0  T
   2   -212.6927098 -0.769207E-07  0.439E-03    1.10       1.9  T
   3   -212.6927090  0.835032E-06  0.205E-03    1.10       4.1  T
   4   -212.6927099 -0.906269E-06  0.359E-04    1.10      23.5  T
   5   -212.6927099 -0.231392E-07  0.157E-04    1.10      53.5  T
     SCC iter.                  ...        0 min,  0.326 sec
     gradient                   ...        0 min,  0.059 sec
 * total energy  :  -209.5864585 Eh     change       -0.1066377E-04 Eh
   gradient norm :     0.0008160 Eh/α   predicted    -0.5088491E-05 ( -52.28%)
   displ. norm   :     0.0759843 α      lambda       -0.7577375E-05
   maximum displ.:     0.0513418 α      in ANC's #4, #13, #2, ...

........................................................................
.............................. CYCLE   47 ..............................
........................................................................

 iter      E             dE          RMSdq      gap      omega  full diag
   1   -212.6927364 -0.212693E+03  0.604E-03    1.10       0.0  T
   2   -212.6927364 -0.272736E-07  0.359E-03    1.10       2.3  T
   3   -212.6927355  0.965384E-06  0.211E-03    1.10       4.0  T
   4   -212.6927365 -0.106276E-05  0.271E-04    1.10      31.0  T
   5   -212.6927365 -0.140491E-07  0.105E-04    1.10      80.3  T
   6   -212.6927365 -0.114616E-08  0.517E-05    1.10     163.0  T
     SCC iter.                  ...        0 min,  0.495 sec
     gradient                   ...        0 min,  0.063 sec
 * total energy  :  -209.5864680 Eh     change       -0.9461684E-05 Eh
   gradient norm :     0.0006243 Eh/α   predicted    -0.3798703E-05 ( -59.85%)
   displ. norm   :     0.1061909 α      lambda       -0.1111544E-04
   maximum displ.:     0.0708638 α      in ANC's #4, #13, #2, ...

........................................................................
.............................. CYCLE   48 ..............................
........................................................................

 iter      E             dE          RMSdq      gap      omega  full diag
   1   -212.6928451 -0.212693E+03  0.789E-03    1.10       0.0  T
   2   -212.6928452 -0.376004E-07  0.467E-03    1.10       1.8  T
   3   -212.6928437  0.142576E-05  0.252E-03    1.10       3.3  T
   4   -212.6928453 -0.155968E-05  0.301E-04    1.10      28.0  T
   5   -212.6928453 -0.146476E-07  0.134E-04    1.10      62.9  T
   6   -212.6928453 -0.156683E-08  0.703E-05    1.10     119.8  T
     SCC iter.                  ...        0 min,  0.455 sec
     gradient                   ...        0 min,  0.068 sec
 * total energy  :  -209.5864816 Eh     change       -0.1364168E-04 Eh
   gradient norm :     0.0004955 Eh/α   predicted    -0.5587553E-05 ( -59.04%)
   displ. norm   :     0.1255417 α      lambda       -0.1100568E-04
   maximum displ.:     0.0849159 α      in ANC's #4, #2, #13, ...

........................................................................
.............................. CYCLE   49 ..............................
........................................................................

 iter      E             dE          RMSdq      gap      omega  full diag
   1   -212.6930392 -0.212693E+03  0.917E-03    1.10       0.0  T
   2   -212.6930393 -0.626360E-07  0.541E-03    1.10       1.6  T
   3   -212.6930381  0.112821E-05  0.225E-03    1.10       3.7  T
   4   -212.6930394 -0.122637E-05  0.309E-04    1.10      27.2  T
   5   -212.6930394 -0.155421E-07  0.150E-04    1.10      56.3  T
   6   -212.6930394 -0.197412E-08  0.778E-05    1.10     108.2  T
     SCC iter.                  ...        0 min,  0.499 sec
     gradient                   ...        0 min,  0.062 sec
 * total energy  :  -209.5864944 Eh     change       -0.1282697E-04 Eh
   gradient norm :     0.0006984 Eh/α   predicted    -0.5545760E-05 ( -56.76%)
   displ. norm   :     0.1004803 α      lambda       -0.7197921E-05
   maximum displ.:     0.0706445 α      in ANC's #4, #2, #13, ...

........................................................................
.............................. CYCLE   50 ..............................
........................................................................

 iter      E             dE          RMSdq      gap      omega  full diag
   1   -212.6932251 -0.212693E+03  0.679E-03    1.10       0.0  T
   2   -212.6932252 -0.303452E-07  0.401E-03    1.10       2.1  T
   3   -212.6932246  0.559119E-06  0.152E-03    1.10       5.5  T
   4   -212.6932252 -0.598891E-06  0.245E-04    1.10      34.3  T
   5   -212.6932252 -0.113272E-07  0.101E-04    1.10      83.4  T
     SCC iter.                  ...        0 min,  0.433 sec
     gradient                   ...        0 min,  0.074 sec
 * total energy  :  -209.5865034 Eh     change       -0.8975748E-05 Eh
   gradient norm :     0.0006181 Eh/α   predicted    -0.3617524E-05 ( -59.70%)
   displ. norm   :     0.0770011 α      lambda       -0.5916216E-05
   maximum displ.:     0.0552666 α      in ANC's #4, #2, #16, ...

........................................................................
.............................. CYCLE   51 ..............................
........................................................................

 iter      E             dE          RMSdq      gap      omega  full diag
   1   -212.6933011 -0.212693E+03  0.480E-03    1.10       0.0  T
   2   -212.6933011 -0.816331E-08  0.286E-03    1.10       2.9  T
   3   -212.6933004  0.685379E-06  0.172E-03    1.10       4.9  T
   4   -212.6933012 -0.750879E-06  0.220E-04    1.10      38.3  T
   5   -212.6933012 -0.869997E-08  0.735E-05    1.10     114.6  T
     SCC iter.                  ...        0 min,  0.485 sec
     gradient                   ...        0 min,  0.064 sec
 * total energy  :  -209.5865114 Eh     change       -0.7956924E-05 Eh
   gradient norm :     0.0003818 Eh/α   predicted    -0.2968673E-05 ( -62.69%)
   displ. norm   :     0.0850415 α      lambda       -0.7186451E-05
   maximum displ.:     0.0598850 α      in ANC's #4, #2, #16, ...

........................................................................
.............................. CYCLE   52 ..............................
........................................................................

 iter      E             dE          RMSdq      gap      omega  full diag
   1   -212.6932868 -0.212693E+03  0.490E-03    1.10       0.0  T
   2   -212.6932869 -0.104234E-07  0.293E-03    1.10       2.9  T
   3   -212.6932861  0.714046E-06  0.180E-03    1.10       4.7  T
   4   -212.6932869 -0.787106E-06  0.225E-04    1.10      37.5  T
   5   -212.6932869 -0.845480E-08  0.849E-05    1.10      99.1  T
     SCC iter.                  ...        0 min,  0.424 sec
     gradient                   ...        0 min,  0.065 sec
 * total energy  :  -209.5865210 Eh     change       -0.9597887E-05 Eh
   gradient norm :     0.0002878 Eh/α   predicted    -0.3607942E-05 ( -62.41%)
   displ. norm   :     0.1096780 α      lambda       -0.8535892E-05
   maximum displ.:     0.0756988 α      in ANC's #4, #2, #16, ...

........................................................................
.............................. CYCLE   53 ..............................
........................................................................

 iter      E             dE          RMSdq      gap      omega  full diag
   1   -212.6930589 -0.212693E+03  0.601E-03    1.10       0.0  T
   2   -212.6930589 -0.208191E-07  0.359E-03    1.10       2.3  T
   3   -212.6930582  0.732347E-06  0.187E-03    1.10       4.5  T
   4   -212.6930590 -0.802364E-06  0.234E-04    1.10      36.0  T
   5   -212.6930590 -0.793381E-08  0.992E-05    1.10      84.9  T
     SCC iter.                  ...        0 min,  0.476 sec
     gradient                   ...        0 min,  0.065 sec
 * total energy  :  -209.5865319 Eh     change       -0.1098912E-04 Eh
   gradient norm :     0.0004836 Eh/α   predicted    -0.4294676E-05 ( -60.92%)
   displ. norm   :     0.1166785 α      lambda       -0.7724886E-05
   maximum displ.:     0.0805861 α      in ANC's #4, #2, #16, ...

........................................................................
.............................. CYCLE   54 ..............................
........................................................................

 iter      E             dE          RMSdq      gap      omega  full diag
   1   -212.6929409 -0.212693E+03  0.589E-03    1.10       0.0  T
   2   -212.6929410 -0.322393E-07  0.352E-03    1.10       2.4  T
   3   -212.6929405  0.435928E-06  0.152E-03    1.10       5.5  T
   4   -212.6929410 -0.480568E-06  0.203E-04    1.10      41.4  T
   5   -212.6929410 -0.527797E-08  0.101E-04    1.10      83.6  T
     SCC iter.                  ...        0 min,  0.254 sec
     gradient                   ...        0 min,  0.064 sec
 * total energy  :  -209.5865417 Eh     change       -0.9707496E-05 Eh
   gradient norm :     0.0005871 Eh/α   predicted    -0.3886843E-05 ( -59.96%)
   displ. norm   :     0.1067555 α      lambda       -0.6232730E-05
   maximum displ.:     0.0742172 α      in ANC's #4, #2, #16, ...

........................................................................
.............................. CYCLE   55 ..............................
........................................................................

 iter      E             dE          RMSdq      gap      omega  full diag
   1   -212.6927897 -0.212693E+03  0.529E-03    1.10       0.0  T
   2   -212.6927898 -0.180213E-07  0.314E-03    1.10       2.7  T
   3   -212.6927895  0.283327E-06  0.115E-03    1.10       7.3  T
   4   -212.6927898 -0.304367E-06  0.189E-04    1.10      44.5  T
   5   -212.6927898 -0.658767E-08  0.785E-05    1.10     107.2  T
     SCC iter.                  ...        0 min,  0.255 sec
     gradient                   ...        0 min,  0.065 sec
 * total energy  :  -209.5865496 Eh     change       -0.7914608E-05 Eh
   gradient norm :     0.0004964 Eh/α   predicted    -0.3132807E-05 ( -60.42%)
   displ. norm   :     0.1011354 α      lambda       -0.5550067E-05
   maximum displ.:     0.0713139 α      in ANC's #4, #2, #5, ...

........................................................................
.............................. CYCLE   56 ..............................
........................................................................

 iter      E             dE          RMSdq      gap      omega  full diag
   1   -212.6927625 -0.212693E+03  0.486E-03    1.10       0.0  T
   2   -212.6927625 -0.160818E-07  0.287E-03    1.10       2.9  T
   3   -212.6927621  0.368450E-06  0.130E-03    1.10       6.5  T
   4   -212.6927625 -0.395988E-06  0.200E-04    1.10      42.1  T
   5   -212.6927625 -0.785610E-08  0.779E-05    1.10     108.0  T
     SCC iter.                  ...        0 min,  0.271 sec
     gradient                   ...        0 min,  0.064 sec
 * total energy  :  -209.5865569 Eh     change       -0.7364974E-05 Eh
   gradient norm :     0.0003381 Eh/α   predicted    -0.2789170E-05 ( -62.13%)
   displ. norm   :     0.1046058 α      lambda       -0.5664233E-05
   maximum displ.:     0.0737699 α      in ANC's #4, #2, #5, ...

........................................................................
.............................. CYCLE   57 ..............................
........................................................................

 iter      E             dE          RMSdq      gap      omega  full diag
   1   -212.6928137 -0.212693E+03  0.505E-03    1.10       0.0  T
   2   -212.6928138 -0.166830E-07  0.297E-03    1.10       2.8  T
   3   -212.6928134  0.373862E-06  0.130E-03    1.10       6.5  T
   4   -212.6928138 -0.403373E-06  0.180E-04    1.10      46.7  T
   5   -212.6928138 -0.552774E-08  0.836E-05    1.10     100.8  T
     SCC iter.                  ...        0 min,  0.309 sec
     gradient                   ...        0 min,  0.062 sec
 * total energy  :  -209.5865646 Eh     change       -0.7696348E-05 Eh
   gradient norm :     0.0002462 Eh/α   predicted    -0.2848413E-05 ( -62.99%)
   displ. norm   :     0.1317509 α      lambda       -0.6969065E-05
   maximum displ.:     0.0920284 α      in ANC's #4, #2, #5, ...

........................................................................
.............................. CYCLE   58 ..............................
........................................................................

 iter      E             dE          RMSdq      gap      omega  full diag
   1   -212.6928929 -0.212693E+03  0.665E-03    1.10       0.0  T
   2   -212.6928929 -0.260669E-07  0.392E-03    1.10       2.1  T
   3   -212.6928924  0.507121E-06  0.146E-03    1.10       5.8  T
   4   -212.6928930 -0.544624E-06  0.196E-04    1.10      42.9  T
   5   -212.6928930 -0.515524E-08  0.102E-04    1.10      82.5  T
     SCC iter.                  ...        0 min,  0.295 sec
     gradient                   ...        0 min,  0.062 sec
 * total energy  :  -209.5865740 Eh     change       -0.9355776E-05 Eh
   gradient norm :     0.0003350 Eh/α   predicted    -0.3514146E-05 ( -62.44%)
   displ. norm   :     0.1697630 α      lambda       -0.8340464E-05
   maximum displ.:     0.1171420 α      in ANC's #4, #2, #5, ...

........................................................................
.............................. CYCLE   59 ..............................
........................................................................

 iter      E             dE          RMSdq      gap      omega  full diag
   1   -212.6929882 -0.212693E+03  0.890E-03    1.10       0.0  T
   2   -212.6929882 -0.496455E-07  0.525E-03    1.10       1.6  T
   3   -212.6929877  0.571904E-06  0.162E-03    1.10       5.2  T
   4   -212.6929883 -0.618072E-06  0.231E-04    1.10      36.4  T
   5   -212.6929883 -0.585607E-08  0.129E-04    1.10      65.2  T
     SCC iter.                  ...        0 min,  0.250 sec
     gradient                   ...        0 min,  0.060 sec
 * total energy  :  -209.5865849 Eh     change       -0.1090899E-04 Eh
   gradient norm :     0.0004814 Eh/α   predicted    -0.4225128E-05 ( -61.27%)
   displ. norm   :     0.2107348 α      lambda       -0.9172154E-05
   maximum displ.:     0.1443139 α      in ANC's #4, #2, #5, ...

........................................................................
.............................. CYCLE   60 ..............................
........................................................................

 iter      E             dE          RMSdq      gap      omega  full diag
   1   -212.6930948 -0.212693E+03  0.113E-02    1.10       0.0  T
   2   -212.6930949 -0.613818E-07  0.665E-03    1.10       1.3  T
   3   -212.6930944  0.430377E-06  0.138E-03    1.10       6.1  T
   4   -212.6930949 -0.468930E-06  0.247E-04    1.10      34.1  T
   5   -212.6930949 -0.662345E-08  0.127E-04    1.10      66.4  T
     SCC iter.                  ...        0 min,  0.330 sec
     gradient                   ...        0 min,  0.064 sec
 * total energy  :  -209.5865965 Eh     change       -0.1158269E-04 Eh
   gradient norm :     0.0005952 Eh/α   predicted    -0.4677797E-05 ( -59.61%)
[...]
    30   6 C    3.969 --    29 C    1.477    25 C    1.339    64 C    0.976
    31   6 C    3.977 --    32 C    1.319    27 C    1.190    34 C    1.188
    32   6 C    3.985 --    31 C    1.319    37 C    1.215    33 C    1.214
    33   6 C    3.980 --    40 C    1.411    32 C    1.214    47 C    1.095
    34   6 C    3.977 --    35 C    1.280    41 C    1.252    31 C    1.188
    35   6 C    3.975 --    44 C    1.338    34 C    1.280    36 C    1.111
    36   6 C    3.941 --    48 O    1.574    35 C    1.111    37 C    1.097
    37   6 C    3.982 --    38 C    1.416    32 C    1.215    36 C    1.097
    38   6 C    3.985 --    37 C    1.416    39 C    1.392   138 H    0.960
    39   6 C    3.963 --    40 C    1.403    38 C    1.392    72 C    0.974
    40   6 C    3.985 --    33 C    1.411    39 C    1.403   139 H    0.961
    41   6 C    3.940 --    42 C    1.427    34 C    1.252    45 O    1.064
    42   6 C    3.966 --    41 C    1.427    43 C    1.357   136 H    0.947
    43   6 C    3.965 --    44 C    1.462    42 C    1.357    68 C    0.975
    44   6 C    3.981 --    43 C    1.462    35 C    1.338   137 H    0.959
    45   8 O    2.029 --    41 C    1.064    24 B    0.741
    46   8 O    2.107 --    26 C    1.071    24 B    0.817
    47   6 C    3.940 --    49 O    1.564    28 C    1.123    33 C    1.095
    48   8 O    1.868 --    36 C    1.574
    49   8 O    1.859 --    47 C    1.564
    50   8 O    1.867 --    10 C    1.571
    51   8 O    1.860 --    13 C    1.564
    52   6 C    3.988 --    53 C    1.000    54 C    0.990    55 C    0.988
                             6 C    0.975
    53   6 C    3.996 --    52 C    1.000   109 H    0.985   111 H    0.984
                           110 H    0.981
    54   6 C    3.996 --    52 C    0.990   104 H    0.987   103 H    0.986
                           105 H    0.984
    55   6 C    3.996 --    52 C    0.988   108 H    0.988   106 H    0.986
                           107 H    0.985
    56   6 C    3.987 --    59 C    1.000    57 C    0.990    58 C    0.989
                            20 C    0.975
    57   6 C    3.996 --    56 C    0.990    82 H    0.986    84 H    0.985
                            83 H    0.984
    58   6 C    3.996 --    56 C    0.989    77 H    0.987    76 H    0.986
                            78 H    0.985
    59   6 C    3.996 --    56 C    1.000    79 H    0.986    81 H    0.984
                            80 H    0.983
    60   6 C    3.985 --    62 C    0.999    61 C    0.990    63 C    0.990
                            16 C    0.974
    61   6 C    3.995 --    60 C    0.990   123 H    0.988   121 H    0.986
                           122 H    0.984
    62   6 C    3.997 --    60 C    0.999   127 H    0.986   128 H    0.986
                           129 H    0.985
    63   6 C    3.995 --    60 C    0.990   125 H    0.988   124 H    0.986
                           126 H    0.984
    64   6 C    3.987 --    67 C    0.998    65 C    0.990    66 C    0.990
                            30 C    0.976
    65   6 C    3.995 --    64 C    0.990   112 H    0.986   113 H    0.985
                           114 H    0.982
    66   6 C    3.994 --    64 C    0.990   120 H    0.987   118 H    0.986
                           119 H    0.982
    67   6 C    3.997 --    64 C    0.998   115 H    0.986   116 H    0.986
                           117 H    0.986
    68   6 C    3.987 --    71 C    1.000    69 C    0.990    70 C    0.989
                            43 C    0.975
    69   6 C    3.996 --    68 C    0.990    90 H    0.988    88 H    0.986
                            89 H    0.984
    70   6 C    3.996 --    68 C    0.989    92 H    0.987    91 H    0.986
                            93 H    0.985
    71   6 C    3.996 --    68 C    1.000    85 H    0.986    87 H    0.983
                            86 H    0.983
    72   6 C    3.985 --    74 C    0.999    75 C    0.990    73 C    0.990
                            39 C    0.974
    73   6 C    3.995 --    72 C    0.990    95 H    0.988    94 H    0.986
                            96 H    0.984
    74   6 C    3.997 --    72 C    0.999    97 H    0.986    98 H    0.986
                            99 H    0.985
    75   6 C    3.995 --    72 C    0.990   102 H    0.988   100 H    0.986
                           101 H    0.984
    76   1 H    0.999 --    58 C    0.986
    77   1 H    0.999 --    58 C    0.987
    78   1 H    0.999 --    58 C    0.985
    79   1 H    0.999 --    59 C    0.986
    80   1 H    0.999 --    59 C    0.983
    81   1 H    0.998 --    59 C    0.984
    82   1 H    0.999 --    57 C    0.986
    83   1 H    0.999 --    57 C    0.984
    84   1 H    0.999 --    57 C    0.985
    85   1 H    0.999 --    71 C    0.986
    86   1 H    0.999 --    71 C    0.983
    87   1 H    0.998 --    71 C    0.983
    88   1 H    0.999 --    69 C    0.986
    89   1 H    0.999 --    69 C    0.984
    90   1 H    1.000 --    69 C    0.988
    91   1 H    0.999 --    70 C    0.986
    92   1 H    0.999 --    70 C    0.987
    93   1 H    0.999 --    70 C    0.985
    94   1 H    0.999 --    73 C    0.986
    95   1 H    0.999 --    73 C    0.988
    96   1 H    0.999 --    73 C    0.984
    97   1 H    1.000 --    74 C    0.986
    98   1 H    0.999 --    74 C    0.986
    99   1 H    0.999 --    74 C    0.985
   100   1 H    0.999 --    75 C    0.986
   101   1 H    0.999 --    75 C    0.984
   102   1 H    0.999 --    75 C    0.988
   103   1 H    0.999 --    54 C    0.986
   104   1 H    0.999 --    54 C    0.987
   105   1 H    0.999 --    54 C    0.984
   106   1 H    0.999 --    55 C    0.986
   107   1 H    0.999 --    55 C    0.985
   108   1 H    0.999 --    55 C    0.988
   109   1 H    0.999 --    53 C    0.985
   110   1 H    0.999 --    53 C    0.981
   111   1 H    0.998 --    53 C    0.984
   112   1 H    0.999 --    65 C    0.986
   113   1 H    1.000 --    65 C    0.985
   114   1 H    0.998 --    65 C    0.982
   115   1 H    1.000 --    67 C    0.986
   116   1 H    0.999 --    67 C    0.986
   117   1 H    0.999 --    67 C    0.986
   118   1 H    0.999 --    66 C    0.986
   119   1 H    0.997 --    66 C    0.982
   120   1 H    0.999 --    66 C    0.987
   121   1 H    0.999 --    61 C    0.986
   122   1 H    0.999 --    61 C    0.984
   123   1 H    0.999 --    61 C    0.988
   124   1 H    0.999 --    63 C    0.986
   125   1 H    0.999 --    63 C    0.988
   126   1 H    0.999 --    63 C    0.984
   127   1 H    1.000 --    62 C    0.986
   128   1 H    0.999 --    62 C    0.986
   129   1 H    0.999 --    62 C    0.985
   130   1 H    0.999 --    15 C    0.961
   131   1 H    0.999 --    17 C    0.960
   132   1 H    0.999 --     5 C    0.959
   133   1 H    0.997 --     1 C    0.948
   134   1 H    0.999 --    21 C    0.960
   135   1 H    0.995 --    19 C    0.942
   136   1 H    0.997 --    42 C    0.947
   137   1 H    0.999 --    44 C    0.959
   138   1 H    0.999 --    38 C    0.960
   139   1 H    0.999 --    40 C    0.961
   140   1 H    0.999 --    29 C    0.962
   141   1 H    0.996 --    25 C    0.943
 ---------------------------------------------------------------------------

Topologies differ in bond orders
Writing corrected topology to xtbtopo.mol

molecular dipole:
                 x           y           z       tot (Debye)
 q only:       -0.056      -1.064       2.994
   full:       -0.064      -1.082       3.102       8.352
molecular quadrupole (traceless):
                xx          xy          yy          xz          yz          zz
 q only:     -217.102      35.398      90.012       1.896     -12.686     127.090
  q+dip:     -213.024      33.116      89.634       1.133     -11.320     123.390
   full:     -218.653      36.964      90.092       2.192     -12.948     128.561

           -------------------------------------------------
          |                Geometry Summary                 |
           -------------------------------------------------

      molecular mass/u    :      998.0389263
   center of mass at/Å    :        0.0143984       0.1364224      -0.3109846
  moments of inertia/u·Å² :        0.1220561E+05   0.2764067E+05   0.3171168E+05
rotational constants/cm⁻¹ :        0.1381138E-02   0.6098850E-03   0.5315906E-03

 * 129 selected distances

     #   Z          #   Z                                           value/Å
     1   6 C        2   6 C                                       1.3902932
     2   6 C        3   6 C                                       1.4351191
     3   6 C        4   6 C                                       1.4244366
     4   6 C        5   6 C                                       1.3979575
     1   6 C        6   6 C                                       1.3919327
     5   6 C        6   6 C                                       1.3709272
     7   6 C        8   6 C                                       1.4062932
     8   6 C        9   6 C                                       1.4213948
     7   6 C       11   6 C                                       1.4338832
    11   6 C       12   6 C                                       1.4178834
     8   6 C       14   6 C                                       1.4257133
    14   6 C       15   6 C                                       1.3888998
    15   6 C       16   6 C                                       1.3866988
     9   6 C       17   6 C                                       1.3857672
    16   6 C       17   6 C                                       1.3896724
    11   6 C       18   6 C                                       1.4194776
    18   6 C       19   6 C                                       1.3905483
    19   6 C       20   6 C                                       1.3957833
    12   6 C       21   6 C                                       1.3990565
    20   6 C       21   6 C                                       1.3749829
     2   6 C       22   8 O                                       1.3754019
    18   6 C       23   8 O                                       1.3654139
    23   8 O       24   5 B                                       1.4752686
    25   6 C       26   6 C                                       1.3870114
    26   6 C       27   6 C                                       1.4193669
    27   6 C       28   6 C                                       1.4158711
    28   6 C       29   6 C                                       1.4026707
    25   6 C       30   6 C                                       1.4002514
    29   6 C       30   6 C                                       1.3722380
    27   6 C       31   6 C                                       1.4321159
    31   6 C       32   6 C                                       1.4057231
    32   6 C       33   6 C                                       1.4255213
    34   6 C       35   6 C                                       1.4243331
    32   6 C       37   6 C                                       1.4207288
    37   6 C       38   6 C                                       1.3857468
    38   6 C       39   6 C                                       1.3898098
    33   6 C       40   6 C                                       1.3888194
    39   6 C       40   6 C                                       1.3870866
    41   6 C       42   6 C                                       1.3899078
    42   6 C       43   6 C                                       1.3916110
    35   6 C       44   6 C                                       1.3980025
    43   6 C       44   6 C                                       1.3710655
    41   6 C       45   8 O                                       1.3747559
    24   5 B       46   8 O                                       1.4751013
    26   6 C       46   8 O                                       1.3651077
    52   6 C       53   6 C                                       1.5303407
    52   6 C       54   6 C                                       1.5351040
    52   6 C       55   6 C                                       1.5362432
    56   6 C       57   6 C                                       1.5360499
    56   6 C       58   6 C                                       1.5357771
    56   6 C       59   6 C                                       1.5306106
    60   6 C       61   6 C                                       1.5355802
    60   6 C       62   6 C                                       1.5314736
    60   6 C       63   6 C                                       1.5356305
    64   6 C       65   6 C                                       1.5345150
    64   6 C       66   6 C                                       1.5347501
    64   6 C       67   6 C                                       1.5325616
    68   6 C       69   6 C                                       1.5365272 (max)
    68   6 C       70   6 C                                       1.5346061
    68   6 C       71   6 C                                       1.5306424
    72   6 C       73   6 C                                       1.5357881
    72   6 C       74   6 C                                       1.5314616
    72   6 C       75   6 C                                       1.5355416
    58   6 C       76   1 H                                       1.0921706
    58   6 C       77   1 H                                       1.0877608
    58   6 C       78   1 H                                       1.0869054
    59   6 C       79   1 H                                       1.0923307
    59   6 C       80   1 H                                       1.0869683
    59   6 C       81   1 H                                       1.0865513
    57   6 C       82   1 H                                       1.0919689
    57   6 C       83   1 H                                       1.0867123
    57   6 C       84   1 H                                       1.0877121
    71   6 C       85   1 H                                       1.0919126
    71   6 C       86   1 H                                       1.0878920
    71   6 C       87   1 H                                       1.0865286
    69   6 C       88   1 H                                       1.0917725
    69   6 C       89   1 H                                       1.0865877
    69   6 C       90   1 H                                       1.0886793
    70   6 C       91   1 H                                       1.0919273
    70   6 C       92   1 H                                       1.0872809
    70   6 C       93   1 H                                       1.0870482
    73   6 C       94   1 H                                       1.0920072
    73   6 C       95   1 H                                       1.0884622
    73   6 C       96   1 H                                       1.0864202
    74   6 C       97   1 H                                       1.0920382
    74   6 C       98   1 H                                       1.0873561
    74   6 C       99   1 H                                       1.0873255
    75   6 C      100   1 H                                       1.0920188
    75   6 C      101   1 H                                       1.0863023
    75   6 C      102   1 H                                       1.0883009
    54   6 C      103   1 H                                       1.0918639
    54   6 C      104   1 H                                       1.0872700
    54   6 C      105   1 H                                       1.0866886
    55   6 C      106   1 H                                       1.0916965
    55   6 C      107   1 H                                       1.0872538
    55   6 C      108   1 H                                       1.0885595
    53   6 C      109   1 H                                       1.0917894
    53   6 C      110   1 H                                       1.0863084
    53   6 C      111   1 H                                       1.0865711
    65   6 C      112   1 H                                       1.0919631
    65   6 C      113   1 H                                       1.0891144
    65   6 C      114   1 H                                       1.0859869
    67   6 C      115   1 H                                       1.0919114
    67   6 C      116   1 H                                       1.0873137
    67   6 C      117   1 H                                       1.0877406
    66   6 C      118   1 H                                       1.0920192
    66   6 C      119   1 H                                       1.0857828
    66   6 C      120   1 H                                       1.0884066
    61   6 C      121   1 H                                       1.0919937
    61   6 C      122   1 H                                       1.0863257
    61   6 C      123   1 H                                       1.0882958
    63   6 C      124   1 H                                       1.0919883
    63   6 C      125   1 H                                       1.0884483
    63   6 C      126   1 H                                       1.0863999
    62   6 C      127   1 H                                       1.0920016
    62   6 C      128   1 H                                       1.0873031
    62   6 C      129   1 H                                       1.0873493
    15   6 C      130   1 H                                       1.0807767
    17   6 C      131   1 H                                       1.0827989
     5   6 C      132   1 H                                       1.0816028
     1   6 C      133   1 H                                       1.0718061
    21   6 C      134   1 H                                       1.0814612
    19   6 C      135   1 H                                       1.0738628
    42   6 C      136   1 H                                       1.0716457 (min)
    44   6 C      137   1 H                                       1.0816428
    38   6 C      138   1 H                                       1.0827709
    40   6 C      139   1 H                                       1.0807682
    29   6 C      140   1 H                                       1.0795530
    25   6 C      141   1 H                                       1.0761646

 * 4 distinct bonds (by element types)

   Z      Z             #   av. dist./Å        max./Å        min./Å
   1 H    6 C          66     1.0870021     1.0923307     1.0716457
   6 C    6 C          57     1.4432948     1.5365272     1.3709272
Note: The following floating-point exceptions are signalling: IEEE_UNDERFLOW_FLAG
normal termination of xtb
   5 B    8 O           2     1.4751849     1.4752686     1.4751013
   6 C    8 O           4     1.3701698     1.3754019     1.3651077


optimized geometry written to: xtbopt.mol


           -------------------------------------------------
          | TOTAL ENERGY             -209.586619737208 Eh   |
          | GRADIENT NORM               0.000345066526 Eh/α |
          | HOMO-LUMO GAP               1.098339172927 eV   |
           -------------------------------------------------
########################################################################
[WARNING] Runtime exception occurred
-2- restart_readRestart: Multiplicity missmatch in restart file.
-1- restart_readRestart: Number of electron missmatch in restart file.
########################################################################

------------------------------------------------------------------------
 * finished run on 2024/11/12 at 11:19:51.687     
------------------------------------------------------------------------
 total:
 * wall-time:     0 d,  0 h,  0 min, 33.563 sec
 *  cpu-time:     0 d,  0 h,  1 min, 56.515 sec
 * ratio c/w:     3.472 speedup
 SCF:
 * wall-time:     0 d,  0 h,  0 min,  1.341 sec
 *  cpu-time:     0 d,  0 h,  0 min,  5.418 sec
 * ratio c/w:     4.041 speedup
 ANC optimizer:
 * wall-time:     0 d,  0 h,  0 min, 32.190 sec
 *  cpu-time:     0 d,  0 h,  1 min, 51.056 sec
 * ratio c/w:     3.450 speedup

