      -----------------------------------------------------------      
     |                   =====================                   |     
     |                           x T B                           |     
     |                   =====================                   |     
     |                         S. Grimme                         |     
     |          Mulliken Center for Theoretical Chemistry        |     
     |                    University of Bonn                     |     
      -----------------------------------------------------------      

   * xtb version 6.6.1 (8d0f1dd) compiled by 'runner@Mac-1690902418499.local' on 2023-08-01

   xtb is free software: you can redistribute it and/or modify it under
   the terms of the GNU Lesser General Public License as published by
   the Free Software Foundation, either version 3 of the License, or
   (at your option) any later version.
   
   xtb is distributed in the hope that it will be useful,
   but WITHOUT ANY WARRANTY; without even the implied warranty of
   MERCHANTABILITY or FITNESS FOR A PARTICULAR PURPOSE.  See the
   GNU Lesser General Public License for more details.
   
   Cite this work as:
   * C. Bannwarth, E. Caldeweyher, S. Ehlert, A. Hansen, P. Pracht,
     J. Seibert, S. Spicher, S. Grimme, WIREs Comput. Mol. Sci., 2020, 11,
     e01493. DOI: 10.1002/wcms.1493
   
   for GFN2-xTB:
   * C. Bannwarth, S. Ehlert and S. Grimme., J. Chem. Theory Comput., 2019,
     15, 1652-1671. DOI: 10.1021/acs.jctc.8b01176
   for GFN1-xTB:
   * S. Grimme, C. Bannwarth, P. Shushkov, J. Chem. Theory Comput., 2017,
     13, 1989-2009. DOI: 10.1021/acs.jctc.7b00118
   for GFN0-xTB:
   * P. Pracht, E. Caldeweyher, S. Ehlert, S. Grimme, ChemRxiv, 2019, preprint.
     DOI: 10.26434/chemrxiv.8326202.v1
   for GFN-FF:
   * S. Spicher and S. Grimme, Angew. Chem. Int. Ed., 2020, 59, 15665-15673.
     DOI: 10.1002/anie.202004239
   
   for ALPB and GBSA implicit solvation:
   * S. Ehlert, M. Stahn, S. Spicher, S. Grimme, J. Chem. Theory Comput.,
     2021, 17, 4250-4261. DOI: 10.1021/acs.jctc.1c00471
   
   for DFT-D4:
   * E. Caldeweyher, C. Bannwarth and S. Grimme, J. Chem. Phys., 2017,
     147, 034112. DOI: 10.1063/1.4993215
   * E. Caldeweyher, S. Ehlert, A. Hansen, H. Neugebauer, S. Spicher,
     C. Bannwarth and S. Grimme, J. Chem. Phys., 2019, 150, 154122.
     DOI: 10.1063/1.5090222
   * E. Caldeweyher, J.-M. Mewes, S. Ehlert and S. Grimme, Phys. Chem. Chem. Phys.
     2020, 22, 8499-8512. DOI: 10.1039/D0CP00502A
   
   for sTDA-xTB:
   * S. Grimme and C. Bannwarth, J. Chem. Phys., 2016, 145, 054103.
     DOI: 10.1063/1.4959605
   
   in the mass-spec context:
   * V. Asgeirsson, C. Bauer and S. Grimme, Chem. Sci., 2017, 8, 4879.
     DOI: 10.1039/c7sc00601b
   * J. Koopman and S. Grimme, ACS Omega 2019, 4, 12, 15120-15133.
     DOI: 10.1021/acsomega.9b02011
   
   for metadynamics refer to:
   * S. Grimme, J. Chem. Theory Comput., 2019, 155, 2847-2862
     DOI: 10.1021/acs.jctc.9b00143
   
   for SPH calculations refer to:
   * S. Spicher and S. Grimme, J. Chem. Theory Comput., 2021, 17, 1701-1714
     DOI: 10.1021/acs.jctc.0c01306
   
   with help from (in alphabetical order)
   P. Atkinson, C. Bannwarth, F. Bohle, G. Brandenburg, E. Caldeweyher
   M. Checinski, S. Dohm, S. Ehlert, S. Ehrlich, I. Gerasimov, C. Hölzer
   A. Katbashev, J. Koopman, C. Lavigne, S. Lehtola, F. März, M. Müller,
   F. Musil, H. Neugebauer, J. Pisarek, C. Plett, P. Pracht, F. Pultar,
   J. Seibert, P. Shushkov, S. Spicher, M. Stahn, M. Steiner, T. Strunk,
   J. Stückrath, T. Rose, and J. Unsleber
   
 * started run on 2024/11/12 at 11:20:52.964     

           -------------------------------------------------
          |                Calculation Setup                |
           -------------------------------------------------

          program call               : xtb opt_anion_Katherine2.mol --gfn2 --sp --chrg -3 --uhf 0
          coordinate file            : opt_anion_Katherine2.mol
          omp threads                :                     8

   ID    Z sym.   atoms
    1    6 C      1-21, 25-44, 47, 52-75
    2    8 O      22, 23, 45, 46, 48-51
    3    5 B      24
    4    1 H      76-141
########################################################################
[WARNING] Please study the warnings concerning your input carefully
-1- prog_main: Charge in sdf/mol input was overwritten
########################################################################

           -------------------------------------------------
          |                 G F N 2 - x T B                 |
           -------------------------------------------------

        Reference                      10.1021/acs.jctc.8b01176
      * Hamiltonian:
        H0-scaling (s, p, d)           1.850000    2.230000    2.230000
        zeta-weighting                 0.500000
      * Dispersion:
        s8                             2.700000
        a1                             0.520000
        a2                             5.000000
        s9                             5.000000
      * Repulsion:
        kExp                           1.500000    1.000000
        rExp                           1.000000
      * Coulomb:
        alpha                          2.000000
        third order                    shell-resolved
        anisotropic                    true
        a3                             3.000000
        a5                             4.000000
        cn-shift                       1.200000
        cn-exp                         4.000000
        max-rad                        5.000000

q/qsh data taken from xtbrestart
CAMM data taken from xtbrestart

          ...................................................
          :                      SETUP                      :
          :.................................................:
          :  # basis functions                 366          :
          :  # atomic orbitals                 366          :
          :  # shells                          216          :
          :  # electrons                       384          :
          :  max. iterations                   250          :
          :  Hamiltonian                  GFN2-xTB          :
          :  restarted?                       true          :
          :  GBSA solvation                  false          :
          :  PC potential                    false          :
          :  electronic temp.          300.0000000     K    :
          :  accuracy                    1.0000000          :
          :  -> integral cutoff          0.2500000E+02      :
          :  -> integral neglect         0.1000000E-07      :
          :  -> SCF convergence          0.1000000E-05 Eh   :
          :  -> wf. convergence          0.1000000E-03 e    :
          :  Broyden damping             0.4000000          :
          ...................................................

 iter      E             dE          RMSdq      gap      omega  full diag
   1   -212.6819283 -0.212682E+03  0.350E-01    1.18       0.0  T
   2   -212.6881681 -0.623977E-02  0.266E-01    1.03       1.0  T
   3   -212.6915364 -0.336826E-02  0.162E-01    1.13       1.0  T
   4   -212.6928439 -0.130753E-02  0.909E-02    1.09       1.0  T
   5   -212.6930645 -0.220591E-03  0.459E-02    1.09       1.0  T
   6   -212.6932561 -0.191570E-03  0.148E-02    1.10       1.0  T
   7   -212.6932952 -0.391151E-04  0.573E-03    1.10       1.5  T
   8   -212.6932972 -0.201210E-05  0.331E-03    1.10       2.5  T
   9   -212.6932983 -0.107712E-05  0.126E-03    1.10       6.7  T
  10   -212.6932985 -0.205284E-06  0.415E-04    1.10      20.3  T
  11   -212.6932985 -0.103282E-07  0.199E-04    1.10      42.3  T

   *** convergence criteria satisfied after 11 iterations ***

         #    Occupation            Energy/Eh            Energy/eV
      -------------------------------------------------------------
         1        2.0000           -0.4345840             -11.8256
       ...           ...                  ...                  ...
       186        2.0000           -0.1075989              -2.9279
       187        2.0000           -0.1006632              -2.7392
       188        2.0000           -0.1000123              -2.7215
       189        2.0000           -0.0987315              -2.6866
       190        2.0000           -0.0962089              -2.6180
       191        2.0000           -0.0635136              -1.7283
       192        2.0000           -0.0623892              -1.6977 (HOMO)
       193                         -0.0220271              -0.5994 (LUMO)
       194                         -0.0218338              -0.5941
       195                          0.0216306               0.5886
       196                          0.0251915               0.6855
       197                          0.0325630               0.8861
       ...                                ...                  ...
       366                          0.9920537              26.9952
      -------------------------------------------------------------
                  HL-Gap            0.0403620 Eh            1.0983 eV
             Fermi-level           -0.0423633 Eh           -1.1528 eV

 SCC (total)                   0 d,  0 h,  0 min,  1.300 sec
 SCC setup                      ...        0 min,  0.001 sec (  0.043%)
 Dispersion                     ...        0 min,  0.003 sec (  0.251%)
 classical contributions        ...        0 min,  0.001 sec (  0.040%)
 integral evaluation            ...        0 min,  0.009 sec (  0.729%)
 iterations                     ...        0 min,  1.225 sec ( 94.193%)
 molecular gradient             ...        0 min,  0.060 sec (  4.633%)
 printout                       ...        0 min,  0.001 sec (  0.108%)

         :::::::::::::::::::::::::::::::::::::::::::::::::::::
         ::                     SUMMARY                     ::
         :::::::::::::::::::::::::::::::::::::::::::::::::::::
         :: total energy            -209.586619566681 Eh    ::
         :: gradient norm              0.000602207981 Eh/a0 ::
         :: HOMO-LUMO gap              1.098306831099 eV    ::
         ::.................................................::
         :: SCC energy              -212.693298471562 Eh    ::
         :: -> isotropic ES            0.739395907365 Eh    ::
         :: -> anisotropic ES          0.042343912360 Eh    ::
         :: -> anisotropic XC          0.066665955340 Eh    ::
         :: -> dispersion             -0.209267645746 Eh    ::
         :: repulsion energy           3.103247085756 Eh    ::
         :: add. restraining           0.000000000000 Eh    ::
         :: total charge              -3.000054437665 e     ::
         :::::::::::::::::::::::::::::::::::::::::::::::::::::

           -------------------------------------------------
          |                Property Printout                |
           -------------------------------------------------

    * Orbital Energies and Occupations

         #    Occupation            Energy/Eh            Energy/eV
      -------------------------------------------------------------
         1        2.0000           -0.4345840             -11.8256
       ...           ...                  ...                  ...
       180        2.0000           -0.1245018              -3.3879
       181        2.0000           -0.1160697              -3.1584
       182        2.0000           -0.1141609              -3.1065
       183        2.0000           -0.1127340              -3.0676
       184        2.0000           -0.1110810              -3.0227
       185        2.0000           -0.1089685              -2.9652
       186        2.0000           -0.1075989              -2.9279
       187        2.0000           -0.1006632              -2.7392
       188        2.0000           -0.1000123              -2.7215
       189        2.0000           -0.0987315              -2.6866
       190        2.0000           -0.0962089              -2.6180
       191        2.0000           -0.0635136              -1.7283
       192        2.0000           -0.0623892              -1.6977 (HOMO)
       193                         -0.0220271              -0.5994 (LUMO)
       194                         -0.0218338              -0.5941
       195                          0.0216306               0.5886
       196                          0.0251915               0.6855
       197                          0.0325630               0.8861
       198                          0.0329718               0.8972
       199                          0.0401236               1.0918
       200                          0.0406740               1.1068
       201                          0.0519099               1.4125
       202                          0.0539205               1.4673
       203                          0.0832750               2.2660
       ...                                ...                  ...
       366                          0.9920537              26.9952
      -------------------------------------------------------------
                  HL-Gap            0.0403620 Eh            1.0983 eV
             Fermi-level           -0.0423633 Eh           -1.1528 eV

     #   Z          covCN         q      C6AA      α(0)
     1   6 C        2.933    -0.071    29.770     8.948
     2   6 C        2.867     0.157    24.608     8.131
     3   6 C        2.967    -0.014    28.347     8.733
     4   6 C        2.981    -0.045    29.116     8.851
     5   6 C        2.945    -0.050    29.230     8.867
     6   6 C        2.967    -0.019    28.477     8.753
     7   6 C        2.968    -0.024    28.612     8.774
     8   6 C        2.987    -0.015    28.386     8.740
     9   6 C        2.979    -0.038    28.939     8.824
    10   6 C        2.848     0.197    23.817     7.998
    11   6 C        2.982    -0.013    28.337     8.732
    12   6 C        2.983    -0.047    29.153     8.857
    13   6 C        2.842     0.195    23.855     8.004
    14   6 C        2.979    -0.040    28.983     8.831
    15   6 C        2.933    -0.038    28.937     8.822
    16   6 C        2.967    -0.032    28.797     8.802
    17   6 C        2.935    -0.034    28.845     8.808
    18   6 C        2.894     0.168    24.375     8.095
    19   6 C        2.930    -0.082    30.060     8.991
    20   6 C        2.969    -0.021    28.527     8.761
    21   6 C        2.934    -0.053    29.317     8.880
    22   8 O        1.614    -0.479    22.466     6.397
    23   8 O        1.633    -0.438    21.609     6.275
    24   5 B        3.256     0.632    13.195     6.058
    25   6 C        2.932    -0.079    29.973     8.979
    26   6 C        2.898     0.169    24.366     8.093
    27   6 C        2.985    -0.012    28.317     8.729
    28   6 C        2.983    -0.047    29.165     8.859
    29   6 C        2.931    -0.056    29.392     8.891
    30   6 C        2.969    -0.021    28.532     8.762
    31   6 C        2.969    -0.024    28.607     8.773
    32   6 C        2.988    -0.015    28.383     8.739
    33   6 C        2.979    -0.040    28.977     8.830
    34   6 C        2.967    -0.013    28.337     8.732
    35   6 C        2.981    -0.045    29.102     8.849
    36   6 C        2.848     0.197    23.806     7.997
    37   6 C        2.979    -0.038    28.936     8.824
    38   6 C        2.934    -0.034    28.844     8.808
    39   6 C        2.967    -0.032    28.794     8.802
    40   6 C        2.933    -0.038    28.937     8.822
    41   6 C        2.864     0.157    24.593     8.129
    42   6 C        2.933    -0.072    29.787     8.951
    43   6 C        2.967    -0.020    28.492     8.755
    44   6 C        2.945    -0.049    29.227     8.867
    45   8 O        1.614    -0.477    22.420     6.391
    46   8 O        1.633    -0.437    21.595     6.273
    47   6 C        2.841     0.194    23.862     8.005
    48   8 O        0.857    -0.520    24.243     6.601
    49   8 O        0.857    -0.525    24.353     6.616
    50   8 O        0.857    -0.522    24.273     6.605
    51   8 O        0.857    -0.526    24.367     6.618
    52   6 C        3.903     0.026    20.077     6.369
    53   6 C        3.761    -0.100    22.459     6.756
    54   6 C        3.762    -0.098    22.421     6.750
    55   6 C        3.760    -0.096    22.385     6.745
    56   6 C        3.902     0.026    20.075     6.369
    57   6 C        3.761    -0.097    22.403     6.747
    58   6 C        3.762    -0.097    22.404     6.747
    59   6 C        3.760    -0.098    22.422     6.750
    60   6 C        3.902     0.025    20.099     6.373
    61   6 C        3.761    -0.097    22.396     6.746
    62   6 C        3.760    -0.096    22.389     6.745
    63   6 C        3.761    -0.096    22.388     6.745
    64   6 C        3.903     0.026    20.083     6.370
    65   6 C        3.760    -0.096    22.372     6.743
    66   6 C        3.762    -0.099    22.442     6.753
    67   6 C        3.760    -0.096    22.388     6.745
    68   6 C        3.903     0.026    20.081     6.370
    69   6 C        3.760    -0.096    22.386     6.745
    70   6 C        3.762    -0.098    22.423     6.750
    71   6 C        3.760    -0.096    22.378     6.744
    72   6 C        3.902     0.025    20.099     6.373
    73   6 C        3.761    -0.096    22.388     6.745
    74   6 C        3.760    -0.097    22.390     6.746
    75   6 C        3.761    -0.097    22.396     6.746
    76   1 H        0.924     0.006     2.950     2.686
    77   1 H        0.925     0.030     2.592     2.518
    78   1 H        0.925     0.033     2.545     2.495
    79   1 H        0.924     0.006     2.956     2.689
    80   1 H        0.925     0.036     2.497     2.471
    81   1 H        0.925     0.042     2.428     2.437
    82   1 H        0.924     0.007     2.946     2.684
    83   1 H        0.925     0.032     2.564     2.504
    84   1 H        0.925     0.030     2.588     2.516
    85   1 H        0.924     0.009     2.912     2.669
    86   1 H        0.925     0.027     2.630     2.536
    87   1 H        0.925     0.047     2.354     2.400
    88   1 H        0.924     0.008     2.922     2.673
    89   1 H        0.925     0.033     2.547     2.496
    90   1 H        0.925     0.022     2.703     2.571
    91   1 H        0.924     0.008     2.918     2.671
    92   1 H        0.925     0.038     2.479     2.462
    93   1 H        0.925     0.033     2.544     2.494
    94   1 H        0.924     0.006     2.957     2.689
    95   1 H        0.925     0.025     2.666     2.553
    96   1 H        0.925     0.036     2.500     2.473
    97   1 H        0.924     0.006     2.962     2.691
    98   1 H        0.925     0.032     2.563     2.503
    99   1 H        0.925     0.032     2.559     2.502
   100   1 H        0.924     0.006     2.958     2.690
   101   1 H        0.925     0.037     2.484     2.465
   102   1 H        0.925     0.026     2.648     2.545
   103   1 H        0.924     0.008     2.925     2.675
   104   1 H        0.925     0.036     2.503     2.474
   105   1 H        0.925     0.033     2.548     2.496
   106   1 H        0.924     0.009     2.913     2.669
   107   1 H        0.925     0.031     2.574     2.509
   108   1 H        0.925     0.023     2.684     2.562
   109   1 H        0.924     0.009     2.912     2.669
   110   1 H        0.925     0.034     2.535     2.490
   111   1 H        0.925     0.048     2.346     2.395
   112   1 H        0.924     0.007     2.936     2.679
   113   1 H        0.925     0.022     2.708     2.574
   114   1 H        0.925     0.045     2.379     2.412
   115   1 H        0.924     0.007     2.947     2.685
   116   1 H        0.925     0.031     2.578     2.511
   117   1 H        0.925     0.028     2.619     2.531
   118   1 H        0.924     0.007     2.932     2.678
   119   1 H        0.925     0.050     2.315     2.379
   120   1 H        0.925     0.025     2.659     2.550
   121   1 H        0.924     0.006     2.959     2.690
   122   1 H        0.925     0.037     2.483     2.464
   123   1 H        0.925     0.026     2.649     2.545
   124   1 H        0.924     0.006     2.957     2.689
   125   1 H        0.925     0.024     2.668     2.554
   126   1 H        0.925     0.036     2.499     2.472
   127   1 H        0.924     0.006     2.962     2.692
   128   1 H        0.925     0.032     2.561     2.502
   129   1 H        0.925     0.032     2.562     2.503
   130   1 H        0.926     0.029     2.603     2.523
   131   1 H        0.925     0.022     2.708     2.573
   132   1 H        0.925     0.026     2.648     2.544
   133   1 H        0.926     0.051     2.304     2.374
   134   1 H        0.925     0.020     2.730     2.584
   135   1 H        0.926     0.063     2.165     2.301
   136   1 H        0.926     0.050     2.321     2.382
   137   1 H        0.925     0.025     2.655     2.548
   138   1 H        0.925     0.021     2.714     2.576
   139   1 H        0.926     0.029     2.601     2.522
   140   1 H        0.926     0.026     2.637     2.540
   141   1 H        0.926     0.054     2.268     2.355

 Mol. C6AA /au·bohr⁶  :     233123.918597
 Mol. C8AA /au·bohr⁸  :    5580851.796751
 Mol. α(0) /au        :        749.858994


Wiberg/Mayer (AO) data.
largest (>0.10) Wiberg bond orders for each atom

 ---------------------------------------------------------------------------
     #   Z sym  total        # sym  WBO       # sym  WBO       # sym  WBO
 ---------------------------------------------------------------------------
     1   6 C    3.967 --     2 C    1.426     6 C    1.357   133 H    0.948
     2   6 C    3.935 --     1 C    1.426     3 C    1.254    22 O    1.062
     3   6 C    3.978 --     4 C    1.278     2 C    1.254     7 C    1.188
     4   6 C    3.976 --     5 C    1.338     3 C    1.278    10 C    1.113
     5   6 C    3.982 --     6 C    1.463     4 C    1.338   132 H    0.959
     6   6 C    3.966 --     5 C    1.463     1 C    1.357    52 C    0.975
     7   6 C    3.977 --     8 C    1.321    11 C    1.189     3 C    1.188
     8   6 C    3.985 --     7 C    1.321     9 C    1.214    14 C    1.213
     9   6 C    3.982 --    17 C    1.417     8 C    1.214    10 C    1.098
    10   6 C    3.941 --    50 O    1.571     4 C    1.113     9 C    1.098
    11   6 C    3.976 --    12 C    1.275    18 C    1.251     7 C    1.189
    12   6 C    3.975 --    21 C    1.333    11 C    1.275    13 C    1.121
    13   6 C    3.937 --    51 O    1.563    12 C    1.121    14 C    1.098
    14   6 C    3.980 --    15 C    1.410     8 C    1.213    13 C    1.098
    15   6 C    3.985 --    14 C    1.410    16 C    1.403   130 H    0.961
    16   6 C    3.963 --    15 C    1.403    17 C    1.391    60 C    0.974
    17   6 C    3.985 --     9 C    1.417    16 C    1.391   131 H    0.960
    18   6 C    3.936 --    19 C    1.409    11 C    1.251    23 O    1.072
    19   6 C    3.965 --    18 C    1.409    20 C    1.357   135 H    0.942
    20   6 C    3.970 --    21 C    1.461    19 C    1.357    56 C    0.975
    21   6 C    3.981 --    20 C    1.461    12 C    1.333   134 H    0.960
    22   8 O    2.026 --     2 C    1.062    24 B    0.742
    23   8 O    2.106 --    18 C    1.072    24 B    0.817
    24   5 B    3.292 --    46 O    0.817    23 O    0.817    22 O    0.742
                            45 O    0.741
    25   6 C    3.965 --    26 C    1.423    30 C    1.339   141 H    0.943
    26   6 C    3.937 --    25 C    1.423    27 C    1.242    46 O    1.071
    27   6 C    3.976 --    28 C    1.281    26 C    1.242    31 C    1.190
    28   6 C    3.974 --    29 C    1.320    27 C    1.281    47 C    1.124
    29   6 C    3.981 --    30 C    1.477    28 C    1.320   140 H    0.962
    30   6 C    3.969 --    29 C    1.477    25 C    1.339    64 C    0.976
    31   6 C    3.977 --    32 C    1.319    27 C    1.190    34 C    1.188
    32   6 C    3.985 --    31 C    1.319    37 C    1.215    33 C    1.214
    33   6 C    3.980 --    40 C    1.411    32 C    1.214    47 C    1.095
    34   6 C    3.977 --    35 C    1.280    41 C    1.252    31 C    1.188
    35   6 C    3.975 --    44 C    1.338    34 C    1.280    36 C    1.111
    36   6 C    3.941 --    48 O    1.574    35 C    1.111    37 C    1.097
    37   6 C    3.982 --    38 C    1.416    32 C    1.215    36 C    1.097
    38   6 C    3.985 --    37 C    1.416    39 C    1.392   138 H    0.960
    39   6 C    3.963 --    40 C    1.403    38 C    1.392    72 C    0.974
    40   6 C    3.985 --    33 C    1.411    39 C    1.403   139 H    0.961
    41   6 C    3.940 --    42 C    1.427    34 C    1.252    45 O    1.064
    42   6 C    3.966 --    41 C    1.427    43 C    1.357   136 H    0.947
    43   6 C    3.965 --    44 C    1.463    42 C    1.357    68 C    0.975
    44   6 C    3.981 --    43 C    1.463    35 C    1.338   137 H    0.959
    45   8 O    2.029 --    41 C    1.064    24 B    0.741
    46   8 O    2.107 --    26 C    1.071    24 B    0.817
    47   6 C    3.940 --    49 O    1.564    28 C    1.124    33 C    1.095
    48   8 O    1.868 --    36 C    1.574
    49   8 O    1.859 --    47 C    1.564
    50   8 O    1.867 --    10 C    1.571
    51   8 O    1.859 --    13 C    1.563
    52   6 C    3.988 --    53 C    1.000    54 C    0.990    55 C    0.988
                             6 C    0.975
    53   6 C    3.996 --    52 C    1.000   109 H    0.985   111 H    0.984
                           110 H    0.981
    54   6 C    3.996 --    52 C    0.990   104 H    0.987   103 H    0.986
                           105 H    0.984
    55   6 C    3.996 --    52 C    0.988   108 H    0.988   106 H    0.986
                           107 H    0.985
    56   6 C    3.987 --    59 C    1.000    57 C    0.990    58 C    0.989
                            20 C    0.975
    57   6 C    3.996 --    56 C    0.990    82 H    0.986    84 H    0.985
                            83 H    0.984
    58   6 C    3.996 --    56 C    0.989    77 H    0.987    76 H    0.986
                            78 H    0.985
    59   6 C    3.996 --    56 C    1.000    79 H    0.986    81 H    0.984
                            80 H    0.983
    60   6 C    3.985 --    62 C    0.999    61 C    0.990    63 C    0.990
                            16 C    0.974
    61   6 C    3.995 --    60 C    0.990   123 H    0.988   121 H    0.986
                           122 H    0.984
    62   6 C    3.997 --    60 C    0.999   127 H    0.986   128 H    0.986
                           129 H    0.985
    63   6 C    3.995 --    60 C    0.990   125 H    0.988   124 H    0.986
                           126 H    0.984
    64   6 C    3.987 --    67 C    0.998    65 C    0.990    66 C    0.990
                            30 C    0.976
    65   6 C    3.995 --    64 C    0.990   112 H    0.986   113 H    0.985
                           114 H    0.982
    66   6 C    3.994 --    64 C    0.990   120 H    0.987   118 H    0.986
                           119 H    0.982
    67   6 C    3.997 --    64 C    0.998   115 H    0.986   116 H    0.986
                           117 H    0.986
    68   6 C    3.987 --    71 C    1.000    69 C    0.990    70 C    0.989
                            43 C    0.975
    69   6 C    3.996 --    68 C    0.990    90 H    0.988    88 H    0.986
                            89 H    0.984
    70   6 C    3.996 --    68 C    0.989    92 H    0.987    91 H    0.986
                            93 H    0.985
    71   6 C    3.996 --    68 C    1.000    85 H    0.986    87 H    0.983
                            86 H    0.983
    72   6 C    3.985 --    74 C    0.999    75 C    0.990    73 C    0.990
                            39 C    0.974
    73   6 C    3.995 --    72 C    0.990    95 H    0.988    94 H    0.986
                            96 H    0.984
    74   6 C    3.997 --    72 C    0.999    97 H    0.986    98 H    0.986
                            99 H    0.985
    75   6 C    3.995 --    72 C    0.990   102 H    0.988   100 H    0.986
                           101 H    0.984
    76   1 H    0.999 --    58 C    0.986
    77   1 H    0.999 --    58 C    0.987
    78   1 H    0.999 --    58 C    0.985
    79   1 H    0.999 --    59 C    0.986
    80   1 H    0.999 --    59 C    0.983
    81   1 H    0.998 --    59 C    0.984
    82   1 H    0.999 --    57 C    0.986
    83   1 H    0.999 --    57 C    0.984
    84   1 H    0.999 --    57 C    0.985
    85   1 H    0.999 --    71 C    0.986
    86   1 H    0.999 --    71 C    0.983
    87   1 H    0.998 --    71 C    0.983
    88   1 H    0.999 --    69 C    0.986
    89   1 H    0.999 --    69 C    0.984
    90   1 H    1.000 --    69 C    0.988
Note: The following floating-point exceptions are signalling: IEEE_UNDERFLOW_FLAG
normal termination of xtb
    91   1 H    0.999 --    70 C    0.986
    92   1 H    0.999 --    70 C    0.987
    93   1 H    0.999 --    70 C    0.985
    94   1 H    0.999 --    73 C    0.986
    95   1 H    0.999 --    73 C    0.988
    96   1 H    0.999 --    73 C    0.984
    97   1 H    1.000 --    74 C    0.986
    98   1 H    0.999 --    74 C    0.986
    99   1 H    0.999 --    74 C    0.985
   100   1 H    0.999 --    75 C    0.986
   101   1 H    0.999 --    75 C    0.984
   102   1 H    0.999 --    75 C    0.988
   103   1 H    0.999 --    54 C    0.986
   104   1 H    0.999 --    54 C    0.987
   105   1 H    0.999 --    54 C    0.984
   106   1 H    0.999 --    55 C    0.986
   107   1 H    0.999 --    55 C    0.985
   108   1 H    0.999 --    55 C    0.988
   109   1 H    0.999 --    53 C    0.985
   110   1 H    0.999 --    53 C    0.981
   111   1 H    0.998 --    53 C    0.984
   112   1 H    0.999 --    65 C    0.986
   113   1 H    1.000 --    65 C    0.985
   114   1 H    0.998 --    65 C    0.982
   115   1 H    1.000 --    67 C    0.986
   116   1 H    0.999 --    67 C    0.986
   117   1 H    0.999 --    67 C    0.986
   118   1 H    0.999 --    66 C    0.986
   119   1 H    0.997 --    66 C    0.982
   120   1 H    0.999 --    66 C    0.987
   121   1 H    0.999 --    61 C    0.986
   122   1 H    0.999 --    61 C    0.984
   123   1 H    0.999 --    61 C    0.988
   124   1 H    0.999 --    63 C    0.986
   125   1 H    0.999 --    63 C    0.988
   126   1 H    0.999 --    63 C    0.984
   127   1 H    1.000 --    62 C    0.986
   128   1 H    0.999 --    62 C    0.986
   129   1 H    0.999 --    62 C    0.985
   130   1 H    0.999 --    15 C    0.961
   131   1 H    0.999 --    17 C    0.960
   132   1 H    0.999 --     5 C    0.959
   133   1 H    0.997 --     1 C    0.948
   134   1 H    0.999 --    21 C    0.960
   135   1 H    0.995 --    19 C    0.942
   136   1 H    0.997 --    42 C    0.947
   137   1 H    0.999 --    44 C    0.959
   138   1 H    0.999 --    38 C    0.960
   139   1 H    0.999 --    40 C    0.961
   140   1 H    0.999 --    29 C    0.962
   141   1 H    0.996 --    25 C    0.943
 ---------------------------------------------------------------------------

Topologies differ in bond orders
Writing corrected topology to xtbtopo.mol

molecular dipole:
                 x           y           z       tot (Debye)
 q only:       -0.057      -1.064       2.994
   full:       -0.064      -1.081       3.102       8.351
molecular quadrupole (traceless):
                xx          xy          yy          xz          yz          zz
 q only:     -217.116      35.404      90.018       1.897     -12.684     127.099
  q+dip:     -213.039      33.123      89.640       1.135     -11.319     123.399
   full:     -218.669      36.970      90.098       2.194     -12.946     128.571


           -------------------------------------------------
          | TOTAL ENERGY             -209.586619566681 Eh   |
          | GRADIENT NORM               0.000602207981 Eh/α |
          | HOMO-LUMO GAP               1.098306831099 eV   |
           -------------------------------------------------
########################################################################
[WARNING] Runtime exception occurred
-2- restart_readRestart: Multiplicity missmatch in restart file.
-1- restart_readRestart: Number of electron missmatch in restart file.
########################################################################

------------------------------------------------------------------------
 * finished run on 2024/11/12 at 11:20:54.285     
------------------------------------------------------------------------
 total:
 * wall-time:     0 d,  0 h,  0 min,  1.320 sec
 *  cpu-time:     0 d,  0 h,  0 min,  4.989 sec
 * ratio c/w:     3.779 speedup
 SCF:
 * wall-time:     0 d,  0 h,  0 min,  1.301 sec
 *  cpu-time:     0 d,  0 h,  0 min,  4.948 sec
 * ratio c/w:     3.804 speedup

