      -----------------------------------------------------------      
     |                   =====================                   |     
     |                           x T B                           |     
     |                   =====================                   |     
     |                         S. Grimme                         |     
     |          Mulliken Center for Theoretical Chemistry        |     
     |                    University of Bonn                     |     
      -----------------------------------------------------------      

   * xtb version 6.6.1 (8d0f1dd) compiled by 'runner@Mac-1690902418499.local' on 2023-08-01

   xtb is free software: you can redistribute it and/or modify it under
   the terms of the GNU Lesser General Public License as published by
   the Free Software Foundation, either version 3 of the License, or
   (at your option) any later version.
   
   xtb is distributed in the hope that it will be useful,
   but WITHOUT ANY WARRANTY; without even the implied warranty of
   MERCHANTABILITY or FITNESS FOR A PARTICULAR PURPOSE.  See the
   GNU Lesser General Public License for more details.
   
   Cite this work as:
   * C. Bannwarth, E. Caldeweyher, S. Ehlert, A. Hansen, P. Pracht,
     J. Seibert, S. Spicher, S. Grimme, WIREs Comput. Mol. Sci., 2020, 11,
     e01493. DOI: 10.1002/wcms.1493
   
   for GFN2-xTB:
   * C. Bannwarth, S. Ehlert and S. Grimme., J. Chem. Theory Comput., 2019,
     15, 1652-1671. DOI: 10.1021/acs.jctc.8b01176
   for GFN1-xTB:
   * S. Grimme, C. Bannwarth, P. Shushkov, J. Chem. Theory Comput., 2017,
     13, 1989-2009. DOI: 10.1021/acs.jctc.7b00118
   for GFN0-xTB:
   * P. Pracht, E. Caldeweyher, S. Ehlert, S. Grimme, ChemRxiv, 2019, preprint.
     DOI: 10.26434/chemrxiv.8326202.v1
   for GFN-FF:
   * S. Spicher and S. Grimme, Angew. Chem. Int. Ed., 2020, 59, 15665-15673.
     DOI: 10.1002/anie.202004239
   
   for ALPB and GBSA implicit solvation:
   * S. Ehlert, M. Stahn, S. Spicher, S. Grimme, J. Chem. Theory Comput.,
     2021, 17, 4250-4261. DOI: 10.1021/acs.jctc.1c00471
   
   for DFT-D4:
   * E. Caldeweyher, C. Bannwarth and S. Grimme, J. Chem. Phys., 2017,
     147, 034112. DOI: 10.1063/1.4993215
   * E. Caldeweyher, S. Ehlert, A. Hansen, H. Neugebauer, S. Spicher,
     C. Bannwarth and S. Grimme, J. Chem. Phys., 2019, 150, 154122.
     DOI: 10.1063/1.5090222
   * E. Caldeweyher, J.-M. Mewes, S. Ehlert and S. Grimme, Phys. Chem. Chem. Phys.
     2020, 22, 8499-8512. DOI: 10.1039/D0CP00502A
   
   for sTDA-xTB:
   * S. Grimme and C. Bannwarth, J. Chem. Phys., 2016, 145, 054103.
     DOI: 10.1063/1.4959605
   
   in the mass-spec context:
   * V. Asgeirsson, C. Bauer and S. Grimme, Chem. Sci., 2017, 8, 4879.
     DOI: 10.1039/c7sc00601b
   * J. Koopman and S. Grimme, ACS Omega 2019, 4, 12, 15120-15133.
     DOI: 10.1021/acsomega.9b02011
   
   for metadynamics refer to:
   * S. Grimme, J. Chem. Theory Comput., 2019, 155, 2847-2862
     DOI: 10.1021/acs.jctc.9b00143
   
   for SPH calculations refer to:
   * S. Spicher and S. Grimme, J. Chem. Theory Comput., 2021, 17, 1701-1714
     DOI: 10.1021/acs.jctc.0c01306
   
   with help from (in alphabetical order)
   P. Atkinson, C. Bannwarth, F. Bohle, G. Brandenburg, E. Caldeweyher
   M. Checinski, S. Dohm, S. Ehlert, S. Ehrlich, I. Gerasimov, C. Hölzer
   A. Katbashev, J. Koopman, C. Lavigne, S. Lehtola, F. März, M. Müller,
   F. Musil, H. Neugebauer, J. Pisarek, C. Plett, P. Pracht, F. Pultar,
   J. Seibert, P. Shushkov, S. Spicher, M. Stahn, M. Steiner, T. Strunk,
   J. Stückrath, T. Rose, and J. Unsleber
   
 * started run on 2024/11/12 at 11:51:35.908     

           -------------------------------------------------
          |                Calculation Setup                |
           -------------------------------------------------

          program call               : xtb stacked_dimer_Katherine2.mol --opt --gfn2 --chrg -6 --uhf 0 --tight
          coordinate file            : stacked_dimer_Katherine2.mol
          omp threads                :                     8

   ID    Z sym.   atoms
    1    6 C      1-21, 25-44, 47, 52-75, 142-162, 166-185, 188, 193-216
    2    8 O      22, 23, 45, 46, 48-51, 163, 164, 186, 187, 189-192
    3    5 B      24, 165
    4    1 H      76-141, 217-282

molecular fragmentation (1/2 indicates fragments):
111111111111111111111111111111111111111111111111111111111111111111111111
111111111111111111111111111111111111111111111111111111111111111111111222
222222222222222222222222222222222222222222222222222222222222222222222222
222222222222222222222222222222222222222222222222222222222222222222
# atoms in fragment 1/2:   141   141
 fragment masses (1/2) :      998.04      998.04
CMA distance (Bohr)    :  11.714
constraining FC (au)   :  0.0500
########################################################################
[WARNING] Please study the warnings concerning your input carefully
-2- prog_main: Charge in sdf/mol input was overwritten
-1- prog_main_parseArguments: Unknown option '--tight' provided
########################################################################

           -------------------------------------------------
          |                 G F N 2 - x T B                 |
           -------------------------------------------------

        Reference                      10.1021/acs.jctc.8b01176
      * Hamiltonian:
        H0-scaling (s, p, d)           1.850000    2.230000    2.230000
        zeta-weighting                 0.500000
      * Dispersion:
        s8                             2.700000
        a1                             0.520000
        a2                             5.000000
        s9                             5.000000
      * Repulsion:
        kExp                           1.500000    1.000000
        rExp                           1.000000
      * Coulomb:
        alpha                          2.000000
        third order                    shell-resolved
        anisotropic                    true
        a3                             3.000000
        a5                             4.000000
        cn-shift                       1.200000
        cn-exp                         4.000000
        max-rad                        5.000000

q/qsh data taken from xtbrestart
CAMM data taken from xtbrestart

          ...................................................
          :                      SETUP                      :
          :.................................................:
          :  # basis functions                 732          :
          :  # atomic orbitals                 732          :
          :  # shells                          432          :
          :  # electrons                       768          :
          :  max. iterations                   250          :
          :  Hamiltonian                  GFN2-xTB          :
          :  restarted?                       true          :
          :  GBSA solvation                  false          :
          :  PC potential                    false          :
          :  electronic temp.          300.0000000     K    :
          :  accuracy                    1.0000000          :
          :  -> integral cutoff          0.2500000E+02      :
          :  -> integral neglect         0.1000000E-07      :
          :  -> SCF convergence          0.1000000E-05 Eh   :
          :  -> wf. convergence          0.1000000E-03 e    :
          :  Broyden damping             0.4000000          :
          ...................................................

 iter      E             dE          RMSdq      gap      omega  full diag
   1   -424.2276880 -0.424228E+03  0.241E+00    0.38       0.0  T
   2   -424.2273461  0.341931E-03  0.148E+00    0.37       1.0  T
   3   -423.8569741  0.370372E+00  0.106E+00    0.72       1.0  T
   4   -424.2934962 -0.436522E+00  0.244E-01    0.62       1.0  T
   5   -424.3110402 -0.175440E-01  0.927E-02    0.53       1.0  T
   6   -424.3118805 -0.840292E-03  0.557E-02    0.53       1.0  T
   7   -424.3124623 -0.581828E-03  0.270E-02    0.52       1.0  T
   8   -424.3125763 -0.113970E-03  0.140E-02    0.52       1.0  T
   9   -424.3126285 -0.521790E-04  0.605E-03    0.52       1.0  T
  10   -424.3126368 -0.829356E-05  0.286E-03    0.52       2.1  T
  11   -424.3126382 -0.139082E-05  0.143E-03    0.52       4.2  T
  12   -424.3126387 -0.505746E-06  0.757E-04    0.52       7.9  T
  13   -424.3126388 -0.104661E-06  0.415E-04    0.52      14.3  T

   *** convergence criteria satisfied after 13 iterations ***

         #    Occupation            Energy/Eh            Energy/eV
      -------------------------------------------------------------
         1        2.0000           -0.2959578              -8.0534
       ...           ...                  ...                  ...
       378        2.0000            0.0792733               2.1571
       379        2.0000            0.0822216               2.2374
       380        2.0000            0.0850277               2.3137
       381        2.0000            0.1065901               2.9005
       382        2.0000            0.1138262               3.0974
       383        2.0000            0.1154063               3.1404
       384        1.9999            0.1201105               3.2684 (HOMO)
       385        0.0001            0.1392764               3.7899 (LUMO)
       386        0.0000            0.1440539               3.9199
       387                          0.1466093               3.9894
       388                          0.1481470               4.0313
       389                          0.1786214               4.8605
       ...                                ...                  ...
       732                          1.2180646              33.1452
      -------------------------------------------------------------
                  HL-Gap            0.0191659 Eh            0.5215 eV
             Fermi-level            0.1296941 Eh            3.5292 eV

 SCC (total)                   0 d,  0 h,  0 min,  4.255 sec
 SCC setup                      ...        0 min,  0.002 sec (  0.045%)
 Dispersion                     ...        0 min,  0.008 sec (  0.178%)
 classical contributions        ...        0 min,  0.002 sec (  0.039%)
 integral evaluation            ...        0 min,  0.036 sec (  0.841%)
 iterations                     ...        0 min,  3.804 sec ( 89.387%)
 molecular gradient             ...        0 min,  0.387 sec (  9.105%)
 printout                       ...        0 min,  0.017 sec (  0.405%)

         :::::::::::::::::::::::::::::::::::::::::::::::::::::
         ::                     SUMMARY                     ::
         :::::::::::::::::::::::::::::::::::::::::::::::::::::
         :: total energy            -418.247397285302 Eh    ::
         :: gradient norm              0.444043301254 Eh/a0 ::
         :: HOMO-LUMO gap              0.521529616401 eV    ::
         ::.................................................::
         :: SCC energy              -424.312638767836 Eh    ::
         :: -> isotropic ES            1.931733326224 Eh    ::
         :: -> anisotropic ES          0.092890643277 Eh    ::
         :: -> anisotropic XC          0.140099416304 Eh    ::
         :: -> dispersion             -0.476060687429 Eh    ::
         :: repulsion energy           6.028316797412 Eh    ::
         :: add. restraining           0.000000000000 Eh    ::
         :: total charge              -6.000028027844 e     ::
         :::::::::::::::::::::::::::::::::::::::::::::::::::::

      ----------------------------------------------------------- 
     |                   =====================                   |
     |                        A N C O P T                        |
     |                   =====================                   |
     |               Approximate Normal Coordinate               |
     |                Rational Function Optimizer                |
      ----------------------------------------------------------- 

          ...................................................
          :                      SETUP                      :
          :.................................................:
          :   optimization level            normal          :
          :   max. optcycles                   846          :
          :   ANC micro-cycles                  20          :
          :   degrees of freedom               840          :
          :.................................................:
          :   RF solver                   davidson          :
          :   write xtbopt.log                true          :
          :   linear?                        false          :
          :   energy convergence         0.5000000E-05 Eh   :
          :   grad. convergence          0.1000000E-02 Eh/α :
          :   maxmium RF displ.          1.0000000          :
          :   Hlow (freq-cutoff)         0.1000000E-01      :
          :   Hmax (freq-cutoff)         5.0000000          :
          :   S6 in model hess.         20.0000000          :
          ...................................................

generating ANC from model Hessian ...
Using Lindh-Hessian (1995)
 Shifting diagonal of input Hessian by    1.3716123163233214E-002
 Lowest  eigenvalues of input Hessian
    0.010000    0.010628    0.013277    0.013665    0.013673    0.013701
    0.000000    0.000000    0.000000    0.000000    0.000000    0.000000
    0.013750    0.013758    0.013808    0.013830    0.013864    0.013895
 Highest eigenvalues
    2.223715    2.232555    2.235221    2.257961    2.293406    2.352036


........................................................................
.............................. CYCLE    1 ..............................
........................................................................

 iter      E             dE          RMSdq      gap      omega  full diag
   1   -424.3126388 -0.424313E+03  0.186E-04    0.52       0.0  T
   2   -424.3126388  0.112132E-07  0.213E-04    0.52      27.9  T
   3   -424.3126388 -0.220031E-07  0.701E-05    0.52      85.0  T
     SCC iter.                  ...        0 min,  0.628 sec
     gradient                   ...        0 min,  0.390 sec
 * total energy  :  -418.2473973 Eh     change       -0.3942648E-07 Eh
   gradient norm :     0.4440209 Eh/α   predicted     0.0000000E+00 (-100.00%)
   displ. norm   :     0.6101961 α      lambda       -0.2186793E+00
   maximum displ.:     0.1309963 α      in ANC's #588, #585, #581, ...

........................................................................
.............................. CYCLE    2 ..............................
........................................................................

 iter      E             dE          RMSdq      gap      omega  full diag
   1   -424.4641742 -0.424464E+03  0.227E-01    0.56       0.0  T
   2   -424.4600771  0.409706E-02  0.229E-01    0.74       1.0  T
   3   -424.4757052 -0.156281E-01  0.939E-02    0.64       1.0  T
   4   -424.4747629  0.942339E-03  0.591E-02    0.66       1.0  T
   5   -424.4760560 -0.129320E-02  0.171E-02    0.65       1.0  T
   6   -424.4761701 -0.114061E-03  0.619E-03    0.65       1.0  T
   7   -424.4761801 -0.995882E-05  0.345E-03    0.65       1.7  T
   8   -424.4761820 -0.191261E-05  0.179E-03    0.65       3.3  T
   9   -424.4761827 -0.705891E-06  0.726E-04    0.65       8.2  T
  10   -424.4761828 -0.152934E-06  0.301E-04    0.65      19.8  T
     SCC iter.                  ...        0 min,  2.168 sec
     gradient                   ...        0 min,  0.388 sec
 * total energy  :  -418.4150533 Eh     change       -0.1676560E+00 Eh
   gradient norm :     0.2209757 Eh/α   predicted    -0.1501174E+00 ( -10.46%)
   displ. norm   :     0.6342401 α      lambda       -0.1126204E+00
   maximum displ.:     0.1202522 α      in ANC's #203, #588, #585, ...

........................................................................
.............................. CYCLE    3 ..............................
........................................................................

 iter      E             dE          RMSdq      gap      omega  full diag
   1   -424.6248711 -0.424625E+03  0.190E-01    0.70       0.0  T
   2   -424.6239839  0.887197E-03  0.169E-01    0.82       1.0  T
   3   -424.6303872 -0.640323E-02  0.820E-02    0.75       1.0  T
   4   -424.6300428  0.344381E-03  0.479E-02    0.77       1.0  T
   5   -424.6310222 -0.979384E-03  0.109E-02    0.76       1.0  T
   6   -424.6310646 -0.424480E-04  0.425E-03    0.76       1.4  T
   7   -424.6310686 -0.402838E-05  0.240E-03    0.76       2.5  T
   8   -424.6310694 -0.773758E-06  0.117E-03    0.76       5.1  T
   9   -424.6310697 -0.315609E-06  0.500E-04    0.76      11.9  T
  10   -424.6310698 -0.706974E-07  0.211E-04    0.76      28.2  T
     SCC iter.                  ...        0 min,  1.888 sec
     gradient                   ...        0 min,  0.400 sec
 * total energy  :  -418.4946572 Eh     change       -0.7960391E-01 Eh
   gradient norm :     0.0785097 Eh/α   predicted    -0.7896154E-01 (  -0.81%)
   displ. norm   :     0.6793611 α      lambda       -0.4533378E-01
   maximum displ.:     0.1435734 α      in ANC's #203, #14, #3, ...

........................................................................
.............................. CYCLE    4 ..............................
........................................................................

 iter      E             dE          RMSdq      gap      omega  full diag
   1   -424.7202132 -0.424720E+03  0.144E-01    0.80       0.0  T
   2   -424.7202188 -0.555068E-05  0.927E-02    0.83       1.0  T
   3   -424.7185934  0.162533E-02  0.711E-02    0.79       1.0  T
   4   -424.7206789 -0.208549E-02  0.191E-02    0.82       1.0  T
   5   -424.7208495 -0.170569E-03  0.383E-03    0.81       1.6  T
   6   -424.7208529 -0.342569E-05  0.202E-03    0.81       3.0  T
   7   -424.7208533 -0.378941E-06  0.122E-03    0.81       4.9  T
   8   -424.7208537 -0.351760E-06  0.449E-04    0.81      13.3  T
   9   -424.7208537 -0.517829E-07  0.216E-04    0.81      27.6  T
     SCC iter.                  ...        0 min,  2.085 sec
     gradient                   ...        0 min,  0.388 sec
 * total energy  :  -418.5298291 Eh     change       -0.3517190E-01 Eh
   gradient norm :     0.0474390 Eh/α   predicted    -0.3312847E-01 (  -5.81%)
   displ. norm   :     0.7578883 α      lambda       -0.2766348E-01
   maximum displ.:     0.1947073 α      in ANC's #14, #3, #20, ...

........................................................................
.............................. CYCLE    5 ..............................
........................................................................

 iter      E             dE          RMSdq      gap      omega  full diag
   1   -424.7836848 -0.424784E+03  0.109E-01    0.84       0.0  T
   2   -424.7837270 -0.421818E-04  0.651E-02    0.84       1.0  T
   3   -424.7830303  0.696757E-03  0.411E-02    0.84       1.0  T
   4   -424.7837680 -0.737777E-03  0.101E-02    0.84       1.0  T
   5   -424.7838220 -0.539850E-04  0.225E-03    0.84       2.7  T
   6   -424.7838229 -0.900120E-06  0.119E-03    0.84       5.0  T
   7   -424.7838230 -0.756224E-07  0.650E-04    0.84       9.2  T
   8   -424.7838231 -0.735017E-07  0.303E-04    0.84      19.7  T
     SCC iter.                  ...        0 min,  1.986 sec
     gradient                   ...        0 min,  0.413 sec
 * total energy  :  -418.5528451 Eh     change       -0.2301599E-01 Eh
   gradient norm :     0.0337498 Eh/α   predicted    -0.2177662E-01 (  -5.38%)
   displ. norm   :     0.8230992 α      lambda       -0.2074802E-01
   maximum displ.:     0.2276063 α      in ANC's #14, #3, #20, ...

........................................................................
.............................. CYCLE    6 ..............................
........................................................................

 iter      E             dE          RMSdq      gap      omega  full diag
   1   -424.8228549 -0.424823E+03  0.841E-02    0.85       0.0  T
   2   -424.8228640 -0.909850E-05  0.502E-02    0.84       1.0  T
   3   -424.8222822  0.581778E-03  0.391E-02    0.86       1.0  T
   4   -424.8229348 -0.652588E-03  0.780E-03    0.84       1.0  T
   5   -424.8229646 -0.297473E-04  0.197E-03    0.85       3.0  T
   6   -424.8229654 -0.836902E-06  0.106E-03    0.85       5.6  T
   7   -424.8229655 -0.117051E-06  0.615E-04    0.85       9.7  T
   8   -424.8229656 -0.943572E-07  0.248E-04    0.85      24.0  T
     SCC iter.                  ...        0 min,  1.981 sec
     gradient                   ...        0 min,  0.388 sec
 * total energy  :  -418.5710342 Eh     change       -0.1818906E-01 Eh
   gradient norm :     0.0251395 Eh/α   predicted    -0.1740233E-01 (  -4.33%)
   displ. norm   :     0.8792018 α      lambda       -0.1783129E-01
   maximum displ.:     0.2521454 α      in ANC's #14, #3, #20, ...

........................................................................
.............................. CYCLE    7 ..............................
........................................................................

 iter      E             dE          RMSdq      gap      omega  full diag
   1   -424.8523369 -0.424852E+03  0.699E-02    0.86       0.0  T
   2   -424.8523417 -0.478935E-05  0.416E-02    0.85       1.0  T
   3   -424.8519135  0.428186E-03  0.332E-02    0.86       1.0  T
   4   -424.8523978 -0.484322E-03  0.649E-03    0.85       1.0  T
   5   -424.8524173 -0.194486E-04  0.184E-03    0.85       3.2  T
   6   -424.8524180 -0.676156E-06  0.943E-04    0.85       6.3  T
   7   -424.8524181 -0.130937E-06  0.497E-04    0.85      12.0  T
     SCC iter.                  ...        0 min,  1.355 sec
     gradient                   ...        0 min,  0.377 sec
 * total energy  :  -418.5869623 Eh     change       -0.1592814E-01 Eh
   gradient norm :     0.0224611 Eh/α   predicted    -0.1580744E-01 (  -0.76%)
   displ. norm   :     0.9055942 α      lambda       -0.1608351E-01
   maximum displ.:     0.2528952 α      in ANC's #14, #3, #20, ...

........................................................................
.............................. CYCLE    8 ..............................
........................................................................

 iter      E             dE          RMSdq      gap      omega  full diag
   1   -424.8640856 -0.424864E+03  0.653E-02    0.85       0.0  T
   2   -424.8640873 -0.175678E-05  0.393E-02    0.84       1.0  T
   3   -424.8636886  0.398670E-03  0.326E-02    0.86       1.0  T
   4   -424.8641574 -0.468715E-03  0.624E-03    0.85       1.0  T
   5   -424.8641748 -0.174385E-04  0.187E-03    0.85       3.2  T
   6   -424.8641756 -0.851372E-06  0.942E-04    0.85       6.3  T
   7   -424.8641758 -0.117771E-06  0.510E-04    0.85      11.7  T
     SCC iter.                  ...        0 min,  1.276 sec
     gradient                   ...        0 min,  0.388 sec
 * total energy  :  -418.6013198 Eh     change       -0.1435752E-01 Eh
   gradient norm :     0.0206274 Eh/α   predicted    -0.1463681E-01 (   1.95%)
   displ. norm   :     0.9051987 α      lambda       -0.1395442E-01
   maximum displ.:     0.2565657 α      in ANC's #3, #14, #32, ...

........................................................................
.............................. CYCLE    9 ..............................
........................................................................

 iter      E             dE          RMSdq      gap      omega  full diag
   1   -424.8756249 -0.424876E+03  0.576E-02    0.86       0.0  T
   2   -424.8756344 -0.944570E-05  0.341E-02    0.85       1.0  T
   3   -424.8753750  0.259417E-03  0.255E-02    0.86       1.0  T
   4   -424.8756670 -0.292029E-03  0.508E-03    0.85       1.2  T
   5   -424.8756781 -0.111575E-04  0.180E-03    0.85       3.3  T
   6   -424.8756790 -0.863204E-06  0.801E-04    0.85       7.4  T
   7   -424.8756791 -0.122285E-06  0.374E-04    0.85      15.9  T
     SCC iter.                  ...        0 min,  1.546 sec
     gradient                   ...        0 min,  0.384 sec
 * total energy  :  -418.6140901 Eh     change       -0.1277025E-01 Eh
   gradient norm :     0.0177447 Eh/α   predicted    -0.1269423E-01 (  -0.60%)
   displ. norm   :     0.9115545 α      lambda       -0.1213430E-01
   maximum displ.:     0.2560478 α      in ANC's #3, #32, #14, ...

........................................................................
.............................. CYCLE   10 ..............................
........................................................................

 iter      E             dE          RMSdq      gap      omega  full diag
   1   -424.8813952 -0.424881E+03  0.560E-02    0.86       0.0  T
   2   -424.8813963 -0.110663E-05  0.335E-02    0.85       1.0  T
   3   -424.8811096  0.286658E-03  0.268E-02    0.85       1.0  T
   4   -424.8814375 -0.327856E-03  0.459E-03    0.84       1.3  T
   5   -424.8814465 -0.900670E-05  0.157E-03    0.85       3.8  T
   6   -424.8814471 -0.620993E-06  0.712E-04    0.85       8.4  T
   7   -424.8814472 -0.957405E-07  0.337E-04    0.85      17.7  T
     SCC iter.                  ...        0 min,  1.961 sec
     gradient                   ...        0 min,  0.387 sec
 * total energy  :  -418.6253367 Eh     change       -0.1124659E-01 Eh
   gradient norm :     0.0149356 Eh/α   predicted    -0.1110854E-01 (  -1.23%)
   displ. norm   :     0.9162621 α      lambda       -0.1068668E-01
   maximum displ.:     0.2674424 α      in ANC's #3, #32, #14, ...

........................................................................
.............................. CYCLE   11 ..............................
........................................................................

 iter      E             dE          RMSdq      gap      omega  full diag
   1   -424.8856202 -0.424886E+03  0.541E-02    0.85       0.0  T
   2   -424.8856139  0.632563E-05  0.326E-02    0.84       1.0  T
   3   -424.8853125  0.301384E-03  0.278E-02    0.85       1.0  T
   4   -424.8856667 -0.354201E-03  0.426E-03    0.84       1.4  T
   5   -424.8856743 -0.755115E-05  0.145E-03    0.84       4.1  T
   6   -424.8856748 -0.512091E-06  0.654E-04    0.84       9.1  T
   7   -424.8856749 -0.789271E-07  0.321E-04    0.84      18.5  T
     SCC iter.                  ...        0 min,  1.262 sec
     gradient                   ...        0 min,  0.481 sec
 * total energy  :  -418.6352324 Eh     change       -0.9895728E-02 Eh
   gradient norm :     0.0134959 Eh/α   predicted    -0.9829267E-02 (  -0.67%)
   displ. norm   :     0.9173789 α      lambda       -0.9392217E-02
   maximum displ.:     0.2790937 α      in ANC's #3, #32, #20, ...

........................................................................
.............................. CYCLE   12 ..............................
........................................................................

 iter      E             dE          RMSdq      gap      omega  full diag
   1   -424.8886994 -0.424889E+03  0.529E-02    0.84       0.0  T
   2   -424.8886894  0.999386E-05  0.320E-02    0.83       1.0  T
   3   -424.8883895  0.299838E-03  0.280E-02    0.84       1.0  T
   4   -424.8887480 -0.358478E-03  0.401E-03    0.83       1.5  T
   5   -424.8887545 -0.648568E-05  0.142E-03    0.83       4.2  T
   6   -424.8887550 -0.515746E-06  0.637E-04    0.83       9.3  T
   7   -424.8887551 -0.843735E-07  0.314E-04    0.83      19.0  T
     SCC iter.                  ...        0 min,  1.741 sec
     gradient                   ...        0 min,  0.388 sec
 * total energy  :  -418.6439059 Eh     change       -0.8673517E-02 Eh
   gradient norm :     0.0116306 Eh/α   predicted    -0.8648277E-02 (  -0.29%)
   displ. norm   :     0.9179189 α      lambda       -0.8249708E-02
   maximum displ.:     0.2877016 α      in ANC's #3, #32, #20, ...

........................................................................
.............................. CYCLE   13 ..............................
........................................................................

 iter      E             dE          RMSdq      gap      omega  full diag
   1   -424.8917402 -0.424892E+03  0.505E-02    0.84       0.0  T
   2   -424.8917277  0.125096E-04  0.309E-02    0.82       1.0  T
   3   -424.8914524  0.275360E-03  0.274E-02    0.84       1.0  T
   4   -424.8917931 -0.340696E-03  0.385E-03    0.83       1.5  T
   5   -424.8917988 -0.578235E-05  0.140E-03    0.83       4.2  T
   6   -424.8917994 -0.597351E-06  0.603E-04    0.83       9.9  T
   7   -424.8917995 -0.677428E-07  0.315E-04    0.83      18.9  T
     SCC iter.                  ...        0 min,  1.623 sec
     gradient                   ...        0 min,  0.394 sec
 * total energy  :  -418.6515296 Eh     change       -0.7623722E-02 Eh
   gradient norm :     0.0109255 Eh/α   predicted    -0.7600359E-02 (  -0.31%)
   displ. norm   :     0.9169794 α      lambda       -0.7270119E-02
   maximum displ.:     0.3045061 α      in ANC's #3, #32, #20, ...

........................................................................
.............................. CYCLE   14 ..............................
........................................................................

 iter      E             dE          RMSdq      gap      omega  full diag
   1   -424.8941796 -0.424894E+03  0.486E-02    0.83       0.0  T
   2   -424.8941696  0.998179E-05  0.296E-02    0.82       1.0  T
   3   -424.8939131  0.256506E-03  0.262E-02    0.83       1.0  T
   4   -424.8942280 -0.314942E-03  0.365E-03    0.82       1.6  T
   5   -424.8942330 -0.495323E-05  0.143E-03    0.82       4.2  T
   6   -424.8942337 -0.670967E-06  0.587E-04    0.82      10.1  T
   7   -424.8942337 -0.665693E-07  0.308E-04    0.82      19.3  T
     SCC iter.                  ...        0 min,  1.354 sec
     gradient                   ...        0 min,  0.396 sec
 * total energy  :  -418.6582821 Eh     change       -0.6752493E-02 Eh
   gradient norm :     0.0090537 Eh/α   predicted    -0.6691604E-02 (  -0.90%)
   displ. norm   :     0.9198593 α      lambda       -0.6471528E-02
   maximum displ.:     0.3139178 α      in ANC's #3, #32, #5, ...

........................................................................
.............................. CYCLE   15 ..............................
........................................................................

 iter      E             dE          RMSdq      gap      omega  full diag
   1   -424.8971525 -0.424897E+03  0.471E-02    0.83       0.0  T
   2   -424.8971432  0.928652E-05  0.288E-02    0.82       1.0  T
   3   -424.8969031  0.240107E-03  0.254E-02    0.83       1.0  T
   4   -424.8972009 -0.297847E-03  0.357E-03    0.82       1.7  T
   5   -424.8972055 -0.460214E-05  0.144E-03    0.82       4.1  T
   6   -424.8972062 -0.727286E-06  0.583E-04    0.82      10.2  T
   7   -424.8972063 -0.647992E-07  0.308E-04    0.82      19.3  T
     SCC iter.                  ...        0 min,  1.445 sec
     gradient                   ...        0 min,  0.378 sec
 * total energy  :  -418.6643373 Eh     change       -0.6055199E-02 Eh
   gradient norm :     0.0085628 Eh/α   predicted    -0.5973679E-02 (  -1.35%)
   displ. norm   :     0.9236626 α      lambda       -0.5870025E-02
   maximum displ.:     0.3335422 α      in ANC's #3, #5, #32, ...

........................................................................
.............................. CYCLE   16 ..............................
........................................................................

 iter      E             dE          RMSdq      gap      omega  full diag
   1   -424.9003075 -0.424900E+03  0.461E-02    0.83       0.0  T
   2   -424.9003044  0.318167E-05  0.279E-02    0.82       1.0  T
   3   -424.9000771  0.227237E-03  0.240E-02    0.83       1.0  T
   4   -424.9003488 -0.271631E-03  0.351E-03    0.82       1.7  T
   5   -424.9003532 -0.443831E-05  0.146E-03    0.82       4.1  T
   6   -424.9003540 -0.787438E-06  0.552E-04    0.82      10.8  T
   7   -424.9003540 -0.486750E-07  0.305E-04    0.82      19.6  T
     SCC iter.                  ...        0 min,  1.572 sec
     gradient                   ...        0 min,  0.390 sec
 * total energy  :  -418.6698495 Eh     change       -0.5512159E-02 Eh
   gradient norm :     0.0075214 Eh/α   predicted    -0.5439029E-02 (  -1.33%)
   displ. norm   :     0.9325074 α      lambda       -0.5438566E-02
   maximum displ.:     0.3392965 α      in ANC's #3, #5, #34, ...

........................................................................
.............................. CYCLE   17 ..............................
........................................................................

 iter      E             dE          RMSdq      gap      omega  full diag
   1   -424.9007514 -0.424901E+03  0.475E-02    0.82       0.0  T
   2   -424.9007466  0.481125E-05  0.288E-02    0.82       1.0  T
   3   -424.9004981  0.248460E-03  0.247E-02    0.83       1.0  T
   4   -424.9007938 -0.295670E-03  0.347E-03    0.82       1.7  T
   5   -424.9007980 -0.421353E-05  0.146E-03    0.82       4.1  T
   6   -424.9007987 -0.689112E-06  0.616E-04    0.82       9.7  T
   7   -424.9007987 -0.595993E-07  0.329E-04    0.82      18.1  T
     SCC iter.                  ...        0 min,  1.391 sec
     gradient                   ...        0 min,  0.388 sec
 * total energy  :  -418.6749032 Eh     change       -0.5053696E-02 Eh
   gradient norm :     0.0102497 Eh/α   predicted    -0.5083894E-02 (   0.60%)
   displ. norm   :     0.9322515 α      lambda       -0.5199991E-02
   maximum displ.:     0.3626322 α      in ANC's #3, #5, #34, ...

........................................................................
.............................. CYCLE   18 ..............................
........................................................................

 iter      E             dE          RMSdq      gap      omega  full diag
   1   -424.9070354 -0.424907E+03  0.466E-02    0.82       0.0  T
   2   -424.9070393 -0.390382E-05  0.279E-02    0.82       1.0  T
   3   -424.9068276  0.211676E-03  0.226E-02    0.83       1.0  T
   4   -424.9070741 -0.246521E-03  0.376E-03    0.82       1.6  T
   5   -424.9070793 -0.516766E-05  0.149E-03    0.82       4.0  T
   6   -424.9070801 -0.806977E-06  0.573E-04    0.82      10.4  T
   7   -424.9070801 -0.358302E-07  0.333E-04    0.82      17.9  T
     SCC iter.                  ...        0 min,  1.509 sec
     gradient                   ...        0 min,  0.382 sec
 * total energy  :  -418.6796520 Eh     change       -0.4748859E-02 Eh
   gradient norm :     0.0098252 Eh/α   predicted    -0.4859633E-02 (   2.33%)
   displ. norm   :     0.9304703 α      lambda       -0.4763160E-02
   maximum displ.:     0.3609365 α      in ANC's #3, #5, #1, ...

........................................................................
.............................. CYCLE   19 ..............................
........................................................................

 iter      E             dE          RMSdq      gap      omega  full diag
   1   -424.9059543 -0.424906E+03  0.458E-02    0.82       0.0  T
   2   -424.9059554 -0.108951E-05  0.276E-02    0.82       1.0  T
   3   -424.9057463  0.209143E-03  0.217E-02    0.82       1.0  T
   4   -424.9059828 -0.236506E-03  0.323E-03    0.82       1.8  T
   5   -424.9059868 -0.402065E-05  0.127E-03    0.82       4.7  T
   6   -424.9059873 -0.472407E-06  0.544E-04    0.82      10.9  T
   7   -424.9059873 -0.386581E-07  0.290E-04    0.82      20.5  T
     SCC iter.                  ...        0 min,  1.355 sec
     gradient                   ...        0 min,  0.407 sec
 * total energy  :  -418.6841483 Eh     change       -0.4496221E-02 Eh
   gradient norm :     0.0076862 Eh/α   predicted    -0.4443495E-02 (  -1.17%)
   displ. norm   :     0.9402250 α      lambda       -0.4521819E-02
   maximum displ.:     0.3833511 α      in ANC's #3, #5, #1, ...

........................................................................
.............................. CYCLE   20 ..............................
........................................................................

 iter      E             dE          RMSdq      gap      omega  full diag
   1   -424.9099383 -0.424910E+03  0.451E-02    0.82       0.0  T
   2   -424.9099346  0.370376E-05  0.275E-02    0.81       1.0  T
   3   -424.9097101  0.224444E-03  0.227E-02    0.82       1.0  T
   4   -424.9099710 -0.260853E-03  0.316E-03    0.82       1.9  T
   5   -424.9099749 -0.388370E-05  0.107E-03    0.82       5.6  T
   6   -424.9099752 -0.309200E-06  0.509E-04    0.82      11.7  T
   7   -424.9099752 -0.359429E-07  0.281E-04    0.82      21.2  T
     SCC iter.                  ...        0 min,  1.283 sec
     gradient                   ...        0 min,  0.382 sec
 * total energy  :  -418.6884715 Eh     change       -0.4323238E-02 Eh
   gradient norm :     0.0081865 Eh/α   predicted    -0.4259608E-02 (  -1.47%)
   displ. norm   :     0.9473521 α      lambda       -0.4387683E-02
   maximum displ.:     0.3953459 α      in ANC's #3, #9, #1, ...
 * RMSD in coord.:     0.8729307 α      energy gain  -0.4410742E+00 Eh

generating ANC from model Hessian ...
Using Lindh-Hessian (1995)
 Shifting diagonal of input Hessian by    1.0028793734161819E-002
 Lowest  eigenvalues of input Hessian
    0.010000    0.000000    0.000000    0.000000    0.000000    0.000000
    0.000000    0.010029    0.010046    0.010062    0.010073    0.010081
    0.010102    0.010119    0.010137    0.010147    0.010168    0.010179
 Highest eigenvalues
    2.173766    2.176449    2.197550    2.208884    2.210359    2.227920


........................................................................
.............................. CYCLE   21 ..............................
........................................................................

 iter      E             dE          RMSdq      gap      omega  full diag
   1   -424.9126090 -0.424913E+03  0.448E-02    0.82       0.0  T
   2   -424.9126116 -0.261090E-05  0.270E-02    0.81       1.0  T
   3   -424.9124263  0.185216E-03  0.201E-02    0.82       1.0  T
   4   -424.9126326 -0.206288E-03  0.320E-03    0.82       1.9  T
   5   -424.9126370 -0.433642E-05  0.105E-03    0.82       5.7  T
   6   -424.9126373 -0.300615E-06  0.476E-04    0.82      12.5  T
   7   -424.9126373 -0.215881E-07  0.266E-04    0.82      22.4  T
     SCC iter.                  ...        0 min,  1.504 sec
     gradient                   ...        0 min,  0.387 sec
 * total energy  :  -418.6926667 Eh     change       -0.4195165E-02 Eh
   gradient norm :     0.0074649 Eh/α   predicted     0.0000000E+00 (-100.00%)
   displ. norm   :     0.3604060 α      lambda       -0.1650587E-02
   maximum displ.:     0.1421181 α      in ANC's #15, #14, #10, ...

........................................................................
.............................. CYCLE   22 ..............................
........................................................................

 iter      E             dE          RMSdq      gap      omega  full diag
   1   -424.9151686 -0.424915E+03  0.151E-02    0.82       0.0  T
   2   -424.9151687 -0.201387E-07  0.923E-03    0.81       1.0  T
   3   -424.9151453  0.233339E-04  0.726E-03    0.82       1.0  T
   4   -424.9151720 -0.266331E-04  0.110E-03    0.81       5.4  T
   5   -424.9151724 -0.465994E-06  0.368E-04    0.81      16.2  T
   6   -424.9151724 -0.262917E-07  0.191E-04    0.81      31.2  T
     SCC iter.                  ...        0 min,  1.119 sec
     gradient                   ...        0 min,  0.388 sec
 * total energy  :  -418.6942805 Eh     change       -0.1613849E-02 Eh
   gradient norm :     0.0055955 Eh/α   predicted    -0.9336718E-03 ( -42.15%)
   displ. norm   :     0.8977929 α      lambda       -0.3936918E-02
   maximum displ.:     0.3399890 α      in ANC's #15, #14, #10, ...

........................................................................
.............................. CYCLE   23 ..............................
........................................................................

 iter      E             dE          RMSdq      gap      omega  full diag
   1   -424.9185682 -0.424919E+03  0.383E-02    0.81       0.0  T
   2   -424.9185678  0.410140E-06  0.234E-02    0.81       1.0  T
   3   -424.9184175  0.150276E-03  0.184E-02    0.82       1.0  T
   4   -424.9185887 -0.171186E-03  0.270E-03    0.81       2.2  T
   5   -424.9185916 -0.291403E-05  0.884E-04    0.81       6.7  T
   6   -424.9185918 -0.160353E-06  0.453E-04    0.81      13.2  T
   7   -424.9185918 -0.292531E-07  0.243E-04    0.81      24.5  T
     SCC iter.                  ...        0 min,  1.169 sec
     gradient                   ...        0 min,  0.388 sec
 * total energy  :  -418.6980598 Eh     change       -0.3779314E-02 Eh
   gradient norm :     0.0051264 Eh/α   predicted    -0.3555272E-02 (  -5.93%)
   displ. norm   :     0.9505589 α      lambda       -0.3875138E-02
   maximum displ.:     0.3645412 α      in ANC's #15, #14, #10, ...

........................................................................
.............................. CYCLE   24 ..............................
........................................................................

 iter      E             dE          RMSdq      gap      omega  full diag
   1   -424.9205059 -0.424921E+03  0.399E-02    0.81       0.0  T
   2   -424.9205050  0.976051E-06  0.244E-02    0.81       1.0  T
   3   -424.9203397  0.165277E-03  0.193E-02    0.82       1.0  T
   4   -424.9205289 -0.189272E-03  0.276E-03    0.81       2.2  T
   5   -424.9205320 -0.305297E-05  0.939E-04    0.81       6.3  T
   6   -424.9205322 -0.200347E-06  0.471E-04    0.81      12.6  T
   7   -424.9205322 -0.311822E-07  0.253E-04    0.81      23.6  T
     SCC iter.                  ...        0 min,  1.182 sec
     gradient                   ...        0 min,  0.382 sec
 * total energy  :  -418.7017891 Eh     change       -0.3729292E-02 Eh
   gradient norm :     0.0056562 Eh/α   predicted    -0.3688284E-02 (  -1.10%)
   displ. norm   :     0.9523564 α      lambda       -0.3644411E-02
   maximum displ.:     0.3728401 α      in ANC's #15, #14, #10, ...

........................................................................
.............................. CYCLE   25 ..............................
........................................................................

 iter      E             dE          RMSdq      gap      omega  full diag
   1   -424.9231614 -0.424923E+03  0.393E-02    0.81       0.0  T
   2   -424.9231604  0.995458E-06  0.241E-02    0.81       1.0  T
   3   -424.9230010  0.159390E-03  0.190E-02    0.82       1.0  T
   4   -424.9231837 -0.182752E-03  0.273E-03    0.81       2.2  T
   5   -424.9231868 -0.305052E-05  0.909E-04    0.81       6.6  T
   6   -424.9231870 -0.198007E-06  0.447E-04    0.81      13.3  T
   7   -424.9231870 -0.265130E-07  0.243E-04    0.81      24.5  T
     SCC iter.                  ...        0 min,  1.181 sec
     gradient                   ...        0 min,  0.387 sec
 * total energy  :  -418.7052993 Eh     change       -0.3510152E-02 Eh
   gradient norm :     0.0056475 Eh/α   predicted    -0.3474917E-02 (  -1.00%)
   displ. norm   :     0.9506753 α      lambda       -0.3429247E-02
   maximum displ.:     0.3764624 α      in ANC's #15, #10, #14, ...

........................................................................
.............................. CYCLE   26 ..............................
........................................................................

 iter      E             dE          RMSdq      gap      omega  full diag
   1   -424.9268062 -0.424927E+03  0.381E-02    0.81       0.0  T
   2   -424.9268051  0.108506E-05  0.233E-02    0.81       1.0  T
   3   -424.9266559  0.149168E-03  0.184E-02    0.82       1.0  T
   4   -424.9268272 -0.171279E-03  0.266E-03    0.81       2.2  T
   5   -424.9268301 -0.288838E-05  0.872E-04    0.81       6.8  T
   6   -424.9268303 -0.185639E-06  0.424E-04    0.81      14.0  T
   7   -424.9268303 -0.232992E-07  0.229E-04    0.81      26.0  T
     SCC iter.                  ...        0 min,  1.174 sec
     gradient                   ...        0 min,  0.383 sec
 * total energy  :  -418.7086038 Eh     change       -0.3304515E-02 Eh
   gradient norm :     0.0052803 Eh/α   predicted    -0.3264275E-02 (  -1.22%)
   displ. norm   :     0.9504817 α      lambda       -0.3233563E-02
   maximum displ.:     0.3839194 α      in ANC's #15, #10, #14, ...

........................................................................
.............................. CYCLE   27 ..............................
........................................................................

 iter      E             dE          RMSdq      gap      omega  full diag
   1   -424.9303422 -0.424930E+03  0.369E-02    0.82       0.0  T
   2   -424.9303409  0.130980E-05  0.225E-02    0.81       1.0  T
   3   -424.9302001  0.140704E-03  0.178E-02    0.82       1.0  T
   4   -424.9303622 -0.162031E-03  0.260E-03    0.82       2.3  T
   5   -424.9303649 -0.276593E-05  0.831E-04    0.82       7.2  T
   6   -424.9303651 -0.170974E-06  0.404E-04    0.82      14.7  T
   7   -424.9303651 -0.222016E-07  0.219E-04    0.82      27.2  T
     SCC iter.                  ...        0 min,  1.326 sec
     gradient                   ...        0 min,  0.388 sec
 * total energy  :  -418.7117246 Eh     change       -0.3120789E-02 Eh
   gradient norm :     0.0049482 Eh/α   predicted    -0.3077412E-02 (  -1.39%)
   displ. norm   :     0.9516833 α      lambda       -0.3063605E-02
   maximum displ.:     0.3866038 α      in ANC's #15, #10, #14, ...

........................................................................
.............................. CYCLE   28 ..............................
........................................................................

 iter      E             dE          RMSdq      gap      omega  full diag
   1   -424.9337207 -0.424934E+03  0.354E-02    0.82       0.0  T
   2   -424.9337194  0.136203E-05  0.216E-02    0.82       1.0  T
   3   -424.9335887  0.130658E-03  0.172E-02    0.82       1.0  T
   4   -424.9337400 -0.151282E-03  0.254E-03    0.82       2.3  T
   5   -424.9337426 -0.258259E-05  0.829E-04    0.82       7.2  T
   6   -424.9337427 -0.177683E-06  0.397E-04    0.82      15.0  T
   7   -424.9337428 -0.246170E-07  0.212E-04    0.82      28.1  T
     SCC iter.                  ...        0 min,  1.296 sec
     gradient                   ...        0 min,  0.395 sec
 * total energy  :  -418.7146864 Eh     change       -0.2961858E-02 Eh
   gradient norm :     0.0046416 Eh/α   predicted    -0.2919173E-02 (  -1.44%)
   displ. norm   :     0.9521380 α      lambda       -0.2911409E-02
   maximum displ.:     0.3924565 α      in ANC's #15, #10, #14, ...

........................................................................
.............................. CYCLE   29 ..............................
........................................................................

 iter      E             dE          RMSdq      gap      omega  full diag
   1   -424.9364884 -0.424936E+03  0.343E-02    0.82       0.0  T
   2   -424.9364870  0.136707E-05  0.209E-02    0.81       1.0  T
   3   -424.9363639  0.123078E-03  0.169E-02    0.82       1.0  T
   4   -424.9365077 -0.143741E-03  0.252E-03    0.82       2.4  T
   5   -424.9365102 -0.247146E-05  0.844E-04    0.82       7.1  T
   6   -424.9365103 -0.193408E-06  0.402E-04    0.82      14.8  T
   7   -424.9365104 -0.302550E-07  0.212E-04    0.82      28.1  T
     SCC iter.                  ...        0 min,  1.470 sec
     gradient                   ...        0 min,  0.387 sec
 * total energy  :  -418.7175061 Eh     change       -0.2819628E-02 Eh
   gradient norm :     0.0043108 Eh/α   predicted    -0.2775418E-02 (  -1.57%)
   displ. norm   :     0.9545317 α      lambda       -0.2781321E-02
   maximum displ.:     0.3930064 α      in ANC's #15, #10, #14, ...

........................................................................
.............................. CYCLE   30 ..............................
........................................................................

 iter      E             dE          RMSdq      gap      omega  full diag
   1   -424.9391552 -0.424939E+03  0.333E-02    0.81       0.0  T
   2   -424.9391543  0.862278E-06  0.203E-02    0.81       1.0  T
   3   -424.9390401  0.114210E-03  0.163E-02    0.82       1.0  T
   4   -424.9391743 -0.134175E-03  0.249E-03    0.81       2.4  T
   5   -424.9391766 -0.231614E-05  0.882E-04    0.81       6.8  T
   6   -424.9391768 -0.223408E-06  0.408E-04    0.81      14.6  T
   7   -424.9391769 -0.340494E-07  0.215E-04    0.81      27.7  T
     SCC iter.                  ...        0 min,  1.655 sec
     gradient                   ...        0 min,  0.375 sec
 * total energy  :  -418.7202031 Eh     change       -0.2697027E-02 Eh
   gradient norm :     0.0038989 Eh/α   predicted    -0.2657767E-02 (  -1.46%)
   displ. norm   :     0.9547014 α      lambda       -0.2653621E-02
   maximum displ.:     0.3998121 α      in ANC's #10, #15, #9, ...

........................................................................
.............................. CYCLE   31 ..............................
........................................................................

 iter      E             dE          RMSdq      gap      omega  full diag
   1   -424.9412553 -0.424941E+03  0.326E-02    0.81       0.0  T
   2   -424.9412547  0.608891E-06  0.199E-02    0.81       1.0  T
   3   -424.9411455  0.109174E-03  0.161E-02    0.82       1.0  T
   4   -424.9412745 -0.128942E-03  0.248E-03    0.81       2.4  T
   5   -424.9412767 -0.224029E-05  0.892E-04    0.81       6.7  T
   6   -424.9412769 -0.232443E-06  0.412E-04    0.81      14.4  T
   7   -424.9412770 -0.368885E-07  0.217E-04    0.81      27.5  T
     SCC iter.                  ...        0 min,  1.539 sec
     gradient                   ...        0 min,  0.391 sec
 * total energy  :  -418.7227783 Eh     change       -0.2575168E-02 Eh
   gradient norm :     0.0034547 Eh/α   predicted    -0.2536138E-02 (  -1.52%)
   displ. norm   :     0.9568483 α      lambda       -0.2538025E-02
   maximum displ.:     0.4135468 α      in ANC's #10, #15, #9, ...

........................................................................
.............................. CYCLE   32 ..............................
........................................................................

 iter      E             dE          RMSdq      gap      omega  full diag
   1   -424.9433095 -0.424943E+03  0.320E-02    0.81       0.0  T
   2   -424.9433091  0.424166E-06  0.195E-02    0.81       1.0  T
   3   -424.9432058  0.103308E-03  0.157E-02    0.82       1.0  T
   4   -424.9433283 -0.122519E-03  0.240E-03    0.81       2.5  T
   5   -424.9433304 -0.206499E-05  0.879E-04    0.81       6.8  T
   6   -424.9433306 -0.226401E-06  0.403E-04    0.81      14.8  T
   7   -424.9433307 -0.345622E-07  0.213E-04    0.81      28.0  T
     SCC iter.                  ...        0 min,  1.313 sec
     gradient                   ...        0 min,  0.389 sec
 * total energy  :  -418.7252437 Eh     change       -0.2465489E-02 Eh
   gradient norm :     0.0032669 Eh/α   predicted    -0.2430867E-02 (  -1.40%)
   displ. norm   :     0.9564844 α      lambda       -0.2424891E-02
   maximum displ.:     0.4186156 α      in ANC's #10, #15, #9, ...

........................................................................
.............................. CYCLE   33 ..............................
........................................................................

 iter      E             dE          RMSdq      gap      omega  full diag
   1   -424.9449653 -0.424945E+03  0.315E-02    0.81       0.0  T
   2   -424.9449643  0.993663E-06  0.192E-02    0.81       1.0  T
   3   -424.9448630  0.101310E-03  0.156E-02    0.81       1.0  T
   4   -424.9449838 -0.120783E-03  0.231E-03    0.81       2.6  T
   5   -424.9449857 -0.191335E-05  0.822E-04    0.81       7.2  T
   6   -424.9449859 -0.192935E-06  0.384E-04    0.81      15.5  T
   7   -424.9449859 -0.306295E-07  0.202E-04    0.81      29.5  T
     SCC iter.                  ...        0 min,  1.213 sec
     gradient                   ...        0 min,  0.387 sec
 * total energy  :  -418.7276039 Eh     change       -0.2360189E-02 Eh
   gradient norm :     0.0035017 Eh/α   predicted    -0.2321666E-02 (  -1.63%)
   displ. norm   :     0.9574651 α      lambda       -0.2333479E-02
   maximum displ.:     0.4286930 α      in ANC's #10, #15, #9, ...

........................................................................
.............................. CYCLE   34 ..............................
........................................................................

 iter      E             dE          RMSdq      gap      omega  full diag
   1   -424.9467109 -0.424947E+03  0.308E-02    0.81       0.0  T
   2   -424.9467091  0.174766E-05  0.188E-02    0.81       1.0  T
   3   -424.9466112  0.979065E-04  0.154E-02    0.81       1.0  T
   4   -424.9467291 -0.117938E-03  0.216E-03    0.81       2.8  T
   5   -424.9467308 -0.168046E-05  0.748E-04    0.81       8.0  T
   6   -424.9467310 -0.156740E-06  0.353E-04    0.81      16.9  T
   7   -424.9467310 -0.229765E-07  0.186E-04    0.81      31.9  T
     SCC iter.                  ...        0 min,  1.518 sec
     gradient                   ...        0 min,  0.386 sec
 * total energy  :  -418.7298809 Eh     change       -0.2276980E-02 Eh
   gradient norm :     0.0039131 Eh/α   predicted    -0.2236337E-02 (  -1.78%)
   displ. norm   :     0.9578595 α      lambda       -0.2260518E-02
   maximum displ.:     0.4332530 α      in ANC's #10, #15, #9, ...

........................................................................
.............................. CYCLE   35 ..............................
........................................................................

 iter      E             dE          RMSdq      gap      omega  full diag
   1   -424.9484841 -0.424948E+03  0.303E-02    0.81       0.0  T
   2   -424.9484812  0.289243E-05  0.186E-02    0.80       1.0  T
   3   -424.9483840  0.972124E-04  0.155E-02    0.81       1.0  T
   4   -424.9485025 -0.118474E-03  0.203E-03    0.81       2.9  T
   5   -424.9485040 -0.149914E-05  0.677E-04    0.81       8.8  T
   6   -424.9485041 -0.125032E-06  0.327E-04    0.81      18.2  T
   7   -424.9485041 -0.167441E-07  0.173E-04    0.81      34.3  T
     SCC iter.                  ...        0 min,  1.332 sec
     gradient                   ...        0 min,  0.380 sec
 * total energy  :  -418.7320921 Eh     change       -0.2211198E-02 Eh
   gradient norm :     0.0041265 Eh/α   predicted    -0.2167268E-02 (  -1.99%)
   displ. norm   :     0.9606387 α      lambda       -0.2208911E-02
   maximum displ.:     0.4417923 α      in ANC's #10, #15, #9, ...

........................................................................
.............................. CYCLE   36 ..............................
........................................................................

 iter      E             dE          RMSdq      gap      omega  full diag
   1   -424.9501019 -0.424950E+03  0.299E-02    0.81       0.0  T
   2   -424.9500981  0.373805E-05  0.184E-02    0.80       1.0  T
   3   -424.9500034  0.946795E-04  0.156E-02    0.81       1.0  T
   4   -424.9501211 -0.117696E-03  0.193E-03    0.80       3.1  T
   5   -424.9501225 -0.134320E-05  0.640E-04    0.80       9.3  T
   6   -424.9501226 -0.113642E-06  0.310E-04    0.80      19.2  T
   7   -424.9501226 -0.112263E-07  0.169E-04    0.80      35.2  T
     SCC iter.                  ...        0 min,  1.561 sec
     gradient                   ...        0 min,  0.390 sec
 * total energy  :  -418.7342557 Eh     change       -0.2163607E-02 Eh
   gradient norm :     0.0038811 Eh/α   predicted    -0.2123678E-02 (  -1.85%)
   displ. norm   :     0.9641548 α      lambda       -0.2164160E-02
   maximum displ.:     0.4484137 α      in ANC's #10, #15, #9, ...

........................................................................
.............................. CYCLE   37 ..............................
........................................................................

 iter      E             dE          RMSdq      gap      omega  full diag
   1   -424.9525309 -0.424953E+03  0.299E-02    0.80       0.0  T
   2   -424.9525263  0.462575E-05  0.185E-02    0.80       1.0  T
   3   -424.9524316  0.946111E-04  0.158E-02    0.81       1.0  T
   4   -424.9525512 -0.119546E-03  0.187E-03    0.80       3.2  T
   5   -424.9525524 -0.123696E-05  0.641E-04    0.80       9.3  T
   6   -424.9525525 -0.108841E-06  0.322E-04    0.80      18.5  T
   7   -424.9525525 -0.133455E-07  0.173E-04    0.80      34.5  T
     SCC iter.                  ...        0 min,  1.679 sec
     gradient                   ...        0 min,  0.392 sec
 * total energy  :  -418.7363740 Eh     change       -0.2118231E-02 Eh
   gradient norm :     0.0034330 Eh/α   predicted    -0.2087976E-02 (  -1.43%)
   displ. norm   :     0.9678445 α      lambda       -0.2117768E-02
   maximum displ.:     0.4543178 α      in ANC's #10, #15, #9, ...

........................................................................
.............................. CYCLE   38 ..............................
........................................................................

 iter      E             dE          RMSdq      gap      omega  full diag
   1   -424.9530444 -0.424953E+03  0.303E-02    0.80       0.0  T
   2   -424.9530398  0.455739E-05  0.187E-02    0.80       1.0  T
   3   -424.9529450  0.948357E-04  0.160E-02    0.81       1.0  T
   4   -424.9530660 -0.121011E-03  0.189E-03    0.80       3.2  T
   5   -424.9530672 -0.120856E-05  0.675E-04    0.80       8.8  T
   6   -424.9530673 -0.123966E-06  0.340E-04    0.80      17.5  T
   7   -424.9530673 -0.156546E-07  0.187E-04    0.80      31.9  T
     SCC iter.                  ...        0 min,  1.246 sec
     gradient                   ...        0 min,  0.384 sec
 * total energy  :  -418.7384365 Eh     change       -0.2062508E-02 Eh
   gradient norm :     0.0031929 Eh/α   predicted    -0.2050768E-02 (  -0.57%)
   displ. norm   :     0.9694856 α      lambda       -0.2062300E-02
   maximum displ.:     0.4597036 α      in ANC's #10, #15, #9, ...

........................................................................
.............................. CYCLE   39 ..............................
........................................................................

 iter      E             dE          RMSdq      gap      omega  full diag
   1   -424.9560813 -0.424956E+03  0.304E-02    0.80       0.0  T
   2   -424.9560764  0.487722E-05  0.188E-02    0.80       1.0  T
   3   -424.9559805  0.958565E-04  0.161E-02    0.80       1.0  T
   4   -424.9561031 -0.122612E-03  0.184E-03    0.80       3.2  T
   5   -424.9561043 -0.111559E-05  0.679E-04    0.80       8.8  T
   6   -424.9561044 -0.117997E-06  0.352E-04    0.80      16.9  T
   7   -424.9561044 -0.189158E-07  0.186E-04    0.80      32.0  T
     SCC iter.                  ...        0 min,  1.492 sec
     gradient                   ...        0 min,  0.384 sec
 * total energy  :  -418.7404409 Eh     change       -0.2004441E-02 Eh
   gradient norm :     0.0028727 Eh/α   predicted    -0.2000330E-02 (  -0.21%)
   displ. norm   :     0.9714589 α      lambda       -0.1985896E-02
   maximum displ.:     0.4610078 α      in ANC's #10, #15, #9, ...

........................................................................
.............................. CYCLE   40 ..............................
........................................................................

 iter      E             dE          RMSdq      gap      omega  full diag
   1   -424.9566844 -0.424957E+03  0.304E-02    0.80       0.0  T
   2   -424.9566800  0.433784E-05  0.187E-02    0.80       1.0  T
   3   -424.9565814  0.986045E-04  0.160E-02    0.80       1.0  T
   4   -424.9567044 -0.122985E-03  0.179E-03    0.80       3.3  T
   5   -424.9567055 -0.107539E-05  0.641E-04    0.80       9.3  T
   6   -424.9567056 -0.107515E-06  0.331E-04    0.80      18.0  T
   7   -424.9567056 -0.154004E-07  0.179E-04    0.80      33.3  T
     SCC iter.                  ...        0 min,  1.557 sec
     gradient                   ...        0 min,  0.400 sec
 * total energy  :  -418.7423837 Eh     change       -0.1942753E-02 Eh
   gradient norm :     0.0028580 Eh/α   predicted    -0.1930039E-02 (  -0.65%)
   displ. norm   :     0.9724600 α      lambda       -0.1923458E-02
   maximum displ.:     0.4644439 α      in ANC's #10, #15, #9, ...

........................................................................
.............................. CYCLE   41 ..............................
........................................................................

 iter      E             dE          RMSdq      gap      omega  full diag
   1   -424.9586062 -0.424959E+03  0.301E-02    0.80       0.0  T
   2   -424.9586024  0.378614E-05  0.185E-02    0.80       1.0  T
   3   -424.9585047  0.976864E-04  0.156E-02    0.80       1.0  T
   4   -424.9586248 -0.120135E-03  0.173E-03    0.80       3.5  T
   5   -424.9586258 -0.999124E-06  0.608E-04    0.80       9.8  T
   6   -424.9586259 -0.963038E-07  0.311E-04    0.80      19.1  T
     SCC iter.                  ...        0 min,  1.060 sec
     gradient                   ...        0 min,  0.386 sec
 * total energy  :  -418.7442723 Eh     change       -0.1888611E-02 Eh
   gradient norm :     0.0031681 Eh/α   predicted    -0.1871217E-02 (  -0.92%)
   displ. norm   :     0.9735432 α      lambda       -0.1877228E-02
   maximum displ.:     0.4651344 α      in ANC's #10, #15, #9, ...

........................................................................
.............................. CYCLE   42 ..............................
........................................................................

 iter      E             dE          RMSdq      gap      omega  full diag
   1   -424.9601354 -0.424960E+03  0.300E-02    0.80       0.0  T
   2   -424.9601327  0.273910E-05  0.183E-02    0.80       1.0  T
   3   -424.9600354  0.972795E-04  0.152E-02    0.81       1.0  T
   4   -424.9601518 -0.116386E-03  0.174E-03    0.80       3.4  T
   5   -424.9601528 -0.103127E-05  0.597E-04    0.80      10.0  T
   6   -424.9601529 -0.879768E-07  0.307E-04    0.80      19.4  T
   7   -424.9601529 -0.109888E-07  0.168E-04    0.80      35.4  T
     SCC iter.                  ...        0 min,  1.917 sec
     gradient                   ...        0 min,  0.385 sec
 * total energy  :  -418.7461177 Eh     change       -0.1845469E-02 Eh
   gradient norm :     0.0031430 Eh/α   predicted    -0.1828220E-02 (  -0.93%)
   displ. norm   :     0.9745547 α      lambda       -0.1837453E-02
   maximum displ.:     0.4663678 α      in ANC's #10, #15, #3, ...
 * RMSD in coord.:     1.1674458 α      energy gain  -0.5764623E-01 Eh

generating ANC from model Hessian ...
Using Lindh-Hessian (1995)
 Shifting diagonal of input Hessian by    1.0038817674408371E-002
 Lowest  eigenvalues of input Hessian
    0.010000    0.010037    0.000000    0.000000    0.000000    0.000000
    0.000000    0.000000    0.010042    0.010049    0.010072    0.010078
    0.010086    0.010095    0.010110    0.010132    0.010143    0.010190
 Highest eigenvalues
    2.175506    2.175790    2.191775    2.194813    2.198103    2.200914


........................................................................
.............................. CYCLE   43 ..............................
........................................................................

 iter      E             dE          RMSdq      gap      omega  full diag
   1   -424.9621610 -0.424962E+03  0.297E-02    0.80       0.0  T
   2   -424.9621594  0.161158E-05  0.180E-02    0.80       1.0  T
   3   -424.9620666  0.928107E-04  0.146E-02    0.81       1.0  T
   4   -424.9621753 -0.108703E-03  0.171E-03    0.80       3.5  T
   5   -424.9621763 -0.985323E-06  0.599E-04    0.81       9.9  T
   6   -424.9621764 -0.844191E-07  0.309E-04    0.80      19.3  T
     SCC iter.                  ...        0 min,  1.406 sec
     gradient                   ...        0 min,  0.377 sec
 * total energy  :  -418.7479235 Eh     change       -0.1805778E-02 Eh
   gradient norm :     0.0027352 Eh/α   predicted     0.0000000E+00 (-100.00%)
   displ. norm   :     0.1746910 α      lambda       -0.3268975E-03
   maximum displ.:     0.0881831 α      in ANC's #7, #6, #1, ...

........................................................................
.............................. CYCLE   44 ..............................
........................................................................

 iter      E             dE          RMSdq      gap      omega  full diag
   1   -424.9627463 -0.424963E+03  0.493E-03    0.81       0.0  T
   2   -424.9627464 -0.839789E-07  0.293E-03    0.81       2.0  T
   3   -424.9627448  0.161175E-05  0.189E-03    0.81       3.1  T
   4   -424.9627466 -0.178519E-05  0.344E-04    0.81      17.3  T
   5   -424.9627466 -0.448313E-07  0.128E-04    0.81      46.6  T
   6   -424.9627466 -0.396801E-08  0.568E-05    0.81     104.8  T
     SCC iter.                  ...        0 min,  1.391 sec
     gradient                   ...        0 min,  0.392 sec
 * total energy  :  -418.7482488 Eh     change       -0.3253069E-03 Eh
   gradient norm :     0.0024584 Eh/α   predicted    -0.1686019E-03 ( -48.17%)
   displ. norm   :     0.7483917 α      lambda       -0.1385866E-02
   maximum displ.:     0.3394398 α      in ANC's #7, #6, #1, ...

........................................................................
.............................. CYCLE   45 ..............................
........................................................................

 iter      E             dE          RMSdq      gap      omega  full diag
   1   -424.9641144 -0.424964E+03  0.222E-02    0.81       0.0  T
   2   -424.9641157 -0.131252E-05  0.133E-02    0.81       1.0  T
   3   -424.9640780  0.377407E-04  0.916E-03    0.81       1.0  T
   4   -424.9641204 -0.424187E-04  0.148E-03    0.81       4.0  T
   5   -424.9641212 -0.794148E-06  0.559E-04    0.81      10.7  T
   6   -424.9641213 -0.790504E-07  0.246E-04    0.81      24.3  T
     SCC iter.                  ...        0 min,  1.306 sec
     gradient                   ...        0 min,  0.411 sec
 * total energy  :  -418.7496092 Eh     change       -0.1360427E-02 Eh
   gradient norm :     0.0021755 Eh/α   predicted    -0.1081038E-02 ( -20.54%)
   displ. norm   :     0.9466731 α      lambda       -0.1698649E-02
   maximum displ.:     0.4325522 α      in ANC's #7, #6, #1, ...

........................................................................
.............................. CYCLE   46 ..............................
........................................................................

 iter      E             dE          RMSdq      gap      omega  full diag
   1   -424.9648074 -0.424965E+03  0.276E-02    0.81       0.0  T
   2   -424.9648087 -0.130212E-05  0.166E-02    0.81       1.0  T
   3   -424.9647425  0.661847E-04  0.121E-02    0.82       1.0  T
   4   -424.9648178 -0.752571E-04  0.181E-03    0.81       3.3  T
   5   -424.9648189 -0.113255E-05  0.677E-04    0.82       8.8  T
   6   -424.9648190 -0.112426E-06  0.310E-04    0.81      19.2  T
   7   -424.9648190 -0.135418E-07  0.175E-04    0.81      34.1  T
     SCC iter.                  ...        0 min,  1.340 sec
     gradient                   ...        0 min,  0.411 sec
 * total energy  :  -418.7512731 Eh     change       -0.1663873E-02 Eh
   gradient norm :     0.0024807 Eh/α   predicted    -0.1610492E-02 (  -3.21%)
   displ. norm   :     0.9647249 α      lambda       -0.1671516E-02
   maximum displ.:     0.4451465 α      in ANC's #7, #6, #1, ...

........................................................................
.............................. CYCLE   47 ..............................
........................................................................

 iter      E             dE          RMSdq      gap      omega  full diag
   1   -424.9652715 -0.424965E+03  0.281E-02    0.82       0.0  T
   2   -424.9652720 -0.493175E-06  0.169E-02    0.82       1.0  T
   3   -424.9651989  0.731732E-04  0.129E-02    0.82       1.0  T
   4   -424.9652831 -0.842689E-04  0.177E-03    0.82       3.4  T
   5   -424.9652842 -0.108799E-05  0.643E-04    0.82       9.3  T
   6   -424.9652843 -0.992732E-07  0.306E-04    0.82      19.4  T
   7   -424.9652843 -0.133780E-07  0.170E-04    0.82      35.0  T
     SCC iter.                  ...        0 min,  1.526 sec
     gradient                   ...        0 min,  0.381 sec
 * total energy  :  -418.7529124 Eh     change       -0.1639231E-02 Eh
   gradient norm :     0.0031111 Eh/α   predicted    -0.1613594E-02 (  -1.56%)
   displ. norm   :     0.9596279 α      lambda       -0.1616001E-02
   maximum displ.:     0.4484505 α      in ANC's #7, #6, #1, ...

........................................................................
.............................. CYCLE   48 ..............................
........................................................................

 iter      E             dE          RMSdq      gap      omega  full diag
   1   -424.9665399 -0.424967E+03  0.270E-02    0.82       0.0  T
   2   -424.9665394  0.455855E-06  0.164E-02    0.82       1.0  T
   3   -424.9664669  0.725359E-04  0.129E-02    0.83       1.0  T
   4   -424.9665511 -0.841561E-04  0.158E-03    0.82       3.8  T
   5   -424.9665519 -0.844184E-06  0.572E-04    0.82      10.4  T
   6   -424.9665520 -0.762352E-07  0.285E-04    0.82      20.9  T
     SCC iter.                  ...        0 min,  1.109 sec
     gradient                   ...        0 min,  0.393 sec
 * total energy  :  -418.7545000 Eh     change       -0.1587696E-02 Eh
   gradient norm :     0.0035798 Eh/α   predicted    -0.1552135E-02 (  -2.24%)
   displ. norm   :     0.9555602 α      lambda       -0.1574819E-02
   maximum displ.:     0.4519141 α      in ANC's #7, #6, #1, ...

........................................................................
.............................. CYCLE   49 ..............................
........................................................................

 iter      E             dE          RMSdq      gap      omega  full diag
   1   -424.9681046 -0.424968E+03  0.265E-02    0.83       0.0  T
   2   -424.9681038  0.836188E-06  0.160E-02    0.82       1.0  T
   3   -424.9680331  0.706107E-04  0.128E-02    0.83       1.0  T
   4   -424.9681153 -0.822011E-04  0.149E-03    0.82       4.0  T
   5   -424.9681161 -0.779162E-06  0.520E-04    0.83      11.4  T
   6   -424.9681162 -0.619124E-07  0.267E-04    0.83      22.3  T
     SCC iter.                  ...        0 min,  1.010 sec
     gradient                   ...        0 min,  0.387 sec
 * total energy  :  -418.7560494 Eh     change       -0.1549367E-02 Eh
   gradient norm :     0.0035985 Eh/α   predicted    -0.1506390E-02 (  -2.77%)
   displ. norm   :     0.9539608 α      lambda       -0.1544076E-02
   maximum displ.:     0.4586373 α      in ANC's #7, #6, #1, ...

........................................................................
.............................. CYCLE   50 ..............................
........................................................................

 iter      E             dE          RMSdq      gap      omega  full diag
   1   -424.9700155 -0.424970E+03  0.255E-02    0.83       0.0  T
   2   -424.9700144  0.110435E-05  0.155E-02    0.83       1.0  T
   3   -424.9699479  0.665243E-04  0.124E-02    0.83       1.0  T
   4   -424.9700255 -0.775677E-04  0.138E-03    0.83       4.3  T
   5   -424.9700261 -0.656703E-06  0.483E-04    0.83      12.3  T
   6   -424.9700262 -0.510235E-07  0.255E-04    0.83      23.4  T
     SCC iter.                  ...        0 min,  1.004 sec
     gradient                   ...        0 min,  0.384 sec
 * total energy  :  -418.7575683 Eh     change       -0.1518865E-02 Eh
   gradient norm :     0.0031258 Eh/α   predicted    -0.1474627E-02 (  -2.91%)
   displ. norm   :     0.9529892 α      lambda       -0.1510688E-02
   maximum displ.:     0.4657999 α      in ANC's #7, #6, #1, ...

........................................................................
.............................. CYCLE   51 ..............................
........................................................................

 iter      E             dE          RMSdq      gap      omega  full diag
   1   -424.9716869 -0.424972E+03  0.249E-02    0.83       0.0  T
   2   -424.9716859  0.908074E-06  0.151E-02    0.83       1.0  T
   3   -424.9716242  0.617775E-04  0.121E-02    0.83       1.0  T
   4   -424.9716962 -0.720586E-04  0.135E-03    0.83       4.4  T
   5   -424.9716969 -0.632423E-06  0.473E-04    0.83      12.6  T
   6   -424.9716969 -0.481946E-07  0.250E-04    0.83      23.8  T
     SCC iter.                  ...        0 min,  1.002 sec
     gradient                   ...        0 min,  0.385 sec
 * total energy  :  -418.7590531 Eh     change       -0.1484803E-02 Eh
   gradient norm :     0.0023977 Eh/α   predicted    -0.1441342E-02 (  -2.93%)
   displ. norm   :     0.9521999 α      lambda       -0.1471109E-02
   maximum displ.:     0.4735438 α      in ANC's #7, #6, #1, ...

........................................................................
.............................. CYCLE   52 ..............................
........................................................................

 iter      E             dE          RMSdq      gap      omega  full diag
   1   -424.9732430 -0.424973E+03  0.238E-02    0.83       0.0  T
   2   -424.9732422  0.716010E-06  0.144E-02    0.83       1.0  T
   3   -424.9731864  0.558758E-04  0.115E-02    0.83       1.0  T
   4   -424.9732514 -0.650014E-04  0.129E-03    0.83       4.6  T
   5   -424.9732519 -0.565213E-06  0.461E-04    0.83      12.9  T
   6   -424.9732520 -0.444029E-07  0.244E-04    0.83      24.4  T
     SCC iter.                  ...        0 min,  1.017 sec
     gradient                   ...        0 min,  0.378 sec
 * total energy  :  -418.7604979 Eh     change       -0.1444774E-02 Eh
   gradient norm :     0.0018048 Eh/α   predicted    -0.1402477E-02 (  -2.93%)
   displ. norm   :     1.4245266 α      lambda       -0.1424568E-02
   maximum displ.:     0.7182776 α      in ANC's #7, #6, #1, ...

........................................................................
.............................. CYCLE   53 ..............................
........................................................................

 iter      E             dE          RMSdq      gap      omega  full diag
   1   -424.9746221 -0.424975E+03  0.344E-02    0.83       0.0  T
   2   -424.9746211  0.101302E-05  0.208E-02    0.83       1.0  T
   3   -424.9745075  0.113588E-03  0.164E-02    0.83       1.0  T
   4   -424.9746391 -0.131667E-03  0.183E-03    0.83       3.2  T
   5   -424.9746403 -0.115005E-05  0.664E-04    0.83       9.0  T
   6   -424.9746404 -0.932358E-07  0.347E-04    0.83      17.1  T
   7   -424.9746404 -0.151783E-07  0.190E-04    0.83      31.4  T
     SCC iter.                  ...        0 min,  1.184 sec
     gradient                   ...        0 min,  0.399 sec
 * total energy  :  -418.7625773 Eh     change       -0.2079448E-02 Eh
   gradient norm :     0.0020792 Eh/α   predicted    -0.1354693E-02 ( -34.85%)
   displ. norm   :     0.9357943 α      lambda       -0.1343571E-02
   maximum displ.:     0.4788125 α      in ANC's #7, #6, #1, ...

........................................................................
.............................. CYCLE   54 ..............................
........................................................................

 iter      E             dE          RMSdq      gap      omega  full diag
   1   -424.9761517 -0.424976E+03  0.212E-02    0.83       0.0  T
   2   -424.9761512  0.429866E-06  0.128E-02    0.83       1.0  T
   3   -424.9761075  0.437702E-04  0.101E-02    0.83       1.0  T
   4   -424.9761579 -0.504240E-04  0.108E-03    0.83       5.5  T
   5   -424.9761583 -0.389754E-06  0.397E-04    0.83      15.0  T
   6   -424.9761583 -0.329812E-07  0.208E-04    0.83      28.6  T
     SCC iter.                  ...        0 min,  1.285 sec
     gradient                   ...        0 min,  0.385 sec
 * total energy  :  -418.7638982 Eh     change       -0.1320874E-02 Eh
   gradient norm :     0.0024536 Eh/α   predicted    -0.1260076E-02 (  -4.60%)
   displ. norm   :     0.9396347 α      lambda       -0.1319156E-02
   maximum displ.:     0.4850845 α      in ANC's #7, #6, #1, ...

........................................................................
.............................. CYCLE   55 ..............................
........................................................................

 iter      E             dE          RMSdq      gap      omega  full diag
   1   -424.9773570 -0.424977E+03  0.206E-02    0.83       0.0  T
   2   -424.9773569  0.975764E-07  0.124E-02    0.83       1.0  T
   3   -424.9773178  0.391475E-04  0.946E-03    0.84       1.0  T
   4   -424.9773625 -0.447479E-04  0.106E-03    0.83       5.6  T
   5   -424.9773629 -0.388784E-06  0.377E-04    0.83      15.8  T
   6   -424.9773629 -0.305064E-07  0.194E-04    0.83      30.7  T
     SCC iter.                  ...        0 min,  1.080 sec
     gradient                   ...        0 min,  0.385 sec
 * total energy  :  -418.7651964 Eh     change       -0.1298185E-02 Eh
   gradient norm :     0.0026124 Eh/α   predicted    -0.1241935E-02 (  -4.33%)
   displ. norm   :     0.9379591 α      lambda       -0.1292640E-02
   maximum displ.:     0.4901720 α      in ANC's #7, #6, #1, ...

........................................................................
.............................. CYCLE   56 ..............................
........................................................................

 iter      E             dE          RMSdq      gap      omega  full diag
   1   -424.9789570 -0.424979E+03  0.194E-02    0.84       0.0  T
   2   -424.9789570  0.117586E-07  0.116E-02    0.83       1.0  T
   3   -424.9789230  0.339556E-04  0.874E-03    0.84       1.0  T
   4   -424.9789615 -0.385473E-04  0.997E-04    0.84       6.0  T
   5   -424.9789619 -0.342534E-06  0.361E-04    0.84      16.5  T
   6   -424.9789619 -0.280591E-07  0.183E-04    0.84      32.5  T
     SCC iter.                  ...        0 min,  1.409 sec
     gradient                   ...        0 min,  0.389 sec
 * total energy  :  -418.7664703 Eh     change       -0.1273911E-02 Eh
   gradient norm :     0.0025811 Eh/α   predicted    -0.1214932E-02 (  -4.63%)
   displ. norm   :     0.9371797 α      lambda       -0.1270718E-02
   maximum displ.:     0.4947045 α      in ANC's #7, #6, #14, ...

........................................................................
.............................. CYCLE   57 ..............................
........................................................................

 iter      E             dE          RMSdq      gap      omega  full diag
   1   -424.9800482 -0.424980E+03  0.187E-02    0.84       0.0  T
   2   -424.9800484 -0.280497E-06  0.112E-02    0.84       1.0  T
   3   -424.9800191  0.293320E-04  0.814E-03    0.84       1.0  T
[...]
    12   6 C       21   6 C                                       1.3991730
    20   6 C       21   6 C                                       1.3761639
     2   6 C       22   8 O                                       1.3733754
    18   6 C       23   8 O                                       1.3642363
    23   8 O       24   5 B                                       1.4733520
    25   6 C       26   6 C                                       1.3869898
    26   6 C       27   6 C                                       1.4175674
    27   6 C       28   6 C                                       1.4148586
    28   6 C       29   6 C                                       1.4026652
    25   6 C       30   6 C                                       1.4007009
    29   6 C       30   6 C                                       1.3735686
    27   6 C       31   6 C                                       1.4326130
    31   6 C       32   6 C                                       1.4047610
    32   6 C       33   6 C                                       1.4262560
    34   6 C       35   6 C                                       1.4250352
    32   6 C       37   6 C                                       1.4212467
    37   6 C       38   6 C                                       1.3859596
    38   6 C       39   6 C                                       1.3896810
    33   6 C       40   6 C                                       1.3880259
    39   6 C       40   6 C                                       1.3876720
    41   6 C       42   6 C                                       1.3895359
    42   6 C       43   6 C                                       1.3914427
    35   6 C       44   6 C                                       1.3986044
    43   6 C       44   6 C                                       1.3709727
    41   6 C       45   8 O                                       1.3730131
    24   5 B       46   8 O                                       1.4728589
    26   6 C       46   8 O                                       1.3638777
    52   6 C       53   6 C                                       1.5298930
    52   6 C       54   6 C                                       1.5349718
    52   6 C       55   6 C                                       1.5363898
    56   6 C       57   6 C                                       1.5360916
    56   6 C       58   6 C                                       1.5357109
    56   6 C       59   6 C                                       1.5304902
    60   6 C       61   6 C                                       1.5356589
    60   6 C       62   6 C                                       1.5315040
    60   6 C       63   6 C                                       1.5358025
    64   6 C       65   6 C                                       1.5341957
    64   6 C       66   6 C                                       1.5348347
    64   6 C       67   6 C                                       1.5324803
    68   6 C       69   6 C                                       1.5364967 (max)
    68   6 C       70   6 C                                       1.5345508
    68   6 C       71   6 C                                       1.5306391
    72   6 C       73   6 C                                       1.5358136
    72   6 C       74   6 C                                       1.5315196
    72   6 C       75   6 C                                       1.5356694
    58   6 C       76   1 H                                       1.0912700
    58   6 C       77   1 H                                       1.0875495
    58   6 C       78   1 H                                       1.0869924
    59   6 C       79   1 H                                       1.0915739
    59   6 C       80   1 H                                       1.0871637
    59   6 C       81   1 H                                       1.0864615
    57   6 C       82   1 H                                       1.0913927
    57   6 C       83   1 H                                       1.0868484
    57   6 C       84   1 H                                       1.0878573
    71   6 C       85   1 H                                       1.0921178
    71   6 C       86   1 H                                       1.0877565
    71   6 C       87   1 H                                       1.0866799
    69   6 C       88   1 H                                       1.0919797
    69   6 C       89   1 H                                       1.0866397
    69   6 C       90   1 H                                       1.0884147
    70   6 C       91   1 H                                       1.0921607
    70   6 C       92   1 H                                       1.0872997
    70   6 C       93   1 H                                       1.0872408
    73   6 C       94   1 H                                       1.0923859
    73   6 C       95   1 H                                       1.0882130
    73   6 C       96   1 H                                       1.0864619
    74   6 C       97   1 H                                       1.0923686
    74   6 C       98   1 H                                       1.0873716
    74   6 C       99   1 H                                       1.0870901
    75   6 C      100   1 H                                       1.0924441
    75   6 C      101   1 H                                       1.0863422
    75   6 C      102   1 H                                       1.0883923
    54   6 C      103   1 H                                       1.0921922
    54   6 C      104   1 H                                       1.0872728
    54   6 C      105   1 H                                       1.0869692
    55   6 C      106   1 H                                       1.0919825
    55   6 C      107   1 H                                       1.0870887
    55   6 C      108   1 H                                       1.0883871
    53   6 C      109   1 H                                       1.0920118
    53   6 C      110   1 H                                       1.0862203
    53   6 C      111   1 H                                       1.0865226
    65   6 C      112   1 H                                       1.0914392
    65   6 C      113   1 H                                       1.0892750
    65   6 C      114   1 H                                       1.0860123
    67   6 C      115   1 H                                       1.0912235
    67   6 C      116   1 H                                       1.0871045
    67   6 C      117   1 H                                       1.0881310
    66   6 C      118   1 H                                       1.0912020
    66   6 C      119   1 H                                       1.0858768
    66   6 C      120   1 H                                       1.0881401
    61   6 C      121   1 H                                       1.0924599
    61   6 C      122   1 H                                       1.0863582
    61   6 C      123   1 H                                       1.0883949
    63   6 C      124   1 H                                       1.0924051
    63   6 C      125   1 H                                       1.0882250
    63   6 C      126   1 H                                       1.0864640
    62   6 C      127   1 H                                       1.0923790
    62   6 C      128   1 H                                       1.0873600
    62   6 C      129   1 H                                       1.0871005
    15   6 C      130   1 H                                       1.0808182
    17   6 C      131   1 H                                       1.0830973
     5   6 C      132   1 H                                       1.0818689
     1   6 C      133   1 H                                       1.0724007
    21   6 C      134   1 H                                       1.0812248
    19   6 C      135   1 H                                       1.0741422
    42   6 C      136   1 H                                       1.0719214 (min)
    44   6 C      137   1 H                                       1.0818033
    38   6 C      138   1 H                                       1.0830626
    40   6 C      139   1 H                                       1.0808055
    29   6 C      140   1 H                                       1.0793706
    25   6 C      141   1 H                                       1.0766531
   142   6 C      143   6 C                                       1.3897062
   143   6 C      144   6 C                                       1.4157141
   144   6 C      145   6 C                                       1.4155512
   145   6 C      146   6 C                                       1.3998399
   142   6 C      147   6 C                                       1.3968678
   146   6 C      147   6 C                                       1.3771067
   144   6 C      148   6 C                                       1.4332242
   148   6 C      149   6 C                                       1.4049502
   149   6 C      150   6 C                                       1.4277783
   152   6 C      153   6 C                                       1.4254744
   149   6 C      155   6 C                                       1.4205438
   155   6 C      156   6 C                                       1.3892753
   156   6 C      157   6 C                                       1.3860568
   150   6 C      158   6 C                                       1.3846535
   157   6 C      158   6 C                                       1.3911211
   159   6 C      160   6 C                                       1.3895339
   160   6 C      161   6 C                                       1.3910922
   153   6 C      162   6 C                                       1.3985161
   161   6 C      162   6 C                                       1.3707182
   143   6 C      163   8 O                                       1.3584570
   159   6 C      164   8 O                                       1.3732195
   163   8 O      165   5 B                                       1.4683030
   166   6 C      167   6 C                                       1.3858513
   168   6 C      169   6 C                                       1.4242736
   169   6 C      170   6 C                                       1.4022858
   166   6 C      171   6 C                                       1.3945602
   170   6 C      171   6 C                                       1.3677888
   172   6 C      173   6 C                                       1.4046821
   173   6 C      174   6 C                                       1.4202228
   172   6 C      175   6 C                                       1.4332770
   175   6 C      176   6 C                                       1.4154939
   173   6 C      178   6 C                                       1.4274175
   178   6 C      179   6 C                                       1.3848729
   179   6 C      180   6 C                                       1.3910303
   174   6 C      181   6 C                                       1.3890119
   180   6 C      181   6 C                                       1.3864444
   175   6 C      182   6 C                                       1.4156414
   182   6 C      183   6 C                                       1.3893256
   183   6 C      184   6 C                                       1.3970645
   176   6 C      185   6 C                                       1.3996958
   184   6 C      185   6 C                                       1.3772480
   165   5 B      186   8 O                                       1.4681227
   182   6 C      186   8 O                                       1.3596660
   167   6 C      187   8 O                                       1.3728742
   193   6 C      194   6 C                                       1.5307413
   193   6 C      195   6 C                                       1.5357459
   193   6 C      196   6 C                                       1.5361321
   197   6 C      198   6 C                                       1.5364715
   197   6 C      199   6 C                                       1.5345109
   197   6 C      200   6 C                                       1.5304678
   201   6 C      202   6 C                                       1.5358775
   201   6 C      203   6 C                                       1.5315138
   201   6 C      204   6 C                                       1.5356052
   205   6 C      206   6 C                                       1.5353216
   205   6 C      207   6 C                                       1.5344798
   205   6 C      208   6 C                                       1.5324803
   209   6 C      210   6 C                                       1.5359641
   209   6 C      211   6 C                                       1.5359543
   209   6 C      212   6 C                                       1.5304326
   213   6 C      214   6 C                                       1.5356198
   213   6 C      215   6 C                                       1.5315142
   213   6 C      216   6 C                                       1.5358829
   199   6 C      217   1 H                                       1.0921787
   199   6 C      218   1 H                                       1.0872785
   199   6 C      219   1 H                                       1.0871332
   200   6 C      220   1 H                                       1.0922195
   200   6 C      221   1 H                                       1.0879395
   200   6 C      222   1 H                                       1.0868520
   198   6 C      223   1 H                                       1.0920295
   198   6 C      224   1 H                                       1.0866379
   198   6 C      225   1 H                                       1.0884981
   212   6 C      226   1 H                                       1.0916330
   212   6 C      227   1 H                                       1.0869895
   212   6 C      228   1 H                                       1.0864707
   210   6 C      229   1 H                                       1.0914855
   210   6 C      230   1 H                                       1.0868706
   210   6 C      231   1 H                                       1.0876325
   211   6 C      232   1 H                                       1.0913833
   211   6 C      233   1 H                                       1.0875320
   211   6 C      234   1 H                                       1.0869384
   214   6 C      235   1 H                                       1.0924127
   214   6 C      236   1 H                                       1.0884142
   214   6 C      237   1 H                                       1.0862579
   215   6 C      238   1 H                                       1.0924079
   215   6 C      239   1 H                                       1.0872502
   215   6 C      240   1 H                                       1.0873854
   216   6 C      241   1 H                                       1.0923908
   216   6 C      242   1 H                                       1.0862892
   216   6 C      243   1 H                                       1.0882953
   195   6 C      244   1 H                                       1.0913158
   195   6 C      245   1 H                                       1.0876231
   195   6 C      246   1 H                                       1.0866035
   196   6 C      247   1 H                                       1.0914217
   196   6 C      248   1 H                                       1.0872648
   196   6 C      249   1 H                                       1.0879506
   194   6 C      250   1 H                                       1.0914901
   194   6 C      251   1 H                                       1.0869656
   194   6 C      252   1 H                                       1.0866860
   206   6 C      253   1 H                                       1.0916757
   206   6 C      254   1 H                                       1.0891613
   206   6 C      255   1 H                                       1.0856215
   208   6 C      256   1 H                                       1.0918876
   208   6 C      257   1 H                                       1.0871289
   208   6 C      258   1 H                                       1.0880033
   207   6 C      259   1 H                                       1.0919332
   207   6 C      260   1 H                                       1.0859289
   207   6 C      261   1 H                                       1.0877268
   202   6 C      262   1 H                                       1.0923945
   202   6 C      263   1 H                                       1.0862748
   202   6 C      264   1 H                                       1.0883153
   204   6 C      265   1 H                                       1.0924173
   204   6 C      266   1 H                                       1.0884092
   204   6 C      267   1 H                                       1.0862476
   203   6 C      268   1 H                                       1.0924131
   203   6 C      269   1 H                                       1.0872744
   203   6 C      270   1 H                                       1.0873830
   156   6 C      271   1 H                                       1.0808703
   158   6 C      272   1 H                                       1.0830710
   146   6 C      273   1 H                                       1.0812182
   142   6 C      274   1 H                                       1.0743302
   162   6 C      275   1 H                                       1.0817475
   160   6 C      276   1 H                                       1.0720213
   183   6 C      277   1 H                                       1.0743856
   185   6 C      278   1 H                                       1.0813002
   179   6 C      279   1 H                                       1.0830805
   181   6 C      280   1 H                                       1.0808392
   170   6 C      281   1 H                                       1.0798202
Note: The following floating-point exceptions are signalling: IEEE_UNDERFLOW_FLAG
normal termination of xtb
   166   6 C      282   1 H                                       1.0738363

 * 4 distinct bonds (by element types)

   Z      Z             #   av. dist./Å        max./Å        min./Å
   1 H    6 C         132     1.0870203     1.0924599     1.0719214
   6 C    6 C         112     1.4434023     1.5364967     1.3677888
   5 B    8 O           4     1.4706591     1.4733520     1.4681227
   6 C    8 O           8     1.3673399     1.3733754     1.3584570


optimized geometry written to: xtbopt.mol


           -------------------------------------------------
          | TOTAL ENERGY             -418.980412119541 Eh   |
          | GRADIENT NORM               0.000469824568 Eh/α |
          | HOMO-LUMO GAP               1.052061693392 eV   |
           -------------------------------------------------
########################################################################
[WARNING] Runtime exception occurred
-2- restart_readRestart: Multiplicity missmatch in restart file.
-1- restart_readRestart: Number of electron missmatch in restart file.
########################################################################

------------------------------------------------------------------------
 * finished run on 2024/11/12 at 12:08:55.334     
------------------------------------------------------------------------
 total:
 * wall-time:     0 d,  0 h, 17 min, 19.425 sec
 *  cpu-time:     0 d,  1 h,  6 min,  3.110 sec
 * ratio c/w:     3.813 speedup
 SCF:
 * wall-time:     0 d,  0 h,  0 min,  4.257 sec
 *  cpu-time:     0 d,  0 h,  0 min, 17.358 sec
 * ratio c/w:     4.077 speedup
 ANC optimizer:
 * wall-time:     0 d,  0 h, 17 min, 15.089 sec
 *  cpu-time:     0 d,  1 h,  5 min, 45.641 sec
 * ratio c/w:     3.812 speedup

