      -----------------------------------------------------------      
     |                   =====================                   |     
     |                           x T B                           |     
     |                   =====================                   |     
     |                         S. Grimme                         |     
     |          Mulliken Center for Theoretical Chemistry        |     
     |                    University of Bonn                     |     
      -----------------------------------------------------------      

   * xtb version 6.6.1 (8d0f1dd) compiled by 'runner@Mac-1690902418499.local' on 2023-08-01

   xtb is free software: you can redistribute it and/or modify it under
   the terms of the GNU Lesser General Public License as published by
   the Free Software Foundation, either version 3 of the License, or
   (at your option) any later version.
   
   xtb is distributed in the hope that it will be useful,
   but WITHOUT ANY WARRANTY; without even the implied warranty of
   MERCHANTABILITY or FITNESS FOR A PARTICULAR PURPOSE.  See the
   GNU Lesser General Public License for more details.
   
   Cite this work as:
   * C. Bannwarth, E. Caldeweyher, S. Ehlert, A. Hansen, P. Pracht,
     J. Seibert, S. Spicher, S. Grimme, WIREs Comput. Mol. Sci., 2020, 11,
     e01493. DOI: 10.1002/wcms.1493
   
   for GFN2-xTB:
   * C. Bannwarth, S. Ehlert and S. Grimme., J. Chem. Theory Comput., 2019,
     15, 1652-1671. DOI: 10.1021/acs.jctc.8b01176
   for GFN1-xTB:
   * S. Grimme, C. Bannwarth, P. Shushkov, J. Chem. Theory Comput., 2017,
     13, 1989-2009. DOI: 10.1021/acs.jctc.7b00118
   for GFN0-xTB:
   * P. Pracht, E. Caldeweyher, S. Ehlert, S. Grimme, ChemRxiv, 2019, preprint.
     DOI: 10.26434/chemrxiv.8326202.v1
   for GFN-FF:
   * S. Spicher and S. Grimme, Angew. Chem. Int. Ed., 2020, 59, 15665-15673.
     DOI: 10.1002/anie.202004239
   
   for ALPB and GBSA implicit solvation:
   * S. Ehlert, M. Stahn, S. Spicher, S. Grimme, J. Chem. Theory Comput.,
     2021, 17, 4250-4261. DOI: 10.1021/acs.jctc.1c00471
   
   for DFT-D4:
   * E. Caldeweyher, C. Bannwarth and S. Grimme, J. Chem. Phys., 2017,
     147, 034112. DOI: 10.1063/1.4993215
   * E. Caldeweyher, S. Ehlert, A. Hansen, H. Neugebauer, S. Spicher,
     C. Bannwarth and S. Grimme, J. Chem. Phys., 2019, 150, 154122.
     DOI: 10.1063/1.5090222
   * E. Caldeweyher, J.-M. Mewes, S. Ehlert and S. Grimme, Phys. Chem. Chem. Phys.
     2020, 22, 8499-8512. DOI: 10.1039/D0CP00502A
   
   for sTDA-xTB:
   * S. Grimme and C. Bannwarth, J. Chem. Phys., 2016, 145, 054103.
     DOI: 10.1063/1.4959605
   
   in the mass-spec context:
   * V. Asgeirsson, C. Bauer and S. Grimme, Chem. Sci., 2017, 8, 4879.
     DOI: 10.1039/c7sc00601b
   * J. Koopman and S. Grimme, ACS Omega 2019, 4, 12, 15120-15133.
     DOI: 10.1021/acsomega.9b02011
   
   for metadynamics refer to:
   * S. Grimme, J. Chem. Theory Comput., 2019, 155, 2847-2862
     DOI: 10.1021/acs.jctc.9b00143
   
   for SPH calculations refer to:
   * S. Spicher and S. Grimme, J. Chem. Theory Comput., 2021, 17, 1701-1714
     DOI: 10.1021/acs.jctc.0c01306
   
   with help from (in alphabetical order)
   P. Atkinson, C. Bannwarth, F. Bohle, G. Brandenburg, E. Caldeweyher
   M. Checinski, S. Dohm, S. Ehlert, S. Ehrlich, I. Gerasimov, C. Hölzer
   A. Katbashev, J. Koopman, C. Lavigne, S. Lehtola, F. März, M. Müller,
   F. Musil, H. Neugebauer, J. Pisarek, C. Plett, P. Pracht, F. Pultar,
   J. Seibert, P. Shushkov, S. Spicher, M. Stahn, M. Steiner, T. Strunk,
   J. Stückrath, T. Rose, and J. Unsleber
   
 * started run on 2024/11/12 at 11:19:51.721     

           -------------------------------------------------
          |                Calculation Setup                |
           -------------------------------------------------

          program call               : xtb Katherine2.mol --opt --gfn2 --chrg -1 --uhf 0 --tight
          coordinate file            : Katherine2.mol
          omp threads                :                     8

   ID    Z sym.   atoms
    1    6 C      1-21, 25-44, 47, 52-75
    2    8 O      22, 23, 45, 46, 48-51
    3    5 B      24
    4    1 H      76-141
########################################################################
[WARNING] Please study the warnings concerning your input carefully
-2- prog_main: Charge in sdf/mol input was overwritten
-1- prog_main_parseArguments: Unknown option '--tight' provided
########################################################################

           -------------------------------------------------
          |                 G F N 2 - x T B                 |
           -------------------------------------------------

        Reference                      10.1021/acs.jctc.8b01176
      * Hamiltonian:
        H0-scaling (s, p, d)           1.850000    2.230000    2.230000
        zeta-weighting                 0.500000
      * Dispersion:
        s8                             2.700000
        a1                             0.520000
        a2                             5.000000
        s9                             5.000000
      * Repulsion:
        kExp                           1.500000    1.000000
        rExp                           1.000000
      * Coulomb:
        alpha                          2.000000
        third order                    shell-resolved
        anisotropic                    true
        a3                             3.000000
        a5                             4.000000
        cn-shift                       1.200000
        cn-exp                         4.000000
        max-rad                        5.000000

q/qsh data taken from xtbrestart
CAMM data taken from xtbrestart

          ...................................................
          :                      SETUP                      :
          :.................................................:
          :  # basis functions                 366          :
          :  # atomic orbitals                 366          :
          :  # shells                          216          :
          :  # electrons                       382          :
          :  max. iterations                   250          :
          :  Hamiltonian                  GFN2-xTB          :
          :  restarted?                       true          :
          :  GBSA solvation                  false          :
          :  PC potential                    false          :
          :  electronic temp.          300.0000000     K    :
          :  accuracy                    1.0000000          :
          :  -> integral cutoff          0.2500000E+02      :
          :  -> integral neglect         0.1000000E-07      :
          :  -> SCF convergence          0.1000000E-05 Eh   :
          :  -> wf. convergence          0.1000000E-03 e    :
          :  Broyden damping             0.4000000          :
          ...................................................

 iter      E             dE          RMSdq      gap      omega  full diag
   1   -212.2658596 -0.212266E+03  0.114E+00    0.03       0.0  T
   2   -212.1247305  0.141129E+00  0.996E-01    0.39       1.0  T
   3   -211.9415169  0.183214E+00  0.122E+00    1.05       1.0  T
   4   -212.1587201 -0.217203E+00  0.703E-01    0.64       1.0  T
   5   -212.3038010 -0.145081E+00  0.168E-01    0.02       1.0  T
   6   -212.2643867  0.394143E-01  0.349E-01    0.07       1.0  T
   7   -212.1580537  0.106333E+00  0.647E-01    0.28       1.0  T
   8   -212.2503999 -0.923461E-01  0.388E-01    0.08       1.0  T
   9   -212.2691160 -0.187161E-01  0.318E-01    0.07       1.0  T
  10   -212.3041203 -0.350044E-01  0.718E-02    0.03       1.0  T
  11   -212.3057734 -0.165305E-02  0.203E-02    0.02       1.0  T
  12   -212.3059262 -0.152777E-03  0.216E-03    0.02       3.9  T
  13   -212.3058391  0.870790E-04  0.155E-02    0.02       1.0  T
  14   -212.3059265 -0.874051E-04  0.400E-04    0.02      21.1  T
  15   -212.3059262  0.270868E-06  0.905E-04    0.02       9.3  T
  16   -212.3059262  0.675806E-08  0.895E-04    0.02       9.4  T

   *** convergence criteria satisfied after 16 iterations ***

         #    Occupation            Energy/Eh            Energy/eV
      -------------------------------------------------------------
         1        2.0000           -0.6080231             -16.5451
       ...           ...                  ...                  ...
       185        2.0000           -0.2968167              -8.0768
       186        2.0000           -0.2959111              -8.0522
       187        2.0000           -0.2934020              -7.9839
       188        2.0000           -0.2910501              -7.9199
       189        2.0000           -0.2883534              -7.8465
       190        2.0000           -0.2879886              -7.8366
       191        1.2085           -0.2519643              -6.8563 (HOMO)
       192        0.7915           -0.2511600              -6.8344 (LUMO)
       193                         -0.2078297              -5.6553
       194                         -0.2072466              -5.6395
       195                         -0.1755995              -4.7783
       196                         -0.1746457              -4.7524
       ...                                ...                  ...
       366                          1.0996131              29.9220
      -------------------------------------------------------------
                  HL-Gap            0.0008043 Eh            0.0219 eV
             Fermi-level           -0.2515621 Eh           -6.8454 eV

 SCC (total)                   0 d,  0 h,  0 min,  2.084 sec
 SCC setup                      ...        0 min,  0.000 sec (  0.020%)
 Dispersion                     ...        0 min,  0.002 sec (  0.078%)
 classical contributions        ...        0 min,  0.000 sec (  0.019%)
 integral evaluation            ...        0 min,  0.008 sec (  0.366%)
 iterations                     ...        0 min,  2.011 sec ( 96.502%)
 molecular gradient             ...        0 min,  0.061 sec (  2.927%)
 printout                       ...        0 min,  0.002 sec (  0.087%)

         :::::::::::::::::::::::::::::::::::::::::::::::::::::
         ::                     SUMMARY                     ::
         :::::::::::::::::::::::::::::::::::::::::::::::::::::
         :: total energy            -209.023440532370 Eh    ::
         :: gradient norm              0.296092129800 Eh/a0 ::
         :: HOMO-LUMO gap              0.021885106168 eV    ::
         ::.................................................::
         :: SCC energy              -212.305926226833 Eh    ::
         :: -> isotropic ES            0.349300295059 Eh    ::
         :: -> anisotropic ES          0.012564070394 Eh    ::
         :: -> anisotropic XC          0.070366494955 Eh    ::
         :: -> dispersion             -0.206883652979 Eh    ::
         :: repulsion energy           3.279566034305 Eh    ::
         :: add. restraining           0.000000000000 Eh    ::
         :: total charge              -0.999995879101 e     ::
         :::::::::::::::::::::::::::::::::::::::::::::::::::::

      ----------------------------------------------------------- 
     |                   =====================                   |
     |                        A N C O P T                        |
     |                   =====================                   |
     |               Approximate Normal Coordinate               |
     |                Rational Function Optimizer                |
      ----------------------------------------------------------- 

          ...................................................
          :                      SETUP                      :
          :.................................................:
          :   optimization level            normal          :
          :   max. optcycles                   423          :
          :   ANC micro-cycles                  20          :
          :   degrees of freedom               417          :
          :.................................................:
          :   RF solver                   davidson          :
          :   write xtbopt.log                true          :
          :   linear?                        false          :
          :   energy convergence         0.5000000E-05 Eh   :
          :   grad. convergence          0.1000000E-02 Eh/α :
          :   maxmium RF displ.          1.0000000          :
          :   Hlow (freq-cutoff)         0.1000000E-01      :
          :   Hmax (freq-cutoff)         5.0000000          :
          :   S6 in model hess.         20.0000000          :
          ...................................................

generating ANC from model Hessian ...
Using Lindh-Hessian (1995)
 Shifting diagonal of input Hessian by    9.9710332750351446E-003
 Lowest  eigenvalues of input Hessian
    0.000000    0.000000    0.000000    0.000000    0.000000    0.000000
    0.010000    0.010040    0.010062    0.010233    0.010269    0.010384
    0.010389    0.010428    0.010703    0.010729    0.010781    0.010975
 Highest eigenvalues
    2.018941    2.023626    2.188521    2.189969    2.214259    2.215411


........................................................................
.............................. CYCLE    1 ..............................
........................................................................

 iter      E             dE          RMSdq      gap      omega  full diag
   1   -212.3059264 -0.212306E+03  0.542E-04    0.02       0.0  T
   2   -212.3058522  0.742213E-04  0.143E-02    0.02       1.0  T
   3   -212.3059265 -0.743247E-04  0.938E-05    0.02      89.8  T
   4   -212.3059265 -0.146758E-08  0.647E-05    0.02     130.2  T
   5   -212.3059265 -0.981544E-09  0.364E-05    0.02     231.4  T
     SCC iter.                  ...        0 min,  0.505 sec
     gradient                   ...        0 min,  0.072 sec
 * total energy  :  -209.0234408 Eh     change       -0.2921065E-06 Eh
   gradient norm :     0.2960931 Eh/α   predicted     0.0000000E+00 (-100.00%)
   displ. norm   :     0.6477531 α      lambda       -0.1516717E+00
   maximum displ.:     0.1453869 α      in ANC's #154, #84, #161, ...

........................................................................
.............................. CYCLE    2 ..............................
........................................................................

 iter      E             dE          RMSdq      gap      omega  full diag
   1   -212.3431628 -0.212343E+03  0.245E-01    0.02       0.0  T
   2   -212.2421698  0.100993E+00  0.538E-01    0.16       1.0  T
   3   -212.2114197  0.307501E-01  0.613E-01    0.24       1.0  T
   4   -212.3367552 -0.125335E+00  0.169E-01    0.03       1.0  T
   5   -212.3390330 -0.227781E-02  0.127E-01    0.03       1.0  T
   6   -212.3423022 -0.326921E-02  0.899E-02    0.02       1.0  T
   7   -212.3441991 -0.189696E-02  0.570E-02    0.02       1.0  T
   8   -212.3454617 -0.126251E-02  0.125E-02    0.02       1.0  T
   9   -212.3455217 -0.599930E-04  0.146E-03    0.02       5.8  T
  10   -212.3455218 -0.155198E-06  0.107E-03    0.02       7.9  T
  11   -212.3455220 -0.203602E-06  0.629E-04    0.02      13.4  T
  12   -212.3455221 -0.925150E-07  0.375E-04    0.02      22.5  T
     SCC iter.                  ...        0 min,  1.047 sec
     gradient                   ...        0 min,  0.061 sec
 * total energy  :  -209.1369363 Eh     change       -0.1134955E+00 Eh
   gradient norm :     0.1433406 Eh/α   predicted    -0.1076919E+00 (  -5.11%)
   displ. norm   :     0.6262345 α      lambda       -0.7015416E-01
   maximum displ.:     0.1763377 α      in ANC's #146, #84, #111, ...

........................................................................
.............................. CYCLE    3 ..............................
........................................................................

 iter      E             dE          RMSdq      gap      omega  full diag
   1   -212.3441420 -0.212344E+03  0.179E-01    0.01       0.0  T
   2   -212.3382445  0.589754E-02  0.176E-01    0.03       1.0  T
   3   -212.2175741  0.120670E+00  0.560E-01    0.27       1.0  T
   4   -212.3430086 -0.125435E+00  0.834E-02    0.02       1.0  T
   5   -212.3374948  0.551385E-02  0.133E-01    0.03       1.0  T
   6   -212.3417831 -0.428833E-02  0.868E-02    0.02       1.0  T
   7   -212.3448675 -0.308441E-02  0.234E-02    0.02       1.0  T
   8   -212.3450891 -0.221580E-03  0.436E-03    0.02       1.9  T
   9   -212.3450964 -0.730879E-05  0.876E-04    0.02       9.6  T
  10   -212.3450947  0.170515E-05  0.210E-03    0.02       4.0  T
  11   -212.3450963 -0.160298E-05  0.724E-04    0.02      11.6  T
  12   -212.3450964 -0.127411E-06  0.464E-04    0.02      18.1  T
  13   -212.3450965 -0.923022E-07  0.672E-05    0.02     125.3  T
     SCC iter.                  ...        0 min,  0.795 sec
     gradient                   ...        0 min,  0.065 sec
 * total energy  :  -209.1876575 Eh     change       -0.5072114E-01 Eh
   gradient norm :     0.0535750 Eh/α   predicted    -0.4883326E-01 (  -3.72%)
   displ. norm   :     0.6894270 α      lambda       -0.3201120E-01
   maximum displ.:     0.2419409 α      in ANC's #84, #18, #70, ...

........................................................................
.............................. CYCLE    4 ..............................
........................................................................

 iter      E             dE          RMSdq      gap      omega  full diag
   1   -212.3547460 -0.212355E+03  0.144E-01    0.01       0.0  T
   2   -212.3537334  0.101256E-02  0.997E-02    0.02       1.0  T
   3   -212.2349937  0.118740E+00  0.527E-01    0.29       1.0  T
   4   -212.3517044 -0.116711E+00  0.868E-02    0.02       1.0  T
   5   -212.3543621 -0.265776E-02  0.349E-02    0.01       1.0  T
   6   -212.3546268 -0.264683E-03  0.250E-02    0.01       1.0  T
   7   -212.3548308 -0.203995E-03  0.117E-02    0.01       1.0  T
   8   -212.3548800 -0.491798E-04  0.492E-03    0.01       1.7  T
   9   -212.3548897 -0.966649E-05  0.134E-03    0.01       6.3  T
  10   -212.3548887  0.988530E-06  0.200E-03    0.01       4.2  T
  11   -212.3548901 -0.147933E-05  0.841E-04    0.01      10.0  T
  12   -212.3548905 -0.307882E-06  0.141E-04    0.01      59.8  T
  13   -212.3548905 -0.805440E-08  0.216E-05    0.01     390.3  T
     SCC iter.                  ...        0 min,  0.867 sec
     gradient                   ...        0 min,  0.059 sec
 * total energy  :  -209.2128918 Eh     change       -0.2523438E-01 Eh
   gradient norm :     0.0338378 Eh/α   predicted    -0.2361322E-01 (  -6.42%)
   displ. norm   :     0.7261092 α      lambda       -0.1983548E-01
   maximum displ.:     0.2714854 α      in ANC's #18, #84, #70, ...

........................................................................
.............................. CYCLE    5 ..............................
........................................................................

 iter      E             dE          RMSdq      gap      omega  full diag
   1   -212.3640934 -0.212364E+03  0.132E-01    0.01       0.0  T
   2   -212.3600986  0.399482E-02  0.122E-01    0.02       1.0  T
   3   -212.2497366  0.110362E+00  0.513E-01    0.25       1.0  T
   4   -212.3479843 -0.982476E-01  0.190E-01    0.04       1.0  T
   5   -212.3641280 -0.161437E-01  0.111E-02    0.01       1.0  T
   6   -212.3641559 -0.278710E-04  0.571E-03    0.01       1.5  T
   7   -212.3641594 -0.352202E-05  0.447E-03    0.01       1.9  T
   8   -212.3641595 -0.153287E-06  0.427E-03    0.01       2.0  T
   9   -212.3641650 -0.546554E-05  0.263E-03    0.01       3.2  T
  10   -212.3641680 -0.303012E-05  0.343E-04    0.01      24.6  T
  11   -212.3641680 -0.632267E-08  0.291E-04    0.01      29.0  T
  12   -212.3641681 -0.311497E-07  0.107E-04    0.01      79.0  T
     SCC iter.                  ...        0 min,  1.190 sec
     gradient                   ...        0 min,  0.064 sec
 * total energy  :  -209.2290910 Eh     change       -0.1619916E-01 Eh
   gradient norm :     0.0263096 Eh/α   predicted    -0.1514671E-01 (  -6.50%)
   displ. norm   :     0.7454217 α      lambda       -0.1341878E-01
   maximum displ.:     0.3200199 α      in ANC's #18, #70, #29, ...

........................................................................
.............................. CYCLE    6 ..............................
........................................................................

 iter      E             dE          RMSdq      gap      omega  full diag
   1   -212.3713352 -0.212371E+03  0.121E-01    0.01       0.0  T
   2   -212.3669143  0.442092E-02  0.122E-01    0.02       1.0  T
   3   -212.2624119  0.104502E+00  0.499E-01    0.21       1.0  T
   4   -212.3605990 -0.981870E-01  0.155E-01    0.04       1.0  T
   5   -212.3713572 -0.107582E-01  0.105E-02    0.01       1.0  T
   6   -212.3713490  0.821978E-05  0.996E-03    0.01       1.0  T
   7   -212.3713757 -0.267512E-04  0.643E-03    0.01       1.3  T
   8   -212.3713850 -0.929928E-05  0.448E-03    0.01       1.9  T
   9   -212.3713937 -0.863731E-05  0.126E-03    0.01       6.7  T
  10   -212.3713942 -0.487473E-06  0.627E-04    0.01      13.4  T
  11   -212.3713941  0.683711E-07  0.739E-04    0.01      11.4  T
     SCC iter.                  ...        0 min,  0.885 sec
     gradient                   ...        0 min,  0.070 sec
 * total energy  :  -209.2401737 Eh     change       -0.1108268E-01 Eh
   gradient norm :     0.0178087 Eh/α   predicted    -0.1043749E-01 (  -5.82%)
   displ. norm   :     0.7538533 α      lambda       -0.9311298E-02
   maximum displ.:     0.3531907 α      in ANC's #18, #29, #70, ...

........................................................................
.............................. CYCLE    7 ..............................
........................................................................

 iter      E             dE          RMSdq      gap      omega  full diag
   1   -212.3778428 -0.212378E+03  0.107E-01    0.00       0.0  T
   2   -212.3731681  0.467468E-02  0.119E-01    0.02       1.0  T
   3   -212.2782821  0.948860E-01  0.475E-01    0.17       1.0  T
   4   -212.3722467 -0.939646E-01  0.113E-01    0.02       1.0  T
   5   -212.3777991 -0.555241E-02  0.154E-02    0.00       1.0  T
   6   -212.3778580 -0.589579E-04  0.914E-03    0.00       1.0  T
   7   -212.3778905 -0.324399E-04  0.373E-03    0.00       2.3  T
   8   -212.3778961 -0.561900E-05  0.101E-03    0.00       8.4  T
   9   -212.3778964 -0.340624E-06  0.436E-04    0.00      19.3  T
  10   -212.3778964  0.235825E-07  0.433E-04    0.00      19.4  T
     SCC iter.                  ...        0 min,  0.638 sec
     gradient                   ...        0 min,  0.065 sec
 * total energy  :  -209.2479373 Eh     change       -0.7763659E-02 Eh
   gradient norm :     0.0128260 Eh/α   predicted    -0.7301434E-02 (  -5.95%)
   displ. norm   :     0.7570321 α      lambda       -0.6686469E-02
   maximum displ.:     0.3715599 α      in ANC's #18, #29, #16, ...

........................................................................
.............................. CYCLE    8 ..............................
........................................................................

 iter      E             dE          RMSdq      gap      omega  full diag
   1   -212.3834668 -0.212383E+03  0.939E-02    0.01       0.0  T
   2   -212.3700466  0.134202E-01  0.180E-01    0.04       1.0  T
   3   -212.3243952  0.456514E-01  0.366E-01    0.10       1.0  T
   4   -212.3826931 -0.582979E-01  0.460E-02    0.01       1.0  T
   5   -212.3833941 -0.700988E-03  0.179E-02    0.01       1.0  T
   6   -212.3835322 -0.138089E-03  0.265E-03    0.01       3.2  T
   7   -212.3835344 -0.224254E-05  0.933E-04    0.01       9.0  T
   8   -212.3835340  0.440919E-06  0.119E-03    0.01       7.0  T
   9   -212.3835346 -0.576199E-06  0.249E-04    0.01      33.9  T
  10   -212.3835346 -0.180164E-07  0.112E-04    0.01      75.3  T
     SCC iter.                  ...        0 min,  0.749 sec
     gradient                   ...        0 min,  0.061 sec
 * total energy  :  -209.2535351 Eh     change       -0.5597717E-02 Eh
   gradient norm :     0.0112174 Eh/α   predicted    -0.5259257E-02 (  -6.05%)
   displ. norm   :     0.7494220 α      lambda       -0.4851044E-02
   maximum displ.:     0.3711062 α      in ANC's #18, #29, #4, ...

........................................................................
.............................. CYCLE    9 ..............................
........................................................................

 iter      E             dE          RMSdq      gap      omega  full diag
   1   -212.3886494 -0.212389E+03  0.853E-02    0.01       0.0  T
   2   -212.3805435  0.810588E-02  0.141E-01    0.03       1.0  T
   3   -212.3255843  0.549592E-01  0.377E-01    0.10       1.0  T
   4   -212.3878003 -0.622160E-01  0.465E-02    0.01       1.0  T
   5   -212.3885907 -0.790459E-03  0.153E-02    0.01       1.0  T
   6   -212.3886909 -0.100185E-03  0.266E-03    0.01       3.2  T
   7   -212.3886935 -0.262865E-05  0.841E-04    0.01      10.0  T
   8   -212.3886931  0.484889E-06  0.121E-03    0.01       7.0  T
   9   -212.3886937 -0.595260E-06  0.273E-04    0.01      30.9  T
  10   -212.3886937 -0.256570E-07  0.117E-04    0.01      72.1  T
     SCC iter.                  ...        0 min,  0.692 sec
     gradient                   ...        0 min,  0.075 sec
 * total energy  :  -209.2575555 Eh     change       -0.4020406E-02 Eh
   gradient norm :     0.0100306 Eh/α   predicted    -0.3787796E-02 (  -5.79%)
   displ. norm   :     0.7237866 α      lambda       -0.3393150E-02
   maximum displ.:     0.3491863 α      in ANC's #18, #29, #4, ...

........................................................................
.............................. CYCLE   10 ..............................
........................................................................

 iter      E             dE          RMSdq      gap      omega  full diag
   1   -212.3923601 -0.212392E+03  0.763E-02    0.02       0.0  T
   2   -212.3874425  0.491763E-02  0.112E-01    0.03       1.0  T
   3   -212.3305264  0.569161E-01  0.372E-01    0.10       1.0  T
   4   -212.3919825 -0.614561E-01  0.322E-02    0.02       1.0  T
   5   -212.3923163 -0.333842E-03  0.129E-02    0.02       1.0  T
   6   -212.3923868 -0.704764E-04  0.284E-03    0.02       3.0  T
   7   -212.3923897 -0.290264E-05  0.136E-03    0.02       6.2  T
   8   -212.3923903 -0.579294E-06  0.612E-04    0.02      13.8  T
   9   -212.3923904 -0.113650E-06  0.279E-04    0.02      30.2  T
     SCC iter.                  ...        0 min,  0.573 sec
     gradient                   ...        0 min,  0.068 sec
 * total energy  :  -209.2603070 Eh     change       -0.2751560E-02 Eh
   gradient norm :     0.0082134 Eh/α   predicted    -0.2585357E-02 (  -6.04%)
   displ. norm   :     0.6830008 α      lambda       -0.2276296E-02
   maximum displ.:     0.3061378 α      in ANC's #18, #4, #29, ...

........................................................................
.............................. CYCLE   11 ..............................
........................................................................

 iter      E             dE          RMSdq      gap      omega  full diag
   1   -212.3947602 -0.212395E+03  0.709E-02    0.02       0.0  T
   2   -212.3923869  0.237333E-02  0.822E-02    0.02       1.0  T
   3   -212.3243452  0.680418E-01  0.396E-01    0.12       1.0  T
   4   -212.3942352 -0.698901E-01  0.355E-02    0.02       1.0  T
   5   -212.3947263 -0.491066E-03  0.103E-02    0.02       1.0  T
   6   -212.3947708 -0.445086E-04  0.262E-03    0.02       3.2  T
   7   -212.3947733 -0.249456E-05  0.126E-03    0.02       6.7  T
   8   -212.3947737 -0.388961E-06  0.745E-04    0.02      11.3  T
   9   -212.3947739 -0.204891E-06  0.276E-04    0.02      30.5  T
     SCC iter.                  ...        0 min,  0.579 sec
     gradient                   ...        0 min,  0.064 sec
 * total energy  :  -209.2621267 Eh     change       -0.1819633E-02 Eh
   gradient norm :     0.0079158 Eh/α   predicted    -0.1669084E-02 (  -8.27%)
   displ. norm   :     0.6469422 α      lambda       -0.1619702E-02
   maximum displ.:     0.2696927 α      in ANC's #4, #18, #29, ...

........................................................................
.............................. CYCLE   12 ..............................
........................................................................

 iter      E             dE          RMSdq      gap      omega  full diag
   1   -212.3966816 -0.212397E+03  0.598E-02    0.02       0.0  T
   2   -212.3966705  0.110552E-04  0.357E-02    0.02       1.0  T
   3   -212.3673260  0.293445E-01  0.255E-01    0.06       1.0  T
   4   -212.3959920 -0.286661E-01  0.396E-02    0.02       1.0  T
   5   -212.3966909 -0.698878E-03  0.284E-03    0.02       3.0  T
   6   -212.3966931 -0.218562E-05  0.112E-03    0.02       7.5  T
   7   -212.3966934 -0.325818E-06  0.506E-04    0.02      16.6  T
   8   -212.3966935 -0.497448E-07  0.218E-04    0.02      38.7  T
     SCC iter.                  ...        0 min,  0.605 sec
     gradient                   ...        0 min,  0.064 sec
 * total energy  :  -209.2634390 Eh     change       -0.1312381E-02 Eh
   gradient norm :     0.0086005 Eh/α   predicted    -0.1148804E-02 ( -12.46%)
   displ. norm   :     0.6430680 α      lambda       -0.1372951E-02
   maximum displ.:     0.3096957 α      in ANC's #4, #18, #29, ...

........................................................................
.............................. CYCLE   13 ..............................
........................................................................

 iter      E             dE          RMSdq      gap      omega  full diag
   1   -212.3967951 -0.212397E+03  0.579E-02    0.02       0.0  T
   2   -212.3923520  0.444315E-02  0.104E-01    0.03       1.0  T
   3   -212.3653002  0.270517E-01  0.265E-01    0.07       1.0  T
   4   -212.3967143 -0.314141E-01  0.155E-02    0.02       1.0  T
   5   -212.3967964 -0.821090E-04  0.557E-03    0.02       1.5  T
   6   -212.3968101 -0.136547E-04  0.737E-04    0.02      11.4  T
   7   -212.3968101 -0.488343E-07  0.495E-04    0.02      17.0  T
   8   -212.3968101 -0.160228E-07  0.315E-04    0.02      26.7  T
     SCC iter.                  ...        0 min,  0.676 sec
     gradient                   ...        0 min,  0.083 sec
 * total energy  :  -209.2645873 Eh     change       -0.1148307E-02 Eh
   gradient norm :     0.0077866 Eh/α   predicted    -0.9703622E-03 ( -15.50%)
   displ. norm   :     0.6622985 α      lambda       -0.1338212E-02
   maximum displ.:     0.3534251 α      in ANC's #4, #8, #7, ...

........................................................................
.............................. CYCLE   14 ..............................
........................................................................

 iter      E             dE          RMSdq      gap      omega  full diag
   1   -212.3981307 -0.212398E+03  0.534E-02    0.02       0.0  T
   2   -212.3822248  0.159059E-01  0.190E-01    0.05       1.0  T
   3   -212.3938114 -0.115866E-01  0.102E-01    0.03       1.0  T
   4   -212.3981306 -0.431921E-02  0.127E-02    0.02       1.0  T
   5   -212.3981784 -0.477014E-04  0.364E-03    0.02       2.3  T
   6   -212.3981825 -0.415940E-05  0.100E-03    0.02       8.4  T
   7   -212.3981827 -0.179454E-06  0.552E-04    0.02      15.2  T
   8   -212.3981827 -0.469367E-07  0.253E-04    0.02      33.3  T
     SCC iter.                  ...        0 min,  0.494 sec
     gradient                   ...        0 min,  0.064 sec
 * total energy  :  -209.2657082 Eh     change       -0.1120855E-02 Eh
   gradient norm :     0.0084125 Eh/α   predicted    -0.9626030E-03 ( -14.12%)
   displ. norm   :     0.6704721 α      lambda       -0.1240119E-02
   maximum displ.:     0.3816514 α      in ANC's #4, #8, #7, ...

........................................................................
.............................. CYCLE   15 ..............................
........................................................................

 iter      E             dE          RMSdq      gap      omega  full diag
   1   -212.3957160 -0.212396E+03  0.525E-02    0.02       0.0  T
   2   -212.3717139  0.240022E-01  0.231E-01    0.06       1.0  T
   3   -212.3907223 -0.190084E-01  0.110E-01    0.03       1.0  T
   4   -212.3957740 -0.505175E-02  0.878E-03    0.02       1.0  T
   5   -212.3957890 -0.149325E-04  0.294E-03    0.02       2.9  T
   6   -212.3957903 -0.130260E-05  0.134E-03    0.02       6.3  T
   7   -212.3957908 -0.544018E-06  0.516E-04    0.02      16.3  T
   8   -212.3957908  0.137868E-07  0.350E-04    0.02      24.1  T
     SCC iter.                  ...        0 min,  0.499 sec
     gradient                   ...        0 min,  0.063 sec
 * total energy  :  -209.2666944 Eh     change       -0.9862302E-03 Eh
   gradient norm :     0.0074730 Eh/α   predicted    -0.8988006E-03 (  -8.87%)
   displ. norm   :     0.6164451 α      lambda       -0.9436373E-03
   maximum displ.:     0.3682407 α      in ANC's #4, #8, #7, ...

........................................................................
.............................. CYCLE   16 ..............................
........................................................................

 iter      E             dE          RMSdq      gap      omega  full diag
   1   -212.3959547 -0.212396E+03  0.457E-02    0.02       0.0  T
   2   -212.3495889  0.463659E-01  0.321E-01    0.08       1.0  T
   3   -212.3960219 -0.464330E-01  0.278E-02    0.02       1.0  T
   4   -212.3959855  0.363728E-04  0.174E-02    0.02       1.0  T
   5   -212.3961047 -0.119236E-03  0.301E-03    0.02       2.8  T
   6   -212.3961075 -0.272453E-05  0.916E-04    0.02       9.2  T
   7   -212.3961076 -0.151115E-06  0.527E-04    0.02      16.0  T
   8   -212.3961077 -0.509071E-07  0.225E-04    0.02      37.5  T
     SCC iter.                  ...        0 min,  0.581 sec
     gradient                   ...        0 min,  0.147 sec
 * total energy  :  -209.2674162 Eh     change       -0.7217575E-03 Eh
   gradient norm :     0.0087679 Eh/α   predicted    -0.6511124E-03 (  -9.79%)
   displ. norm   :     0.5157187 α      lambda       -0.6561346E-03
   maximum displ.:     0.3206795 α      in ANC's #4, #8, #7, ...

........................................................................
.............................. CYCLE   17 ..............................
........................................................................

 iter      E             dE          RMSdq      gap      omega  full diag
   1   -212.3962156 -0.212396E+03  0.373E-02    0.02       0.0  T
   2   -212.3415347  0.546810E-01  0.348E-01    0.09       1.0  T
   3   -212.3960708 -0.545361E-01  0.324E-02    0.02       1.0  T
   4   -212.3963729 -0.302152E-03  0.878E-03    0.02       1.0  T
   5   -212.3963942 -0.213061E-04  0.242E-03    0.02       3.5  T
   6   -212.3963957 -0.146638E-05  0.106E-03    0.02       7.9  T
   7   -212.3963961 -0.403632E-06  0.358E-04    0.02      23.5  T
   8   -212.3963961 -0.103568E-07  0.198E-04    0.02      42.5  T
     SCC iter.                  ...        0 min,  0.648 sec
     gradient                   ...        0 min,  0.065 sec
 * total energy  :  -209.2679458 Eh     change       -0.5296094E-03 Eh
   gradient norm :     0.0062934 Eh/α   predicted    -0.4153230E-03 ( -21.58%)
   displ. norm   :     0.4701133 α      lambda       -0.5586520E-03
   maximum displ.:     0.3002416 α      in ANC's #4, #8, #7, ...

........................................................................
.............................. CYCLE   18 ..............................
........................................................................

 iter      E             dE          RMSdq      gap      omega  full diag
   1   -212.3984305 -0.212398E+03  0.289E-02    0.02       0.0  T
   2   -212.3968814  0.154909E-02  0.600E-02    0.03       1.0  T
   3   -212.3902164  0.666495E-02  0.136E-01    0.04       1.0  T
   4   -212.3984202 -0.820380E-02  0.770E-03    0.02       1.1  T
   5   -212.3984345 -0.143033E-04  0.249E-03    0.02       3.4  T
   6   -212.3984368 -0.230397E-05  0.747E-04    0.02      11.3  T
   7   -212.3984370 -0.153713E-06  0.328E-04    0.02      25.7  T
   8   -212.3984370 -0.208472E-07  0.903E-05    0.02      93.3  T
     SCC iter.                  ...        0 min,  0.576 sec
     gradient                   ...        0 min,  0.065 sec
 * total energy  :  -209.2684078 Eh     change       -0.4620512E-03 Eh
   gradient norm :     0.0058375 Eh/α   predicted    -0.3410615E-03 ( -26.19%)
   displ. norm   :     0.4987560 α      lambda       -0.5269341E-03
   maximum displ.:     0.3182205 α      in ANC's #4, #8, #7, ...

........................................................................
.............................. CYCLE   19 ..............................
........................................................................

 iter      E             dE          RMSdq      gap      omega  full diag
   1   -212.4007517 -0.212401E+03  0.403E-02    0.03       0.0  T
   2   -212.3278579  0.728938E-01  0.402E-01    0.12       1.0  T
   3   -212.4006006 -0.727427E-01  0.360E-02    0.03       1.0  T
   4   -212.4009649 -0.364288E-03  0.135E-02    0.02       1.0  T
   5   -212.4010345 -0.696355E-04  0.361E-03    0.02       2.3  T
   6   -212.4010398 -0.526611E-05  0.784E-04    0.02      10.7  T
   7   -212.4010400 -0.213342E-06  0.241E-04    0.02      34.9  T
   8   -212.4010400  0.241269E-08  0.156E-04    0.02      53.9  T
     SCC iter.                  ...        0 min,  1.197 sec
     gradient                   ...        0 min,  0.068 sec
 * total energy  :  -209.2688527 Eh     change       -0.4448271E-03 Eh
   gradient norm :     0.0062614 Eh/α   predicted    -0.3290071E-03 ( -26.04%)
   displ. norm   :     0.5430308 α      lambda       -0.5295592E-03
   maximum displ.:     0.3447534 α      in ANC's #4, #8, #3, ...

........................................................................
.............................. CYCLE   20 ..............................
........................................................................

 iter      E             dE          RMSdq      gap      omega  full diag
   1   -212.4014933 -0.212401E+03  0.370E-02    0.03       0.0  T
   2   -212.3836081  0.178852E-01  0.198E-01    0.05       1.0  T
   3   -212.3985485 -0.149404E-01  0.841E-02    0.03       1.0  T
   4   -212.4015157 -0.296716E-02  0.796E-03    0.03       1.1  T
   5   -212.4015386 -0.229475E-04  0.116E-03    0.03       7.3  T
   6   -212.4015388 -0.220086E-06  0.477E-04    0.03      17.7  T
   7   -212.4015388 -0.171028E-07  0.274E-04    0.03      30.8  T
     SCC iter.                  ...        0 min,  0.832 sec
     gradient                   ...        0 min,  0.074 sec
 * total energy  :  -209.2693036 Eh     change       -0.4509358E-03 Eh
   gradient norm :     0.0059341 Eh/α   predicted    -0.3428620E-03 ( -23.97%)
   displ. norm   :     0.5736701 α      lambda       -0.5143936E-03
   maximum displ.:     0.3639918 α      in ANC's #4, #3, #8, ...
 * RMSD in coord.:     0.8287082 α      energy gain  -0.2458631E+00 Eh

generating ANC from model Hessian ...
Using Lindh-Hessian (1995)
 Shifting diagonal of input Hessian by    1.0077931214148317E-002
 Lowest  eigenvalues of input Hessian
    0.010000    0.000000    0.000000    0.000000    0.000000    0.000000
    0.000000    0.010098    0.010112    0.010163    0.010191    0.010336
    0.010403    0.010454    0.010479    0.010580    0.010638    0.010658
 Highest eigenvalues
    2.079114    2.079308    2.218099    2.222066    2.238115    2.241291


........................................................................
.............................. CYCLE   21 ..............................
........................................................................

 iter      E             dE          RMSdq      gap      omega  full diag
   1   -212.4021802 -0.212402E+03  0.433E-02    0.03       0.0  T
   2   -212.3531150  0.490652E-01  0.329E-01    0.09       1.0  T
   3   -212.4004313 -0.473163E-01  0.689E-02    0.03       1.0  T
   4   -212.4021776 -0.174630E-02  0.185E-02    0.03       1.0  T
   5   -212.4023317 -0.154084E-03  0.150E-03    0.03       5.6  T
   6   -212.4023321 -0.356766E-06  0.470E-04    0.03      17.9  T
   7   -212.4023320  0.709799E-07  0.513E-04    0.03      16.4  T
     SCC iter.                  ...        0 min,  0.615 sec
     gradient                   ...        0 min,  0.065 sec
 * total energy  :  -209.2697409 Eh     change       -0.4373134E-03 Eh
   gradient norm :     0.0053973 Eh/α   predicted     0.0000000E+00 (-100.00%)
   displ. norm   :     0.0965344 α      lambda       -0.1540516E-03
   maximum displ.:     0.0401032 α      in ANC's #4, #7, #10, ...

........................................................................
.............................. CYCLE   22 ..............................
........................................................................

 iter      E             dE          RMSdq      gap      omega  full diag
   1   -212.4024101 -0.212402E+03  0.152E-02    0.03       0.0  T
   2   -212.3819928  0.204173E-01  0.212E-01    0.06       1.0  T
   3   -212.4024621 -0.204694E-01  0.635E-03    0.03       1.3  T
   4   -212.4024595  0.265349E-05  0.347E-03    0.03       2.4  T
   5   -212.4024622 -0.271669E-05  0.106E-03    0.03       8.0  T
   6   -212.4024626 -0.338152E-06  0.258E-04    0.03      32.6  T
   7   -212.4024626 -0.376860E-08  0.192E-04    0.03      43.9  T
     SCC iter.                  ...        0 min,  1.001 sec
     gradient                   ...        0 min,  0.080 sec
 * total energy  :  -209.2698773 Eh     change       -0.1363895E-03 Eh
   gradient norm :     0.0030404 Eh/α   predicted    -0.8115266E-04 ( -40.50%)
   displ. norm   :     0.3305381 α      lambda       -0.3882059E-03
   maximum displ.:     0.1412846 α      in ANC's #4, #7, #13, ...

........................................................................
.............................. CYCLE   23 ..............................
........................................................................

 iter      E             dE          RMSdq      gap      omega  full diag
   1   -212.4023578 -0.212402E+03  0.373E-02    0.03       0.0  T
   2   -212.3358511  0.665067E-01  0.384E-01    0.11       1.0  T
   3   -212.4026027 -0.667516E-01  0.176E-02    0.03       1.0  T
   4   -212.4026147 -0.120488E-04  0.648E-03    0.03       1.3  T
   5   -212.4026152 -0.416476E-06  0.391E-03    0.03       2.2  T
   6   -212.4026210 -0.587439E-05  0.127E-03    0.03       6.6  T
   7   -212.4026216 -0.616036E-06  0.475E-04    0.03      17.7  T
   8   -212.4026217 -0.258214E-07  0.328E-04    0.03      25.7  T
     SCC iter.                  ...        0 min,  1.836 sec
     gradient                   ...        0 min,  0.068 sec
 * total energy  :  -209.2701333 Eh     change       -0.2560218E-03 Eh
   gradient norm :     0.0049365 Eh/α   predicted    -0.2153189E-03 ( -15.90%)
   displ. norm   :     0.2572408 α      lambda       -0.1747715E-03
   maximum displ.:     0.1205730 α      in ANC's #4, #7, #10, ...

........................................................................
.............................. CYCLE   24 ..............................
........................................................................

 iter      E             dE          RMSdq      gap      omega  full diag
   1   -212.4022992 -0.212402E+03  0.210E-02    0.03       0.0  T
   2   -212.3809505  0.213488E-01  0.217E-01    0.06       1.0  T
   3   -212.4023163 -0.213658E-01  0.137E-02    0.03       1.0  T
   4   -212.4023481 -0.318381E-04  0.418E-03    0.03       2.0  T
   5   -212.4023530 -0.481984E-05  0.152E-03    0.03       5.6  T
   6   -212.4023539 -0.909090E-06  0.264E-04    0.03      31.8  T
   7   -212.4023539  0.247604E-08  0.218E-04    0.03      38.6  T
     SCC iter.                  ...        0 min,  0.590 sec
     gradient                   ...        0 min,  0.063 sec
 * total energy  :  -209.2702745 Eh     change       -0.1411928E-03 Eh
   gradient norm :     0.0058698 Eh/α   predicted    -0.9316901E-04 ( -34.01%)
   displ. norm   :     0.3854080 α      lambda       -0.2653215E-03
   maximum displ.:     0.1829906 α      in ANC's #4, #7, #1, ...

........................................................................
.............................. CYCLE   25 ..............................
........................................................................

 iter      E             dE          RMSdq      gap      omega  full diag
   1   -212.4027562 -0.212403E+03  0.253E-02    0.03       0.0  T
   2   -212.3864979  0.162583E-01  0.189E-01    0.05       1.0  T
   3   -212.4025920 -0.160940E-01  0.251E-02    0.03       1.0  T
   4   -212.4027925 -0.200500E-03  0.365E-03    0.03       2.3  T
   5   -212.4027963 -0.378485E-05  0.117E-03    0.03       7.2  T
   6   -212.4027966 -0.378940E-06  0.336E-04    0.03      25.1  T
   7   -212.4027967 -0.159662E-08  0.238E-04    0.03      35.3  T
     SCC iter.                  ...        0 min,  0.618 sec
     gradient                   ...        0 min,  0.060 sec
 * total energy  :  -209.2704945 Eh     change       -0.2199764E-03 Eh
   gradient norm :     0.0047328 Eh/α   predicted    -0.1523757E-03 ( -30.73%)
   displ. norm   :     0.4830827 α      lambda       -0.3036770E-03
   maximum displ.:     0.2374959 α      in ANC's #4, #7, #1, ...

........................................................................
.............................. CYCLE   26 ..............................
........................................................................

 iter      E             dE          RMSdq      gap      omega  full diag
   1   -212.4034836 -0.212403E+03  0.288E-02    0.03       0.0  T
   2   -212.3943071  0.917655E-02  0.143E-01    0.04       1.0  T
   3   -212.4027530 -0.844594E-02  0.436E-02    0.03       1.0  T
   4   -212.4035032 -0.750222E-03  0.383E-03    0.03       2.2  T
   5   -212.4035063 -0.303953E-05  0.101E-03    0.03       8.3  T
   6   -212.4035065 -0.192963E-06  0.403E-04    0.03      20.9  T
   7   -212.4035065 -0.214328E-08  0.300E-04    0.03      28.1  T
     SCC iter.                  ...        0 min,  0.481 sec
     gradient                   ...        0 min,  0.065 sec
 * total energy  :  -209.2707398 Eh     change       -0.2453465E-03 Eh
   gradient norm :     0.0035689 Eh/α   predicted    -0.1872758E-03 ( -23.67%)
   displ. norm   :     0.5160583 α      lambda       -0.2578581E-03
   maximum displ.:     0.2597859 α      in ANC's #4, #7, #1, ...

........................................................................
.............................. CYCLE   27 ..............................
........................................................................

 iter      E             dE          RMSdq      gap      omega  full diag
   1   -212.4038902 -0.212404E+03  0.292E-02    0.03       0.0  T
   2   -212.3952541  0.863609E-02  0.139E-01    0.04       1.0  T
   3   -212.4030587 -0.780461E-02  0.460E-02    0.03       1.0  T
   4   -212.4039085 -0.849820E-03  0.371E-03    0.03       2.3  T
   5   -212.4039113 -0.276390E-05  0.100E-03    0.03       8.4  T
   6   -212.4039115 -0.236227E-06  0.405E-04    0.03      20.8  T
   7   -212.4039115 -0.165208E-07  0.255E-04    0.03      33.0  T
     SCC iter.                  ...        0 min,  0.522 sec
     gradient                   ...        0 min,  0.065 sec
 * total energy  :  -209.2709517 Eh     change       -0.2118960E-03 Eh
   gradient norm :     0.0036955 Eh/α   predicted    -0.1632838E-03 ( -22.94%)
   displ. norm   :     0.5052581 α      lambda       -0.2269416E-03
   maximum displ.:     0.2627195 α      in ANC's #4, #7, #1, ...

........................................................................
.............................. CYCLE   28 ..............................
........................................................................

 iter      E             dE          RMSdq      gap      omega  full diag
   1   -212.4047313 -0.212405E+03  0.283E-02    0.03       0.0  T
   2   -212.3978242  0.690710E-02  0.124E-01    0.04       1.0  T
   3   -212.4037535 -0.592926E-02  0.491E-02    0.03       1.0  T
   4   -212.4047435 -0.990059E-03  0.451E-03    0.03       1.9  T
   5   -212.4047480 -0.452107E-05  0.121E-03    0.03       7.0  T
   6   -212.4047485 -0.489522E-06  0.398E-04    0.03      21.2  T
   7   -212.4047486 -0.264164E-07  0.203E-04    0.03      41.4  T
     SCC iter.                  ...        0 min,  0.534 sec
     gradient                   ...        0 min,  0.064 sec
 * total energy  :  -209.2711419 Eh     change       -0.1902022E-03 Eh
   gradient norm :     0.0041385 Eh/α   predicted    -0.1424384E-03 ( -25.11%)
   displ. norm   :     0.5043213 α      lambda       -0.2170423E-03
   maximum displ.:     0.2685104 α      in ANC's #4, #1, #7, ...

........................................................................
.............................. CYCLE   29 ..............................
........................................................................

 iter      E             dE          RMSdq      gap      omega  full diag
   1   -212.4051904 -0.212405E+03  0.279E-02    0.03       0.0  T
   2   -212.4003102  0.488025E-02  0.105E-01    0.04       1.0  T
   3   -212.4037133 -0.340310E-02  0.590E-02    0.03       1.0  T
   4   -212.4051933 -0.148007E-02  0.547E-03    0.03       1.5  T
   5   -212.4052020 -0.870692E-05  0.130E-03    0.03       6.5  T
   6   -212.4052027 -0.627616E-06  0.379E-04    0.03      22.2  T
   7   -212.4052027 -0.258840E-07  0.176E-04    0.03      47.8  T
     SCC iter.                  ...        0 min,  0.641 sec
     gradient                   ...        0 min,  0.072 sec
 * total energy  :  -209.2713285 Eh     change       -0.1865114E-03 Eh
   gradient norm :     0.0037635 Eh/α   predicted    -0.1361233E-03 ( -27.02%)
   displ. norm   :     0.5141639 α      lambda       -0.2271291E-03
   maximum displ.:     0.2820173 α      in ANC's #4, #1, #2, ...

........................................................................
.............................. CYCLE   30 ..............................
........................................................................

 iter      E             dE          RMSdq      gap      omega  full diag
   1   -212.4058814 -0.212406E+03  0.296E-02    0.03       0.0  T
   2   -212.4049973  0.884056E-03  0.474E-02    0.03       1.0  T
   3   -212.3959517  0.904569E-02  0.148E-01    0.05       1.0  T
   4   -212.4058771 -0.992543E-02  0.528E-03    0.03       1.6  T
   5   -212.4058845 -0.744566E-05  0.827E-04    0.03      10.2  T
   6   -212.4058846 -0.106569E-06  0.483E-04    0.03      17.4  T
   7   -212.4058847 -0.604748E-07  0.192E-04    0.03      43.9  T
     SCC iter.                  ...        0 min,  0.469 sec
     gradient                   ...        0 min,  0.068 sec
 * total energy  :  -209.2715218 Eh     change       -0.1933661E-03 Eh
   gradient norm :     0.0037505 Eh/α   predicted    -0.1435874E-03 ( -25.74%)
   displ. norm   :     0.5278611 α      lambda       -0.2201669E-03
   maximum displ.:     0.2964559 α      in ANC's #4, #1, #2, ...

........................................................................
.............................. CYCLE   31 ..............................
........................................................................

 iter      E             dE          RMSdq      gap      omega  full diag
   1   -212.4052519 -0.212405E+03  0.313E-02    0.03       0.0  T
   2   -212.4051680  0.839451E-04  0.228E-02    0.03       1.0  T
   3   -212.3690831  0.360849E-01  0.281E-01    0.08       1.0  T
   4   -212.4052419 -0.361588E-01  0.601E-03    0.03       1.4  T
   5   -212.4052518 -0.986773E-05  0.215E-03    0.03       3.9  T
   6   -212.4052535 -0.178454E-05  0.599E-04    0.03      14.1  T
   7   -212.4052537 -0.111603E-06  0.232E-04    0.03      36.3  T
   8   -212.4052537 -0.434682E-08  0.887E-05    0.03      95.0  T
     SCC iter.                  ...        0 min,  0.651 sec
     gradient                   ...        0 min,  0.060 sec
 * total energy  :  -209.2717042 Eh     change       -0.1824220E-03 Eh
   gradient norm :     0.0027563 Eh/α   predicted    -0.1407574E-03 ( -22.84%)
   displ. norm   :     0.4882961 α      lambda       -0.1765486E-03
   maximum displ.:     0.2810557 α      in ANC's #4, #2, #1, ...

........................................................................
.............................. CYCLE   32 ..............................
........................................................................

 iter      E             dE          RMSdq      gap      omega  full diag
   1   -212.4052876 -0.212405E+03  0.315E-02    0.03       0.0  T
   2   -212.3988931  0.639450E-02  0.120E-01    0.04       1.0  T
   3   -212.4031032 -0.421015E-02  0.716E-02    0.04       1.0  T
   4   -212.4052989 -0.219570E-02  0.438E-03    0.03       1.9  T
   5   -212.4053032 -0.429649E-05  0.983E-04    0.03       8.6  T
   6   -212.4053035 -0.229841E-06  0.435E-04    0.03      19.4  T
   7   -212.4053035 -0.310502E-07  0.220E-04    0.03      38.3  T
     SCC iter.                  ...        0 min,  0.402 sec
     gradient                   ...        0 min,  0.064 sec
 * total energy  :  -209.2718439 Eh     change       -0.1396640E-03 Eh
   gradient norm :     0.0021351 Eh/α   predicted    -0.1093222E-03 ( -21.72%)
   displ. norm   :     0.3991629 α      lambda       -0.1103423E-03
   maximum displ.:     0.2355218 α      in ANC's #4, #2, #1, ...

........................................................................
.............................. CYCLE   33 ..............................
........................................................................

 iter      E             dE          RMSdq      gap      omega  full diag
   1   -212.4044483 -0.212404E+03  0.253E-02    0.03       0.0  T
   2   -212.3974359  0.701248E-02  0.125E-01    0.04       1.0  T
   3   -212.4035336 -0.609773E-02  0.473E-02    0.03       1.0  T
   4   -212.4044589 -0.925334E-03  0.425E-03    0.03       2.0  T
   5   -212.4044650 -0.612962E-05  0.764E-04    0.03      11.0  T
   6   -212.4044652 -0.125949E-06  0.319E-04    0.03      26.4  T
   7   -212.4044652 -0.140391E-07  0.169E-04    0.03      49.8  T
     SCC iter.                  ...        0 min,  0.494 sec
     gradient                   ...        0 min,  0.069 sec
 * total energy  :  -209.2719305 Eh     change       -0.8658958E-04 Eh
   gradient norm :     0.0019460 Eh/α   predicted    -0.6396281E-04 ( -26.13%)
   displ. norm   :     0.4116506 α      lambda       -0.6660542E-04
   maximum displ.:     0.2516934 α      in ANC's #4, #2, #1, ...

........................................................................
.............................. CYCLE   34 ..............................
........................................................................

 iter      E             dE          RMSdq      gap      omega  full diag
   1   -212.4049861 -0.212405E+03  0.274E-02    0.03       0.0  T
   2   -212.3853102  0.196759E-01  0.208E-01    0.06       1.0  T
   3   -212.4045268 -0.192166E-01  0.365E-02    0.03       1.0  T
   4   -212.4050124 -0.485598E-03  0.735E-03    0.03       1.1  T
   5   -212.4050354 -0.230483E-04  0.108E-03    0.03       7.8  T
   6   -212.4050358 -0.352011E-06  0.298E-04    0.03      28.2  T
   7   -212.4050358 -0.957633E-08  0.171E-04    0.03      49.3  T
     SCC iter.                  ...        0 min,  0.486 sec
     gradient                   ...        0 min,  0.064 sec
 * total energy  :  -209.2720039 Eh     change       -0.7337339E-04 Eh
   gradient norm :     0.0017903 Eh/α   predicted    -0.3581201E-04 ( -51.19%)
   displ. norm   :     0.2397431 α      lambda       -0.3888804E-04
   maximum displ.:     0.1515743 α      in ANC's #4, #2, #1, ...

........................................................................
.............................. CYCLE   35 ..............................
........................................................................

 iter      E             dE          RMSdq      gap      omega  full diag
   1   -212.4048245 -0.212405E+03  0.145E-02    0.03       0.0  T
   2   -212.3992909  0.553360E-02  0.110E-01    0.04       1.0  T
   3   -212.4046510 -0.536015E-02  0.217E-02    0.03       1.0  T
   4   -212.4048338 -0.182741E-03  0.294E-03    0.03       2.9  T
   5   -212.4048372 -0.341392E-05  0.653E-04    0.03      12.9  T
   6   -212.4048373 -0.145169E-06  0.158E-04    0.03      53.2  T
   7   -212.4048373 -0.221684E-08  0.927E-05    0.03      90.8  T
     SCC iter.                  ...        0 min,  0.515 sec
     gradient                   ...        0 min,  0.063 sec
 * total energy  :  -209.2720531 Eh     change       -0.4918418E-04 Eh
   gradient norm :     0.0016681 Eh/α   predicted    -0.1994397E-04 ( -59.45%)
   displ. norm   :     0.2324376 α      lambda       -0.4721481E-04
   maximum displ.:     0.1525244 α      in ANC's #4, #2, #1, ...

........................................................................
.............................. CYCLE   36 ..............................
........................................................................

 iter      E             dE          RMSdq      gap      omega  full diag
   1   -212.4063423 -0.212406E+03  0.164E-02    0.03       0.0  T
   2   -212.3963509  0.999138E-02  0.148E-01    0.05       1.0  T
   3   -212.4062040 -0.985301E-02  0.207E-02    0.03       1.0  T
   4   -212.4063643 -0.160299E-03  0.248E-03    0.03       3.4  T
   5   -212.4063660 -0.172199E-05  0.837E-04    0.03      10.1  T
   6   -212.4063662 -0.199400E-06  0.204E-04    0.03      41.2  T
   7   -212.4063662 -0.455049E-08  0.112E-04    0.03      75.3  T
     SCC iter.                  ...        0 min,  0.428 sec
     gradient                   ...        0 min,  0.065 sec
 * total energy  :  -209.2721101 Eh     change       -0.5703138E-04 Eh
   gradient norm :     0.0014528 Eh/α   predicted    -0.2417629E-04 ( -57.61%)
   displ. norm   :     0.2904405 α      lambda       -0.5206398E-04
   maximum displ.:     0.1900858 α      in ANC's #4, #2, #1, ...

........................................................................
.............................. CYCLE   37 ..............................
........................................................................

 iter      E             dE          RMSdq      gap      omega  full diag
   1   -212.4054267 -0.212405E+03  0.194E-02    0.03       0.0  T
   2   -212.4026315  0.279523E-02  0.788E-02    0.04       1.0  T
   3   -212.4045341 -0.190268E-02  0.458E-02    0.03       1.0  T
   4   -212.4054327 -0.898582E-03  0.168E-03    0.03       5.0  T
   5   -212.4054334 -0.648286E-06  0.518E-04    0.03      16.3  T
   6   -212.4054334 -0.344756E-07  0.259E-04    0.03      32.5  T
     SCC iter.                  ...        0 min,  0.312 sec
     gradient                   ...        0 min,  0.066 sec
 * total energy  :  -209.2721720 Eh     change       -0.6192557E-04 Eh
   gradient norm :     0.0014860 Eh/α   predicted    -0.2700994E-04 ( -56.38%)
   displ. norm   :     0.2854288 α      lambda       -0.4664661E-04
   maximum displ.:     0.1883973 α      in ANC's #4, #2, #1, ...

........................................................................
.............................. CYCLE   38 ..............................
........................................................................

 iter      E             dE          RMSdq      gap      omega  full diag
   1   -212.4060113 -0.212406E+03  0.184E-02    0.03       0.0  T
   2   -212.4017047  0.430659E-02  0.974E-02    0.04       1.0  T
   3   -212.4055545 -0.384976E-02  0.337E-02    0.03       1.0  T
   4   -212.4060197 -0.465201E-03  0.212E-03    0.03       4.0  T
   5   -212.4060212 -0.155727E-05  0.631E-04    0.03      13.4  T
   6   -212.4060214 -0.116918E-06  0.192E-04    0.03      43.9  T
   7   -212.4060214 -0.183056E-08  0.119E-04    0.03      70.9  T
     SCC iter.                  ...        0 min,  0.423 sec
     gradient                   ...        0 min,  0.060 sec
 * total energy  :  -209.2722324 Eh     change       -0.6033780E-04 Eh
   gradient norm :     0.0017113 Eh/α   predicted    -0.2417044E-04 ( -59.94%)
   displ. norm   :     0.3481998 α      lambda       -0.5656747E-04
   maximum displ.:     0.2273608 α      in ANC's #4, #2, #5, ...

........................................................................
.............................. CYCLE   39 ..............................
........................................................................

 iter      E             dE          RMSdq      gap      omega  full diag
   1   -212.4059489 -0.212406E+03  0.219E-02    0.03       0.0  T
   2   -212.4028350  0.311392E-02  0.832E-02    0.04       1.0  T
   3   -212.4047032 -0.186821E-02  0.539E-02    0.03       1.0  T
   4   -212.4059512 -0.124796E-02  0.348E-03    0.03       2.4  T
   5   -212.4059562 -0.502340E-05  0.540E-04    0.03      15.6  T
   6   -212.4059563 -0.748242E-07  0.201E-04    0.03      41.8  T
   7   -212.4059563 -0.104782E-08  0.116E-04    0.03      72.7  T
     SCC iter.                  ...        0 min,  0.451 sec
     gradient                   ...        0 min,  0.067 sec
 * total energy  :  -209.2723064 Eh     change       -0.7403809E-04 Eh
   gradient norm :     0.0016265 Eh/α   predicted    -0.2980923E-04 ( -59.74%)
   displ. norm   :     0.4346295 α      lambda       -0.6823446E-04
   maximum displ.:     0.2791578 α      in ANC's #4, #2, #5, ...

........................................................................
.............................. CYCLE   40 ..............................
........................................................................

 iter      E             dE          RMSdq      gap      omega  full diag
   1   -212.4056049 -0.212406E+03  0.261E-02    0.03       0.0  T
   2   -212.4047236  0.881282E-03  0.461E-02    0.03       1.0  T
   3   -212.3982882  0.643539E-02  0.127E-01    0.04       1.0  T
   4   -212.4055940 -0.730582E-02  0.550E-03    0.03       1.5  T
   5   -212.4056073 -0.132893E-04  0.506E-04    0.03      16.6  T
   6   -212.4056073 -0.214410E-07  0.298E-04    0.03      28.3  T
   7   -212.4056073 -0.114730E-07  0.149E-04    0.03      56.5  T
     SCC iter.                  ...        0 min,  0.666 sec
     gradient                   ...        0 min,  0.062 sec
 * total energy  :  -209.2723932 Eh     change       -0.8680957E-04 Eh
   gradient norm :     0.0015178 Eh/α   predicted    -0.3698644E-04 ( -57.39%)
   displ. norm   :     0.5132975 α      lambda       -0.7364102E-04
   maximum displ.:     0.3265826 α      in ANC's #4, #2, #5, ...

........................................................................
.............................. CYCLE   41 ..............................
........................................................................

 iter      E             dE          RMSdq      gap      omega  full diag
   1   -212.4055009 -0.212406E+03  0.301E-02    0.03       0.0  T
   2   -212.4055013 -0.381059E-06  0.177E-02    0.03       1.0  T
   3   -212.4054769  0.244184E-04  0.774E-03    0.03       1.1  T
   4   -212.4049107  0.566197E-03  0.358E-02    0.03       1.0  T
   5   -212.4055012 -0.590565E-03  0.896E-04    0.03       9.4  T
   6   -212.4055015 -0.271552E-06  0.318E-04    0.03      26.5  T
   7   -212.4055015 -0.817127E-08  0.159E-04    0.03      52.9  T
     SCC iter.                  ...        0 min,  0.490 sec
     gradient                   ...        0 min,  0.061 sec
 * total energy  :  -209.2724850 Eh     change       -0.9175852E-04 Eh
   gradient norm :     0.0014188 Eh/α   predicted    -0.4113754E-04 ( -55.17%)
   displ. norm   :     0.5518820 α      lambda       -0.7153780E-04
   maximum displ.:     0.3504607 α      in ANC's #4, #2, #5, ...

........................................................................
.............................. CYCLE   42 ..............................
........................................................................

 iter      E             dE          RMSdq      gap      omega  full diag
   1   -212.4049935 -0.212405E+03  0.316E-02    0.03       0.0  T
   2   -212.4023153  0.267826E-02  0.793E-02    0.03       1.0  T
   3   -212.4015613  0.753934E-03  0.879E-02    0.04       1.0  T
   4   -212.4049913 -0.343000E-02  0.454E-03    0.03       1.9  T
   5   -212.4049997 -0.836186E-05  0.111E-03    0.03       7.6  T
   6   -212.4050002 -0.463180E-06  0.354E-04    0.03      23.8  T
   7   -212.4050002 -0.184230E-07  0.170E-04    0.03      49.5  T
     SCC iter.                  ...        0 min,  0.438 sec
     gradient                   ...        0 min,  0.061 sec
 * total energy  :  -209.2725752 Eh     change       -0.9028864E-04 Eh
   gradient norm :     0.0016594 Eh/α   predicted    -0.4061190E-04 ( -55.02%)
   displ. norm   :     0.6280802 α      lambda       -0.7672878E-04
   maximum displ.:     0.3974414 α      in ANC's #4, #2, #5, ...
 * RMSD in coord.:     0.6344856 α      energy gain  -0.3271639E-02 Eh

generating ANC from model Hessian ...
Using Lindh-Hessian (1995)
 Shifting diagonal of input Hessian by    1.0115070628703916E-002
 Lowest  eigenvalues of input Hessian
    0.010000    0.000000    0.000000    0.000000    0.000000    0.000000
    0.000000    0.010137    0.010152    0.010202    0.010253    0.010372
    0.010453    0.010486    0.010508    0.010638    0.010671    0.010685
 Highest eigenvalues
    2.078633    2.078691    2.216667    2.217477    2.237381    2.237593


........................................................................
.............................. CYCLE   43 ..............................
........................................................................

 iter      E             dE          RMSdq      gap      omega  full diag
   1   -212.4052815 -0.212405E+03  0.354E-02    0.03       0.0  T
   2   -212.3953118  0.996964E-02  0.150E-01    0.04       1.0  T
   3   -212.4043826 -0.907083E-02  0.485E-02    0.03       1.0  T
   4   -212.4052870 -0.904365E-03  0.650E-03    0.03       1.3  T
   5   -212.4053054 -0.183419E-04  0.103E-03    0.03       8.2  T
   6   -212.4053057 -0.326763E-06  0.353E-04    0.03      23.8  T
   7   -212.4053057 -0.354783E-08  0.224E-04    0.03      37.5  T
     SCC iter.                  ...        0 min,  0.519 sec
     gradient                   ...        0 min,  0.066 sec
 * total energy  :  -209.2726703 Eh     change       -0.9505555E-04 Eh
   gradient norm :     0.0016396 Eh/α   predicted     0.0000000E+00 (-100.00%)
   displ. norm   :     0.0529614 α      lambda       -0.2080239E-04
   maximum displ.:     0.0192874 α      in ANC's #2, #21, #10, ...

........................................................................
.............................. CYCLE   44 ..............................
........................................................................

 iter      E             dE          RMSdq      gap      omega  full diag
   1   -212.4063020 -0.212406E+03  0.655E-03    0.03       0.0  T
   2   -212.4061702  0.131771E-03  0.174E-02    0.03       1.0  T
   3   -212.4061184  0.517568E-04  0.204E-02    0.03       1.0  T
   4   -212.4063018 -0.183406E-03  0.134E-03    0.03       6.3  T
   5   -212.4063024 -0.513996E-06  0.231E-04    0.03      36.5  T
   6   -212.4063024 -0.953344E-08  0.107E-04    0.03      78.8  T
     SCC iter.                  ...        0 min,  0.341 sec
     gradient                   ...        0 min,  0.061 sec
 * total energy  :  -209.2726948 Eh     change       -0.2450716E-04 Eh
   gradient norm :     0.0008190 Eh/α   predicted    -0.1044987E-04 ( -57.36%)
   displ. norm   :     0.1729869 α      lambda       -0.4586428E-04
   maximum displ.:     0.0674469 α      in ANC's #2, #21, #4, ...

........................................................................
.............................. CYCLE   45 ..............................
........................................................................

 iter      E             dE          RMSdq      gap      omega  full diag
   1   -212.4075844 -0.212408E+03  0.183E-02    0.03       0.0  T
   2   -212.4049565  0.262789E-02  0.764E-02    0.04       1.0  T
   3   -212.4070099 -0.205338E-02  0.371E-02    0.03       1.0  T
   4   -212.4075886 -0.578719E-03  0.324E-03    0.03       2.6  T
   5   -212.4075909 -0.224392E-05  0.504E-04    0.03      16.7  T
   6   -212.4075909 -0.492946E-07  0.246E-04    0.03      34.2  T
   7   -212.4075909 -0.594218E-08  0.133E-04    0.03      63.1  T
     SCC iter.                  ...        0 min,  0.372 sec
     gradient                   ...        0 min,  0.065 sec
 * total energy  :  -209.2727356 Eh     change       -0.4078568E-04 Eh
   gradient norm :     0.0017728 Eh/α   predicted    -0.2323818E-04 ( -43.02%)
   displ. norm   :     0.1095960 α      lambda       -0.1762669E-04
   maximum displ.:     0.0519466 α      in ANC's #2, #10, #4, ...

........................................................................
.............................. CYCLE   46 ..............................
........................................................................

 iter      E             dE          RMSdq      gap      omega  full diag
   1   -212.4065844 -0.212407E+03  0.985E-03    0.03       0.0  T
   2   -212.4034970  0.308744E-02  0.823E-02    0.04       1.0  T
   3   -212.4065612 -0.306418E-02  0.965E-03    0.03       1.0  T
   4   -212.4065910 -0.297776E-04  0.160E-03    0.03       5.3  T
   5   -212.4065915 -0.558186E-06  0.443E-04    0.03      19.0  T
   6   -212.4065916 -0.422405E-07  0.149E-04    0.03      56.4  T
     SCC iter.                  ...        0 min,  0.310 sec
     gradient                   ...        0 min,  0.060 sec
 * total energy  :  -209.2727535 Eh     change       -0.1794862E-04 Eh
   gradient norm :     0.0013675 Eh/α   predicted    -0.8866321E-05 ( -50.60%)
   displ. norm   :     0.1188132 α      lambda       -0.1614155E-04
   maximum displ.:     0.0627295 α      in ANC's #2, #4, #10, ...

........................................................................
.............................. CYCLE   47 ..............................
........................................................................

 iter      E             dE          RMSdq      gap      omega  full diag
   1   -212.4061575 -0.212406E+03  0.101E-02    0.03       0.0  T
   2   -212.4041005  0.205702E-02  0.672E-02    0.03       1.0  T
   3   -212.4060875 -0.198702E-02  0.139E-02    0.03       1.0  T
   4   -212.4061614 -0.738872E-04  0.185E-03    0.03       4.5  T
   5   -212.4061623 -0.883737E-06  0.355E-04    0.03      23.7  T
   6   -212.4061623 -0.264446E-07  0.143E-04    0.03      58.8  T
     SCC iter.                  ...        0 min,  0.376 sec
     gradient                   ...        0 min,  0.064 sec
 * total energy  :  -209.2727724 Eh     change       -0.1888359E-04 Eh
   gradient norm :     0.0008283 Eh/α   predicted    -0.8121701E-05 ( -56.99%)
   displ. norm   :     0.1560823 α      lambda       -0.1969993E-04
   maximum displ.:     0.0877733 α      in ANC's #2, #4, #13, ...

........................................................................
.............................. CYCLE   48 ..............................
........................................................................

 iter      E             dE          RMSdq      gap      omega  full diag
   1   -212.4059015 -0.212406E+03  0.123E-02    0.03       0.0  T
   2   -212.4034967  0.240482E-02  0.728E-02    0.04       1.0  T
   3   -212.4057797 -0.228305E-02  0.180E-02    0.03       1.0  T
   4   -212.4059062 -0.126437E-03  0.189E-03    0.03       4.5  T
   5   -212.4059071 -0.896254E-06  0.435E-04    0.03      19.4  T
   6   -212.4059071 -0.455128E-07  0.167E-04    0.03      50.4  T
     SCC iter.                  ...        0 min,  0.375 sec
     gradient                   ...        0 min,  0.062 sec
 * total energy  :  -209.2727936 Eh     change       -0.2114699E-04 Eh
   gradient norm :     0.0009825 Eh/α   predicted    -0.9958911E-05 ( -52.91%)
   displ. norm   :     0.1414828 α      lambda       -0.1460749E-04
   maximum displ.:     0.0843804 α      in ANC's #2, #4, #13, ...

........................................................................
.............................. CYCLE   49 ..............................
........................................................................

 iter      E             dE          RMSdq      gap      omega  full diag
   1   -212.4062123 -0.212406E+03  0.111E-02    0.03       0.0  T
   2   -212.4061436  0.686288E-04  0.139E-02    0.03       1.0  T
   3   -212.4037348  0.240883E-02  0.737E-02    0.03       1.0  T
   4   -212.4062119 -0.247709E-02  0.164E-03    0.03       5.1  T
   5   -212.4062126 -0.687977E-06  0.269E-04    0.03      31.3  T
   6   -212.4062126 -0.930993E-08  0.158E-04    0.03      53.4  T
     SCC iter.                  ...        0 min,  0.430 sec
     gradient                   ...        0 min,  0.065 sec
 * total energy  :  -209.2728088 Eh     change       -0.1523069E-04 Eh
   gradient norm :     0.0012212 Eh/α   predicted    -0.7372180E-05 ( -51.60%)
   displ. norm   :     0.1115347 α      lambda       -0.1102193E-04
   maximum displ.:     0.0708770 α      in ANC's #2, #4, #13, ...

........................................................................
.............................. CYCLE   50 ..............................
........................................................................

 iter      E             dE          RMSdq      gap      omega  full diag
   1   -212.4067604 -0.212407E+03  0.730E-03    0.03       0.0  T
   2   -212.4066667  0.937091E-04  0.149E-02    0.03       1.0  T
   3   -212.4063213  0.345368E-03  0.312E-02    0.03       1.0  T
   4   -212.4067599 -0.438623E-03  0.127E-03    0.03       6.6  T
   5   -212.4067606 -0.677342E-06  0.291E-04    0.03      28.9  T
   6   -212.4067606 -0.318518E-07  0.821E-05    0.03     102.6  T
     SCC iter.                  ...        0 min,  0.420 sec
     gradient                   ...        0 min,  0.062 sec
 * total energy  :  -209.2728222 Eh     change       -0.1337084E-04 Eh
   gradient norm :     0.0008901 Eh/α   predicted    -0.5551098E-05 ( -58.48%)
   displ. norm   :     0.1151242 α      lambda       -0.1269669E-04
   maximum displ.:     0.0745913 α      in ANC's #2, #4, #9, ...

........................................................................
.............................. CYCLE   51 ..............................
........................................................................

 iter      E             dE          RMSdq      gap      omega  full diag
   1   -212.4073669 -0.212407E+03  0.717E-03    0.03       0.0  T
   2   -212.4065117  0.855169E-03  0.433E-02    0.03       1.0  T
   3   -212.4072920 -0.780240E-03  0.136E-02    0.03       1.0  T
   4   -212.4073679 -0.759293E-04  0.159E-03    0.03       5.3  T
   5   -212.4073688 -0.963910E-06  0.311E-04    0.03      27.1  T
   6   -212.4073689 -0.234418E-07  0.134E-04    0.03      62.8  T
     SCC iter.                  ...        0 min,  0.447 sec
     gradient                   ...        0 min,  0.062 sec
 * total energy  :  -209.2728384 Eh     change       -0.1622252E-04 Eh
   gradient norm :     0.0005429 Eh/α   predicted    -0.6389509E-05 ( -60.61%)
   displ. norm   :     0.1643220 α      lambda       -0.1741943E-04
   maximum displ.:     0.1050207 α      in ANC's #2, #4, #9, ...

........................................................................
.............................. CYCLE   52 ..............................
........................................................................

 iter      E             dE          RMSdq      gap      omega  full diag
   1   -212.4075652 -0.212408E+03  0.105E-02    0.03       0.0  T
   2   -212.4040304  0.353479E-02  0.879E-02    0.04       1.0  T
   3   -212.4074811 -0.345073E-02  0.153E-02    0.03       1.0  T
   4   -212.4075719 -0.908569E-04  0.190E-03    0.03       4.4  T
   5   -212.4075731 -0.119975E-05  0.574E-04    0.03      14.7  T
   6   -212.4075733 -0.108697E-06  0.148E-04    0.03      56.8  T
   7   -212.4075733 -0.417168E-08  0.716E-05    0.03     117.6  T
     SCC iter.                  ...        0 min,  0.426 sec
     gradient                   ...        0 min,  0.067 sec
 * total energy  :  -209.2728601 Eh     change       -0.2173949E-04 Eh
   gradient norm :     0.0009446 Eh/α   predicted    -0.8815895E-05 ( -59.45%)
   displ. norm   :     0.2009173 α      lambda       -0.1857406E-04
   maximum displ.:     0.1290059 α      in ANC's #2, #4, #9, ...

........................................................................
.............................. CYCLE   53 ..............................
........................................................................

 iter      E             dE          RMSdq      gap      omega  full diag
   1   -212.4074094 -0.212407E+03  0.121E-02    0.03       0.0  T
   2   -212.4040786  0.333079E-02  0.853E-02    0.04       1.0  T
   3   -212.4072462 -0.316765E-02  0.205E-02    0.03       1.0  T
   4   -212.4074153 -0.169082E-03  0.210E-03    0.03       4.0  T
   5   -212.4074169 -0.156150E-05  0.612E-04    0.03      13.8  T
   6   -212.4074170 -0.135115E-06  0.154E-04    0.03      54.7  T
   7   -212.4074170 -0.288014E-08  0.822E-05    0.03     102.4  T
     SCC iter.                  ...        0 min,  0.383 sec
     gradient                   ...        0 min,  0.062 sec
 * total energy  :  -209.2728834 Eh     change       -0.2321693E-04 Eh
   gradient norm :     0.0012566 Eh/α   predicted    -0.9458593E-05 ( -59.26%)
   displ. norm   :     0.2095693 α      lambda       -0.1737535E-04
   maximum displ.:     0.1361744 α      in ANC's #2, #4, #9, ...

........................................................................
.............................. CYCLE   54 ..............................
........................................................................

 iter      E             dE          RMSdq      gap      omega  full diag
   1   -212.4069340 -0.212407E+03  0.124E-02    0.03       0.0  T
   2   -212.4046413  0.229268E-02  0.709E-02    0.03       1.0  T
   3   -212.4067232 -0.208188E-02  0.228E-02    0.03       1.0  T
   4   -212.4069384 -0.215206E-03  0.155E-03    0.03       5.4  T
   5   -212.4069391 -0.765184E-06  0.441E-04    0.03      19.1  T
   6   -212.4069392 -0.665381E-07  0.128E-04    0.03      65.9  T
     SCC iter.                  ...        0 min,  0.390 sec
     gradient                   ...        0 min,  0.060 sec
 * total energy  :  -209.2729055 Eh     change       -0.2214456E-04 Eh
   gradient norm :     0.0010820 Eh/α   predicted    -0.8858960E-05 ( -59.99%)
   displ. norm   :     0.2095353 α      lambda       -0.1631492E-04
   maximum displ.:     0.1379469 α      in ANC's #2, #4, #9, ...

........................................................................
.............................. CYCLE   55 ..............................
........................................................................

 iter      E             dE          RMSdq      gap      omega  full diag
[...]
    34   6 C    3.976 --    35 C    1.263    41 C    1.249    31 C    1.212
    35   6 C    3.949 --    44 C    1.408    34 C    1.263    36 C    1.061
    36   6 C    3.918 --    48 O    1.688    35 C    1.061    37 C    1.058
    37   6 C    3.948 --    38 C    1.406    32 C    1.271    36 C    1.058
    38   6 C    3.983 --    37 C    1.406    39 C    1.395   138 H    0.959
    39   6 C    3.943 --    40 C    1.409    38 C    1.395    72 C    0.983
    40   6 C    3.982 --    39 C    1.409    33 C    1.397   139 H    0.959
    41   6 C    3.885 --    42 C    1.375    34 C    1.249    45 O    1.088
    42   6 C    3.967 --    43 C    1.412    41 C    1.375   136 H    0.946
    43   6 C    3.931 --    42 C    1.412    44 C    1.385    68 C    0.983
    44   6 C    3.958 --    35 C    1.408    43 C    1.385   137 H    0.957
    45   8 O    2.040 --    41 C    1.088    24 B    0.735
    46   8 O    2.126 --    26 C    1.092    24 B    0.824
    47   6 C    3.915 --    49 O    1.675    28 C    1.074    33 C    1.058
    48   8 O    1.940 --    36 C    1.688
    49   8 O    1.927 --    47 C    1.675
    50   8 O    1.939 --    10 C    1.686
    51   8 O    1.927 --    13 C    1.675
    52   6 C    3.990 --    53 C    1.000    55 C    0.987    54 C    0.985
                             6 C    0.983
    53   6 C    3.996 --    52 C    1.000   109 H    0.985   111 H    0.984
                           110 H    0.982
    54   6 C    3.992 --   104 H    0.986    52 C    0.985   103 H    0.985
                           105 H    0.984
    55   6 C    3.993 --    52 C    0.987   108 H    0.987   106 H    0.985
                           107 H    0.983
    56   6 C    3.990 --    59 C    1.000    57 C    0.986    58 C    0.986
                            20 C    0.983
    57   6 C    3.993 --    56 C    0.986    84 H    0.985    82 H    0.985
                            83 H    0.983
    58   6 C    3.992 --    77 H    0.987    56 C    0.986    76 H    0.985
                            78 H    0.984
    59   6 C    3.996 --    56 C    1.000    79 H    0.985    81 H    0.984
                            80 H    0.983
    60   6 C    3.990 --    62 C    1.000    63 C    0.987    61 C    0.987
                            16 C    0.983
    61   6 C    3.994 --    60 C    0.987   123 H    0.987   121 H    0.985
                           122 H    0.983
    62   6 C    3.996 --    60 C    1.000   127 H    0.985   128 H    0.985
                           129 H    0.985
    63   6 C    3.994 --    60 C    0.987   125 H    0.987   124 H    0.985
                           126 H    0.983
    64   6 C    3.991 --    67 C    1.000    65 C    0.987    66 C    0.986
                            30 C    0.983
    65   6 C    3.993 --    64 C    0.987   113 H    0.985   112 H    0.985
                           114 H    0.982
    66   6 C    3.993 --   120 H    0.987    64 C    0.986   118 H    0.985
                           119 H    0.982
    67   6 C    3.996 --    64 C    1.000   115 H    0.985   116 H    0.985
                           117 H    0.985
    68   6 C    3.990 --    71 C    1.000    69 C    0.988    70 C    0.985
                            43 C    0.983
    69   6 C    3.993 --    68 C    0.988    90 H    0.987    88 H    0.985
                            89 H    0.983
    70   6 C    3.992 --    92 H    0.986    68 C    0.985    91 H    0.985
                            93 H    0.984
    71   6 C    3.997 --    68 C    1.000    85 H    0.985    86 H    0.983
                            87 H    0.983
    72   6 C    3.990 --    74 C    1.000    75 C    0.987    73 C    0.987
                            39 C    0.983
    73   6 C    3.994 --    95 H    0.987    72 C    0.987    94 H    0.985
                            96 H    0.984
    74   6 C    3.996 --    72 C    1.000    97 H    0.985    98 H    0.985
                            99 H    0.985
    75   6 C    3.994 --    72 C    0.987   102 H    0.987   100 H    0.985
                           101 H    0.983
    76   1 H    0.998 --    58 C    0.985
    77   1 H    0.999 --    58 C    0.987
    78   1 H    0.998 --    58 C    0.984
    79   1 H    0.999 --    59 C    0.985
    80   1 H    0.999 --    59 C    0.983
    81   1 H    0.998 --    59 C    0.984
    82   1 H    0.998 --    57 C    0.985
    83   1 H    0.998 --    57 C    0.983
    84   1 H    0.999 --    57 C    0.985
    85   1 H    0.999 --    71 C    0.985
    86   1 H    0.999 --    71 C    0.983
    87   1 H    0.998 --    71 C    0.983
    88   1 H    0.998 --    69 C    0.985
    89   1 H    0.998 --    69 C    0.983
    90   1 H    0.999 --    69 C    0.987
    91   1 H    0.998 --    70 C    0.985
    92   1 H    0.998 --    70 C    0.986
    93   1 H    0.998 --    70 C    0.984
    94   1 H    0.998 --    73 C    0.985
    95   1 H    0.999 --    73 C    0.987
    96   1 H    0.998 --    73 C    0.984
    97   1 H    0.999 --    74 C    0.985
    98   1 H    0.999 --    74 C    0.985
    99   1 H    0.999 --    74 C    0.985
   100   1 H    0.998 --    75 C    0.985
   101   1 H    0.998 --    75 C    0.983
   102   1 H    0.999 --    75 C    0.987
   103   1 H    0.998 --    54 C    0.985
   104   1 H    0.998 --    54 C    0.986
   105   1 H    0.998 --    54 C    0.984
   106   1 H    0.998 --    55 C    0.985
   107   1 H    0.998 --    55 C    0.983
   108   1 H    0.999 --    55 C    0.987
   109   1 H    0.999 --    53 C    0.985
   110   1 H    0.999 --    53 C    0.982
   111   1 H    0.998 --    53 C    0.984
   112   1 H    0.998 --    65 C    0.985
   113   1 H    0.999 --    65 C    0.985
   114   1 H    0.998 --    65 C    0.982
   115   1 H    0.999 --    67 C    0.985
   116   1 H    0.998 --    67 C    0.985
   117   1 H    0.999 --    67 C    0.985
   118   1 H    0.998 --    66 C    0.985
   119   1 H    0.998 --    66 C    0.982
   120   1 H    0.999 --    66 C    0.987
   121   1 H    0.998 --    61 C    0.985
   122   1 H    0.998 --    61 C    0.983
   123   1 H    0.999 --    61 C    0.987
   124   1 H    0.998 --    63 C    0.985
   125   1 H    0.999 --    63 C    0.987
   126   1 H    0.998 --    63 C    0.983
   127   1 H    0.999 --    62 C    0.985
   128   1 H    0.999 --    62 C    0.985
   129   1 H    0.999 --    62 C    0.985
   130   1 H    0.996 --    15 C    0.959
   131   1 H    0.996 --    17 C    0.959
   132   1 H    0.996 --     5 C    0.957
   133   1 H    0.995 --     1 C    0.947
   134   1 H    0.996 --    21 C    0.958
   135   1 H    0.993 --    19 C    0.939
   136   1 H    0.995 --    42 C    0.946
   137   1 H    0.996 --    44 C    0.957
   138   1 H    0.996 --    38 C    0.959
   139   1 H    0.996 --    40 C    0.959
   140   1 H    0.995 --    29 C    0.958
   141   1 H    0.994 --    25 C    0.942
 ---------------------------------------------------------------------------

Topologies differ in bond orders
Writing corrected topology to xtbtopo.mol

molecular dipole:
                 x           y           z       tot (Debye)
 q only:       -0.034      -0.515       1.645
   full:       -0.044      -0.544       1.771       4.711
molecular quadrupole (traceless):
                xx          xy          yy          xz          yz          zz
 q only:      -62.132      17.286      35.163       2.401       4.180      26.968
  q+dip:      -62.254      16.275      35.390       1.747       4.551      26.864
   full:      -66.855      21.203      36.170       3.285       3.357      30.685

           -------------------------------------------------
          |                Geometry Summary                 |
           -------------------------------------------------

      molecular mass/u    :      998.0389263
   center of mass at/Å    :        0.0123572       0.1408910      -0.3262050
  moments of inertia/u·Å² :        0.1241052E+05   0.2735000E+05   0.3088356E+05
rotational constants/cm⁻¹ :        0.1358334E-02   0.6163668E-03   0.5458448E-03

 * 134 selected distances

     #   Z          #   Z                                           value/Å
     1   6 C        2   6 C                                       1.3985516
     2   6 C        3   6 C                                       1.4335672
     3   6 C        4   6 C                                       1.4239519
     4   6 C        5   6 C                                       1.3855569
     1   6 C        6   6 C                                       1.3835389
     5   6 C        6   6 C                                       1.3835823
     7   6 C        8   6 C                                       1.4300928
     8   6 C        9   6 C                                       1.4081714
     7   6 C       11   6 C                                       1.4244586
    11   6 C       12   6 C                                       1.4183668
     8   6 C       14   6 C                                       1.4114121
    14   6 C       15   6 C                                       1.3910040
    15   6 C       16   6 C                                       1.3867162
     9   6 C       17   6 C                                       1.3869782
    16   6 C       17   6 C                                       1.3901951
    11   6 C       18   6 C                                       1.4165867
    18   6 C       19   6 C                                       1.3977116
    19   6 C       20   6 C                                       1.3867686
    12   6 C       21   6 C                                       1.3865658
    20   6 C       21   6 C                                       1.3888360
     2   6 C       22   8 O                                       1.3636370
    18   6 C       23   8 O                                       1.3530230
    23   8 O       24   5 B                                       1.4656339
    25   6 C       26   6 C                                       1.3939690
    26   6 C       27   6 C                                       1.4156057
    27   6 C       28   6 C                                       1.4157854
    28   6 C       29   6 C                                       1.3899560
    25   6 C       30   6 C                                       1.3915591
    29   6 C       30   6 C                                       1.3858537
    27   6 C       31   6 C                                       1.4237246
    31   6 C       32   6 C                                       1.4288550
    32   6 C       33   6 C                                       1.4114808
    34   6 C       35   6 C                                       1.4240183
    32   6 C       37   6 C                                       1.4078134
    37   6 C       38   6 C                                       1.3870523
    38   6 C       39   6 C                                       1.3904037
    33   6 C       40   6 C                                       1.3907703
    39   6 C       40   6 C                                       1.3871342
    34   6 C       41   6 C                                       1.4353298
    41   6 C       42   6 C                                       1.3978616
    42   6 C       43   6 C                                       1.3832919
    35   6 C       44   6 C                                       1.3857162
    43   6 C       44   6 C                                       1.3836533
    41   6 C       45   8 O                                       1.3633149
    24   5 B       46   8 O                                       1.4631727
    26   6 C       46   8 O                                       1.3547702
    36   6 C       48   8 O                                       1.2289276
    47   6 C       49   8 O                                       1.2303771
    10   6 C       50   8 O                                       1.2291613
    13   6 C       51   8 O                                       1.2304646
    52   6 C       53   6 C                                       1.5300510
    52   6 C       54   6 C                                       1.5352161
    52   6 C       55   6 C                                       1.5351518
    56   6 C       57   6 C                                       1.5355377 (max)
    56   6 C       58   6 C                                       1.5353955
    56   6 C       59   6 C                                       1.5306580
    60   6 C       61   6 C                                       1.5349462
    60   6 C       62   6 C                                       1.5307568
    60   6 C       63   6 C                                       1.5351675
    64   6 C       65   6 C                                       1.5344958
    64   6 C       66   6 C                                       1.5351434
    64   6 C       67   6 C                                       1.5312287
    68   6 C       69   6 C                                       1.5353729
    68   6 C       70   6 C                                       1.5348973
    68   6 C       71   6 C                                       1.5308364
    72   6 C       73   6 C                                       1.5351875
    72   6 C       74   6 C                                       1.5307984
    72   6 C       75   6 C                                       1.5349341
    58   6 C       76   1 H                                       1.0889041
    58   6 C       77   1 H                                       1.0877934
    58   6 C       78   1 H                                       1.0863755
    59   6 C       79   1 H                                       1.0892412
    59   6 C       80   1 H                                       1.0872501
    59   6 C       81   1 H                                       1.0869840
    57   6 C       82   1 H                                       1.0887924
    57   6 C       83   1 H                                       1.0862613
    57   6 C       84   1 H                                       1.0877325
    71   6 C       85   1 H                                       1.0892305
    71   6 C       86   1 H                                       1.0881060
    71   6 C       87   1 H                                       1.0874995
    69   6 C       88   1 H                                       1.0887543
    69   6 C       89   1 H                                       1.0860856
    69   6 C       90   1 H                                       1.0882987
    70   6 C       91   1 H                                       1.0888684
    70   6 C       92   1 H                                       1.0876826
    70   6 C       93   1 H                                       1.0865198
    73   6 C       94   1 H                                       1.0887278
    73   6 C       95   1 H                                       1.0882147
    73   6 C       96   1 H                                       1.0863634
    74   6 C       97   1 H                                       1.0889488
    74   6 C       98   1 H                                       1.0873179
    74   6 C       99   1 H                                       1.0873408
    75   6 C      100   1 H                                       1.0887457
    75   6 C      101   1 H                                       1.0862815
    75   6 C      102   1 H                                       1.0880929
    54   6 C      103   1 H                                       1.0888576
    54   6 C      104   1 H                                       1.0876798
    54   6 C      105   1 H                                       1.0864749
    55   6 C      106   1 H                                       1.0887091
    55   6 C      107   1 H                                       1.0861979
    55   6 C      108   1 H                                       1.0882672
    53   6 C      109   1 H                                       1.0891104
    53   6 C      110   1 H                                       1.0868944
    53   6 C      111   1 H                                       1.0872731
    65   6 C      112   1 H                                       1.0889800
    65   6 C      113   1 H                                       1.0883094
    65   6 C      114   1 H                                       1.0863596
    67   6 C      115   1 H                                       1.0890171
    67   6 C      116   1 H                                       1.0871058
    67   6 C      117   1 H                                       1.0873735
    66   6 C      118   1 H                                       1.0889907
    66   6 C      119   1 H                                       1.0861746
    66   6 C      120   1 H                                       1.0879549
    61   6 C      121   1 H                                       1.0887409
    61   6 C      122   1 H                                       1.0863021
    61   6 C      123   1 H                                       1.0881053
    63   6 C      124   1 H                                       1.0887260
    63   6 C      125   1 H                                       1.0882168
    63   6 C      126   1 H                                       1.0863404
    62   6 C      127   1 H                                       1.0889543
    62   6 C      128   1 H                                       1.0873086
    62   6 C      129   1 H                                       1.0873683
    15   6 C      130   1 H                                       1.0789741
    17   6 C      131   1 H                                       1.0804035
     5   6 C      132   1 H                                       1.0798337
     1   6 C      133   1 H                                       1.0727334
    21   6 C      134   1 H                                       1.0795942
    19   6 C      135   1 H                                       1.0741566
    42   6 C      136   1 H                                       1.0722981 (min)
    44   6 C      137   1 H                                       1.0797928
    38   6 C      138   1 H                                       1.0803931
    40   6 C      139   1 H                                       1.0789473
Note: The following floating-point exceptions are signalling: IEEE_UNDERFLOW_FLAG
normal termination of xtb
    29   6 C      140   1 H                                       1.0780452
    25   6 C      141   1 H                                       1.0762818

 * 4 distinct bonds (by element types)

   Z      Z             #   av. dist./Å        max./Å        min./Å
   1 H    6 C          66     1.0859342     1.0892412     1.0722981
   6 C    6 C          58     1.4425556     1.5355377     1.3832919
   5 B    8 O           2     1.4644033     1.4656339     1.4631727
   6 C    8 O           8     1.2942095     1.3636370     1.2289276


optimized geometry written to: xtbopt.mol


           -------------------------------------------------
          | TOTAL ENERGY             -209.273133252699 Eh   |
          | GRADIENT NORM               0.000175872921 Eh/α |
          | HOMO-LUMO GAP               0.029247757556 eV   |
           -------------------------------------------------
########################################################################
[WARNING] Runtime exception occurred
-1- restart_readRestart: Number of electron missmatch in restart file.
########################################################################

------------------------------------------------------------------------
 * finished run on 2024/11/12 at 11:20:40.649     
------------------------------------------------------------------------
 total:
 * wall-time:     0 d,  0 h,  0 min, 48.927 sec
 *  cpu-time:     0 d,  0 h,  2 min, 53.151 sec
 * ratio c/w:     3.539 speedup
 SCF:
 * wall-time:     0 d,  0 h,  0 min,  2.084 sec
 *  cpu-time:     0 d,  0 h,  0 min,  8.410 sec
 * ratio c/w:     4.035 speedup
 ANC optimizer:
 * wall-time:     0 d,  0 h,  0 min, 46.808 sec
 *  cpu-time:     0 d,  0 h,  2 min, 44.700 sec
 * ratio c/w:     3.519 speedup

