      -----------------------------------------------------------      
     |                   =====================                   |     
     |                           x T B                           |     
     |                   =====================                   |     
     |                         S. Grimme                         |     
     |          Mulliken Center for Theoretical Chemistry        |     
     |                    University of Bonn                     |     
      -----------------------------------------------------------      

   * xtb version 6.6.1 (8d0f1dd) compiled by 'runner@Mac-1690902418499.local' on 2023-08-01

   xtb is free software: you can redistribute it and/or modify it under
   the terms of the GNU Lesser General Public License as published by
   the Free Software Foundation, either version 3 of the License, or
   (at your option) any later version.
   
   xtb is distributed in the hope that it will be useful,
   but WITHOUT ANY WARRANTY; without even the implied warranty of
   MERCHANTABILITY or FITNESS FOR A PARTICULAR PURPOSE.  See the
   GNU Lesser General Public License for more details.
   
   Cite this work as:
   * C. Bannwarth, E. Caldeweyher, S. Ehlert, A. Hansen, P. Pracht,
     J. Seibert, S. Spicher, S. Grimme, WIREs Comput. Mol. Sci., 2020, 11,
     e01493. DOI: 10.1002/wcms.1493
   
   for GFN2-xTB:
   * C. Bannwarth, S. Ehlert and S. Grimme., J. Chem. Theory Comput., 2019,
     15, 1652-1671. DOI: 10.1021/acs.jctc.8b01176
   for GFN1-xTB:
   * S. Grimme, C. Bannwarth, P. Shushkov, J. Chem. Theory Comput., 2017,
     13, 1989-2009. DOI: 10.1021/acs.jctc.7b00118
   for GFN0-xTB:
   * P. Pracht, E. Caldeweyher, S. Ehlert, S. Grimme, ChemRxiv, 2019, preprint.
     DOI: 10.26434/chemrxiv.8326202.v1
   for GFN-FF:
   * S. Spicher and S. Grimme, Angew. Chem. Int. Ed., 2020, 59, 15665-15673.
     DOI: 10.1002/anie.202004239
   
   for ALPB and GBSA implicit solvation:
   * S. Ehlert, M. Stahn, S. Spicher, S. Grimme, J. Chem. Theory Comput.,
     2021, 17, 4250-4261. DOI: 10.1021/acs.jctc.1c00471
   
   for DFT-D4:
   * E. Caldeweyher, C. Bannwarth and S. Grimme, J. Chem. Phys., 2017,
     147, 034112. DOI: 10.1063/1.4993215
   * E. Caldeweyher, S. Ehlert, A. Hansen, H. Neugebauer, S. Spicher,
     C. Bannwarth and S. Grimme, J. Chem. Phys., 2019, 150, 154122.
     DOI: 10.1063/1.5090222
   * E. Caldeweyher, J.-M. Mewes, S. Ehlert and S. Grimme, Phys. Chem. Chem. Phys.
     2020, 22, 8499-8512. DOI: 10.1039/D0CP00502A
   
   for sTDA-xTB:
   * S. Grimme and C. Bannwarth, J. Chem. Phys., 2016, 145, 054103.
     DOI: 10.1063/1.4959605
   
   in the mass-spec context:
   * V. Asgeirsson, C. Bauer and S. Grimme, Chem. Sci., 2017, 8, 4879.
     DOI: 10.1039/c7sc00601b
   * J. Koopman and S. Grimme, ACS Omega 2019, 4, 12, 15120-15133.
     DOI: 10.1021/acsomega.9b02011
   
   for metadynamics refer to:
   * S. Grimme, J. Chem. Theory Comput., 2019, 155, 2847-2862
     DOI: 10.1021/acs.jctc.9b00143
   
   for SPH calculations refer to:
   * S. Spicher and S. Grimme, J. Chem. Theory Comput., 2021, 17, 1701-1714
     DOI: 10.1021/acs.jctc.0c01306
   
   with help from (in alphabetical order)
   P. Atkinson, C. Bannwarth, F. Bohle, G. Brandenburg, E. Caldeweyher
   M. Checinski, S. Dohm, S. Ehlert, S. Ehrlich, I. Gerasimov, C. Hölzer
   A. Katbashev, J. Koopman, C. Lavigne, S. Lehtola, F. März, M. Müller,
   F. Musil, H. Neugebauer, J. Pisarek, C. Plett, P. Pracht, F. Pultar,
   J. Seibert, P. Shushkov, S. Spicher, M. Stahn, M. Steiner, T. Strunk,
   J. Stückrath, T. Rose, and J. Unsleber
   
 * started run on 2024/11/12 at 11:20:57.048     

           -------------------------------------------------
          |                Calculation Setup                |
           -------------------------------------------------

          program call               : xtb opt_cation_Katherine2.mol --gfn2 --sp --chrg -1 --uhf 0
          coordinate file            : opt_cation_Katherine2.mol
          omp threads                :                     8

   ID    Z sym.   atoms
    1    6 C      1-21, 25-44, 47, 52-75
    2    8 O      22, 23, 45, 46, 48-51
    3    5 B      24
    4    1 H      76-141
########################################################################
[WARNING] Please study the warnings concerning your input carefully
-1- prog_main: Charge in sdf/mol input was overwritten
########################################################################

           -------------------------------------------------
          |                 G F N 2 - x T B                 |
           -------------------------------------------------

        Reference                      10.1021/acs.jctc.8b01176
      * Hamiltonian:
        H0-scaling (s, p, d)           1.850000    2.230000    2.230000
        zeta-weighting                 0.500000
      * Dispersion:
        s8                             2.700000
        a1                             0.520000
        a2                             5.000000
        s9                             5.000000
      * Repulsion:
        kExp                           1.500000    1.000000
        rExp                           1.000000
      * Coulomb:
        alpha                          2.000000
        third order                    shell-resolved
        anisotropic                    true
        a3                             3.000000
        a5                             4.000000
        cn-shift                       1.200000
        cn-exp                         4.000000
        max-rad                        5.000000

q/qsh data taken from xtbrestart
CAMM data taken from xtbrestart

          ...................................................
          :                      SETUP                      :
          :.................................................:
          :  # basis functions                 366          :
          :  # atomic orbitals                 366          :
          :  # shells                          216          :
          :  # electrons                       382          :
          :  max. iterations                   250          :
          :  Hamiltonian                  GFN2-xTB          :
          :  restarted?                       true          :
          :  GBSA solvation                  false          :
          :  PC potential                    false          :
          :  electronic temp.          300.0000000     K    :
          :  accuracy                    1.0000000          :
          :  -> integral cutoff          0.2500000E+02      :
          :  -> integral neglect         0.1000000E-07      :
          :  -> SCF convergence          0.1000000E-05 Eh   :
          :  -> wf. convergence          0.1000000E-03 e    :
          :  Broyden damping             0.4000000          :
          ...................................................

 iter      E             dE          RMSdq      gap      omega  full diag
   1   -212.3524827 -0.212352E+03  0.531E-01    0.04       0.0  T
   2   -212.2496106  0.102872E+00  0.745E-01    0.47       1.0  T
   3   -212.2706547 -0.210441E-01  0.655E-01    0.40       1.0  T
   4   -212.2956270 -0.249723E-01  0.555E-01    0.21       1.0  T
   5   -212.3032103 -0.758329E-02  0.505E-01    0.22       1.0  T
   6   -212.3501259 -0.469156E-01  0.365E-01    0.10       1.0  T
   7   -212.3944135 -0.442876E-01  0.178E-01    0.05       1.0  T
   8   -212.4072894 -0.128759E-01  0.324E-02    0.03       1.0  T
   9   -212.4071663  0.123096E-03  0.341E-02    0.03       1.0  T
  10   -212.4066523  0.514064E-03  0.477E-02    0.03       1.0  T
  11   -212.4075131 -0.860878E-03  0.203E-02    0.03       1.0  T
  12   -212.4077023 -0.189121E-03  0.272E-03    0.03       3.1  T
  13   -212.4076998  0.240849E-05  0.356E-03    0.03       2.4  T
  14   -212.4077055 -0.563534E-05  0.694E-04    0.03      12.1  T
  15   -212.4077056 -0.120974E-06  0.443E-04    0.03      19.0  T
  16   -212.4077057 -0.763217E-07  0.168E-04    0.03      50.3  T

   *** convergence criteria satisfied after 16 iterations ***

         #    Occupation            Energy/Eh            Energy/eV
      -------------------------------------------------------------
         1        2.0000           -0.6057319             -16.4828
       ...           ...                  ...                  ...
       185        2.0000           -0.3034807              -8.2581
       186        2.0000           -0.3018431              -8.2136
       187        2.0000           -0.2929659              -7.9720
       188        2.0000           -0.2924662              -7.9584
       189        2.0000           -0.2910394              -7.9196
       190        2.0000           -0.2904539              -7.9037
       191        1.2757           -0.2544018              -6.9226 (HOMO)
       192        0.7243           -0.2533265              -6.8934 (LUMO)
       193                         -0.2072936              -5.6407
       194                         -0.2068563              -5.6288
       195                         -0.1718175              -4.6754
       196                         -0.1681668              -4.5761
       ...                                ...                  ...
       366                          0.8170486              22.2330
      -------------------------------------------------------------
                  HL-Gap            0.0010754 Eh            0.0293 eV
             Fermi-level           -0.2538641 Eh           -6.9080 eV

 SCC (total)                   0 d,  0 h,  0 min,  1.394 sec
 SCC setup                      ...        0 min,  0.000 sec (  0.026%)
 Dispersion                     ...        0 min,  0.002 sec (  0.120%)
 classical contributions        ...        0 min,  0.000 sec (  0.025%)
 integral evaluation            ...        0 min,  0.008 sec (  0.570%)
 iterations                     ...        0 min,  1.322 sec ( 94.783%)
 molecular gradient             ...        0 min,  0.061 sec (  4.365%)
 printout                       ...        0 min,  0.002 sec (  0.110%)

         :::::::::::::::::::::::::::::::::::::::::::::::::::::
         ::                     SUMMARY                     ::
         :::::::::::::::::::::::::::::::::::::::::::::::::::::
         :: total energy            -209.273133033692 Eh    ::
         :: gradient norm              0.000584804769 Eh/a0 ::
         :: HOMO-LUMO gap              0.029262405899 eV    ::
         ::.................................................::
         :: SCC energy              -212.407705676980 Eh    ::
         :: -> isotropic ES            0.338308208365 Eh    ::
         :: -> anisotropic ES          0.011249280573 Eh    ::
         :: -> anisotropic XC          0.074205490189 Eh    ::
         :: -> dispersion             -0.204015135456 Eh    ::
         :: repulsion energy           3.130782015083 Eh    ::
         :: add. restraining           0.000000000000 Eh    ::
         :: total charge              -1.000004865463 e     ::
         :::::::::::::::::::::::::::::::::::::::::::::::::::::

           -------------------------------------------------
          |                Property Printout                |
           -------------------------------------------------

    * Orbital Energies and Occupations

         #    Occupation            Energy/Eh            Energy/eV
      -------------------------------------------------------------
         1        2.0000           -0.6057319             -16.4828
       ...           ...                  ...                  ...
       179        2.0000           -0.3184174              -8.6646
       180        2.0000           -0.3172582              -8.6330
       181        2.0000           -0.3111890              -8.4679
       182        2.0000           -0.3102339              -8.4419
       183        2.0000           -0.3066469              -8.3443
       184        2.0000           -0.3050784              -8.3016
       185        2.0000           -0.3034807              -8.2581
       186        2.0000           -0.3018431              -8.2136
       187        2.0000           -0.2929659              -7.9720
       188        2.0000           -0.2924662              -7.9584
       189        2.0000           -0.2910394              -7.9196
       190        2.0000           -0.2904539              -7.9037
       191        1.2757           -0.2544018              -6.9226 (HOMO)
       192        0.7243           -0.2533265              -6.8934 (LUMO)
       193                         -0.2072936              -5.6407
       194                         -0.2068563              -5.6288
       195                         -0.1718175              -4.6754
       196                         -0.1681668              -4.5761
       197                         -0.1517753              -4.1300
       198                         -0.1513993              -4.1198
       199                         -0.1487238              -4.0470
       200                         -0.1484547              -4.0397
       201                         -0.1403384              -3.8188
       202                         -0.1379614              -3.7541
       ...                                ...                  ...
       366                          0.8170486              22.2330
      -------------------------------------------------------------
                  HL-Gap            0.0010754 Eh            0.0293 eV
             Fermi-level           -0.2538641 Eh           -6.9080 eV

     #   Z          covCN         q      C6AA      α(0)
     1   6 C        2.930    -0.061    29.529     8.912
     2   6 C        2.871     0.169    24.362     8.091
     3   6 C        2.966    -0.010    28.268     8.721
     4   6 C        2.981    -0.029    28.710     8.789
     5   6 C        2.943    -0.035    28.876     8.813
     6   6 C        2.969     0.009    27.819     8.651
     7   6 C        2.970     0.018    27.595     8.617
     8   6 C        2.987     0.000    28.015     8.682
     9   6 C        2.981    -0.022    28.555     8.766
    10   6 C        2.845     0.216    23.454     7.937
    11   6 C        2.981    -0.009    28.241     8.717
    12   6 C        2.980    -0.030    28.739     8.794
    13   6 C        2.839     0.213    23.501     7.944
    14   6 C        2.980    -0.024    28.590     8.771
    15   6 C        2.932    -0.028    28.710     8.787
    16   6 C        2.970     0.003    27.949     8.672
    17   6 C        2.934    -0.024    28.602     8.771
    18   6 C        2.902     0.181    24.117     8.052
    19   6 C        2.927    -0.073    29.811     8.954
    20   6 C        2.971     0.007    27.860     8.658
    21   6 C        2.933    -0.037    28.926     8.820
    22   8 O        1.616    -0.450    21.863     6.311
    23   8 O        1.635    -0.407    21.002     6.186
    24   5 B        3.282     0.632    13.193     6.057
    25   6 C        2.929    -0.069    29.709     8.939
    26   6 C        2.908     0.180    24.145     8.057
    27   6 C        2.984    -0.009    28.230     8.716
    28   6 C        2.980    -0.030    28.742     8.794
    29   6 C        2.930    -0.041    29.018     8.834
    30   6 C        2.971     0.007    27.867     8.659
    31   6 C        2.972     0.018    27.605     8.618
    32   6 C        2.988     0.000    28.020     8.683
    33   6 C        2.979    -0.024    28.592     8.771
    34   6 C        2.966    -0.010    28.261     8.720
    35   6 C        2.981    -0.028    28.699     8.788
    36   6 C        2.845     0.216    23.448     7.936
    37   6 C        2.980    -0.022    28.557     8.766
    38   6 C        2.933    -0.024    28.603     8.771
    39   6 C        2.970     0.003    27.952     8.672
    40   6 C        2.932    -0.028    28.711     8.787
    41   6 C        2.866     0.169    24.354     8.089
    42   6 C        2.931    -0.063    29.560     8.916
    43   6 C        2.969     0.008    27.838     8.654
    44   6 C        2.943    -0.035    28.879     8.814
    45   8 O        1.617    -0.446    21.793     6.301
    46   8 O        1.635    -0.409    21.025     6.189
    47   6 C        2.838     0.213    23.509     7.946
    48   8 O        0.858    -0.426    22.215     6.319
    49   8 O        0.858    -0.430    22.286     6.329
    50   8 O        0.858    -0.427    22.229     6.321
    51   8 O        0.858    -0.431    22.307     6.332
    52   6 C        3.903     0.028    20.054     6.365
    53   6 C        3.761    -0.107    22.592     6.776
    54   6 C        3.763    -0.106    22.564     6.771
    55   6 C        3.761    -0.106    22.565     6.772
    56   6 C        3.903     0.028    20.054     6.365
    57   6 C        3.761    -0.107    22.584     6.774
    58   6 C        3.762    -0.106    22.566     6.772
    59   6 C        3.761    -0.106    22.579     6.774
    60   6 C        3.903     0.026    20.077     6.369
    61   6 C        3.762    -0.105    22.553     6.770
    62   6 C        3.761    -0.107    22.596     6.776
    63   6 C        3.762    -0.105    22.550     6.769
    64   6 C        3.903     0.027    20.059     6.366
    65   6 C        3.761    -0.104    22.529     6.766
    66   6 C        3.762    -0.106    22.569     6.772
    67   6 C        3.761    -0.108    22.607     6.778
    68   6 C        3.903     0.027    20.059     6.366
    69   6 C        3.761    -0.105    22.562     6.771
    70   6 C        3.763    -0.106    22.564     6.771
    71   6 C        3.760    -0.103    22.519     6.765
    72   6 C        3.903     0.026    20.077     6.369
    73   6 C        3.762    -0.105    22.548     6.769
    74   6 C        3.761    -0.107    22.596     6.776
    75   6 C        3.762    -0.105    22.554     6.770
    76   1 H        0.925     0.032     2.563     2.503
    77   1 H        0.925     0.035     2.514     2.480
    78   1 H        0.925     0.041     2.442     2.444
    79   1 H        0.925     0.030     2.584     2.514
    80   1 H        0.925     0.036     2.503     2.474
    81   1 H        0.925     0.042     2.422     2.434
    82   1 H        0.925     0.032     2.561     2.502
    83   1 H        0.925     0.040     2.450     2.448
    84   1 H        0.925     0.036     2.506     2.475
    85   1 H        0.925     0.031     2.573     2.508
    86   1 H        0.925     0.032     2.562     2.503
    87   1 H        0.925     0.040     2.443     2.444
    88   1 H        0.925     0.032     2.553     2.499
    89   1 H        0.925     0.041     2.440     2.443
    90   1 H        0.925     0.031     2.570     2.507
    91   1 H        0.925     0.032     2.554     2.499
    92   1 H        0.925     0.039     2.459     2.452
    93   1 H        0.925     0.041     2.430     2.438
    94   1 H        0.925     0.032     2.565     2.504
    95   1 H        0.925     0.033     2.551     2.498
    96   1 H        0.925     0.040     2.453     2.449
    97   1 H        0.925     0.030     2.584     2.514
    98   1 H        0.925     0.038     2.477     2.461
    99   1 H        0.925     0.038     2.471     2.458
   100   1 H        0.925     0.031     2.568     2.506
   101   1 H        0.925     0.041     2.436     2.441
   102   1 H        0.925     0.033     2.539     2.492
   103   1 H        0.925     0.032     2.555     2.499
   104   1 H        0.925     0.039     2.456     2.451
   105   1 H        0.925     0.041     2.436     2.441
   106   1 H        0.925     0.033     2.550     2.497
   107   1 H        0.925     0.040     2.445     2.445
   108   1 H        0.925     0.031     2.568     2.506
   109   1 H        0.925     0.031     2.574     2.509
   110   1 H        0.925     0.036     2.498     2.472
   111   1 H        0.925     0.041     2.435     2.440
   112   1 H        0.925     0.031     2.569     2.506
   113   1 H        0.925     0.033     2.542     2.493
   114   1 H        0.925     0.040     2.447     2.446
   115   1 H        0.925     0.030     2.581     2.512
   116   1 H        0.925     0.039     2.466     2.456
   117   1 H        0.925     0.037     2.483     2.464
   118   1 H        0.925     0.032     2.564     2.504
   119   1 H        0.925     0.045     2.377     2.411
   120   1 H        0.925     0.034     2.533     2.489
   121   1 H        0.925     0.031     2.567     2.506
   122   1 H        0.925     0.041     2.435     2.440
   123   1 H        0.925     0.033     2.540     2.492
   124   1 H        0.925     0.032     2.565     2.504
   125   1 H        0.925     0.033     2.551     2.498
   126   1 H        0.925     0.040     2.451     2.448
   127   1 H        0.925     0.030     2.584     2.514
   128   1 H        0.925     0.038     2.477     2.461
   129   1 H        0.925     0.038     2.472     2.459
   130   1 H        0.926     0.062     2.171     2.304
   131   1 H        0.926     0.055     2.263     2.352
   132   1 H        0.926     0.059     2.216     2.328
   133   1 H        0.926     0.065     2.143     2.289
   134   1 H        0.926     0.056     2.241     2.341
   135   1 H        0.926     0.080     1.980     2.200
   136   1 H        0.926     0.064     2.153     2.295
   137   1 H        0.926     0.058     2.226     2.333
   138   1 H        0.926     0.054     2.268     2.355
   139   1 H        0.926     0.062     2.173     2.305
   140   1 H        0.926     0.062     2.171     2.304
   141   1 H        0.926     0.072     2.067     2.248

 Mol. C6AA /au·bohr⁶  :     226862.338882
 Mol. C8AA /au·bohr⁸  :    5457765.414351
 Mol. α(0) /au        :        739.703897


Wiberg/Mayer (AO) data.
largest (>0.10) Wiberg bond orders for each atom

 ---------------------------------------------------------------------------
     #   Z sym  total        # sym  WBO       # sym  WBO       # sym  WBO
 ---------------------------------------------------------------------------
     1   6 C    3.968 --     6 C    1.412     2 C    1.374   133 H    0.947
     2   6 C    3.886 --     1 C    1.374     3 C    1.253    22 O    1.087
     3   6 C    3.976 --     4 C    1.262     2 C    1.253     7 C    1.209
     4   6 C    3.950 --     5 C    1.408     3 C    1.262    10 C    1.063
     5   6 C    3.958 --     4 C    1.408     6 C    1.385   132 H    0.957
     6   6 C    3.931 --     1 C    1.412     5 C    1.385    52 C    0.983
     7   6 C    3.786 --    11 C    1.223     3 C    1.209     8 C    1.202
     8   6 C    3.968 --    14 C    1.275     9 C    1.271     7 C    1.202
     9   6 C    3.948 --    17 C    1.407     8 C    1.271    10 C    1.058
    10   6 C    3.918 --    50 O    1.686     4 C    1.063     9 C    1.058
    11   6 C    3.971 --    12 C    1.251    18 C    1.246     7 C    1.223
    12   6 C    3.945 --    21 C    1.406    11 C    1.251    13 C    1.072
    13   6 C    3.916 --    51 O    1.675    12 C    1.072    14 C    1.059
    14   6 C    3.944 --    15 C    1.396     8 C    1.275    13 C    1.059
    15   6 C    3.982 --    16 C    1.410    14 C    1.396   130 H    0.959
    16   6 C    3.943 --    15 C    1.410    17 C    1.395    60 C    0.983
    17   6 C    3.983 --     9 C    1.407    16 C    1.395   131 H    0.959
    18   6 C    3.876 --    19 C    1.356    11 C    1.246    23 O    1.098
    19   6 C    3.962 --    20 C    1.416    18 C    1.356   135 H    0.940
    20   6 C    3.934 --    19 C    1.416    21 C    1.380    56 C    0.983
    21   6 C    3.952 --    12 C    1.406    20 C    1.380   134 H    0.958
    22   8 O    2.034 --     2 C    1.087    24 B    0.732
    23   8 O    2.125 --    18 C    1.098    24 B    0.818
    24   5 B    3.274 --    46 O    0.824    23 O    0.818    45 O    0.735
                            22 O    0.732
    25   6 C    3.963 --    30 C    1.397    26 C    1.372   141 H    0.942
    26   6 C    3.881 --    25 C    1.372    27 C    1.241    46 O    1.092
    27   6 C    3.971 --    28 C    1.259    26 C    1.241    31 C    1.219
    28   6 C    3.942 --    29 C    1.392    27 C    1.259    47 C    1.074
    29   6 C    3.953 --    30 C    1.397    28 C    1.392   140 H    0.958
    30   6 C    3.934 --    25 C    1.397    29 C    1.397    64 C    0.983
    31   6 C    3.786 --    27 C    1.219    34 C    1.212    32 C    1.202
    32   6 C    3.968 --    33 C    1.275    37 C    1.271    31 C    1.202
    33   6 C    3.944 --    40 C    1.397    32 C    1.275    47 C    1.058
    34   6 C    3.976 --    35 C    1.263    41 C    1.249    31 C    1.212
    35   6 C    3.949 --    44 C    1.408    34 C    1.263    36 C    1.061
    36   6 C    3.918 --    48 O    1.688    35 C    1.061    37 C    1.058
    37   6 C    3.948 --    38 C    1.406    32 C    1.271    36 C    1.058
    38   6 C    3.983 --    37 C    1.406    39 C    1.395   138 H    0.959
    39   6 C    3.943 --    40 C    1.409    38 C    1.395    72 C    0.983
    40   6 C    3.982 --    39 C    1.409    33 C    1.397   139 H    0.959
    41   6 C    3.885 --    42 C    1.376    34 C    1.249    45 O    1.088
    42   6 C    3.967 --    43 C    1.412    41 C    1.376   136 H    0.946
    43   6 C    3.931 --    42 C    1.412    44 C    1.385    68 C    0.983
    44   6 C    3.958 --    35 C    1.408    43 C    1.385   137 H    0.957
    45   8 O    2.040 --    41 C    1.088    24 B    0.735
    46   8 O    2.126 --    26 C    1.092    24 B    0.824
    47   6 C    3.915 --    49 O    1.675    28 C    1.074    33 C    1.058
    48   8 O    1.940 --    36 C    1.688
    49   8 O    1.926 --    47 C    1.675
    50   8 O    1.939 --    10 C    1.686
    51   8 O    1.927 --    13 C    1.675
    52   6 C    3.990 --    53 C    1.000    55 C    0.987    54 C    0.985
                             6 C    0.983
    53   6 C    3.996 --    52 C    1.000   109 H    0.985   111 H    0.984
                           110 H    0.982
    54   6 C    3.992 --   104 H    0.986    52 C    0.985   103 H    0.985
                           105 H    0.984
    55   6 C    3.993 --    52 C    0.987   108 H    0.987   106 H    0.985
                           107 H    0.983
    56   6 C    3.990 --    59 C    1.000    57 C    0.986    58 C    0.986
                            20 C    0.983
    57   6 C    3.993 --    56 C    0.986    84 H    0.985    82 H    0.985
                            83 H    0.983
    58   6 C    3.992 --    77 H    0.987    56 C    0.986    76 H    0.985
                            78 H    0.984
    59   6 C    3.996 --    56 C    1.000    79 H    0.985    81 H    0.984
                            80 H    0.983
    60   6 C    3.990 --    62 C    1.000    63 C    0.987    61 C    0.987
                            16 C    0.983
    61   6 C    3.994 --    60 C    0.987   123 H    0.987   121 H    0.985
                           122 H    0.983
    62   6 C    3.996 --    60 C    1.000   127 H    0.985   128 H    0.985
                           129 H    0.985
    63   6 C    3.994 --    60 C    0.987   125 H    0.987   124 H    0.985
                           126 H    0.983
    64   6 C    3.991 --    67 C    1.000    65 C    0.987    66 C    0.986
                            30 C    0.983
    65   6 C    3.993 --    64 C    0.987   113 H    0.985   112 H    0.985
                           114 H    0.982
    66   6 C    3.993 --   120 H    0.987    64 C    0.986   118 H    0.985
                           119 H    0.982
    67   6 C    3.996 --    64 C    1.000   115 H    0.985   116 H    0.985
                           117 H    0.985
    68   6 C    3.990 --    71 C    1.000    69 C    0.988    70 C    0.985
                            43 C    0.983
    69   6 C    3.993 --    68 C    0.988    90 H    0.987    88 H    0.985
                            89 H    0.983
    70   6 C    3.992 --    92 H    0.986    68 C    0.985    91 H    0.985
                            93 H    0.984
    71   6 C    3.997 --    68 C    1.000    85 H    0.985    86 H    0.983
                            87 H    0.983
    72   6 C    3.990 --    74 C    1.000    75 C    0.987    73 C    0.987
                            39 C    0.983
    73   6 C    3.994 --    95 H    0.987    72 C    0.987    94 H    0.985
                            96 H    0.984
    74   6 C    3.996 --    72 C    1.000    97 H    0.985    98 H    0.985
                            99 H    0.985
    75   6 C    3.994 --    72 C    0.987   102 H    0.987   100 H    0.985
                           101 H    0.983
    76   1 H    0.998 --    58 C    0.985
    77   1 H    0.999 --    58 C    0.987
    78   1 H    0.998 --    58 C    0.984
    79   1 H    0.999 --    59 C    0.985
    80   1 H    0.999 --    59 C    0.983
    81   1 H    0.998 --    59 C    0.984
    82   1 H    0.998 --    57 C    0.985
    83   1 H    0.998 --    57 C    0.983
    84   1 H    0.999 --    57 C    0.985
    85   1 H    0.999 --    71 C    0.985
    86   1 H    0.999 --    71 C    0.983
    87   1 H    0.998 --    71 C    0.983
    88   1 H    0.998 --    69 C    0.985
    89   1 H    0.998 --    69 C    0.983
    90   1 H    0.999 --    69 C    0.987
    91   1 H    0.998 --    70 C    0.985
    92   1 H    0.998 --    70 C    0.986
    93   1 H    0.998 --    70 C    0.984
    94   1 H    0.998 --    73 C    0.985
    95   1 H    0.999 --    73 C    0.987
    96   1 H    0.998 --    73 C    0.984
    97   1 H    0.999 --    74 C    0.985
    98   1 H    0.999 --    74 C    0.985
    99   1 H    0.999 --    74 C    0.985
   100   1 H    0.998 --    75 C    0.985
   101   1 H    0.998 --    75 C    0.983
   102   1 H    0.999 --    75 C    0.987
   103   1 H    0.998 --    54 C    0.985
   104   1 H    0.998 --    54 C    0.986
   105   1 H    0.998 --    54 C    0.984
   106   1 H    0.998 --    55 C    0.985
   107   1 H    0.998 --    55 C    0.983
   108   1 H    0.999 --    55 C    0.987
   109   1 H    0.999 --    53 C    0.985
   110   1 H    0.999 --    53 C    0.982
   111   1 H    0.998 --    53 C    0.984
   112   1 H    0.998 --    65 C    0.985
   113   1 H    0.999 --    65 C    0.985
   114   1 H    0.998 --    65 C    0.982
   115   1 H    0.999 --    67 C    0.985
   116   1 H    0.998 --    67 C    0.985
   117   1 H    0.999 --    67 C    0.985
   118   1 H    0.998 --    66 C    0.985
   119   1 H    0.998 --    66 C    0.982
   120   1 H    0.999 --    66 C    0.987
   121   1 H    0.998 --    61 C    0.985
   122   1 H    0.998 --    61 C    0.983
   123   1 H    0.999 --    61 C    0.987
   124   1 H    0.998 --    63 C    0.985
   125   1 H    0.999 --    63 C    0.987
   126   1 H    0.998 --    63 C    0.983
   127   1 H    0.999 --    62 C    0.985
   128   1 H    0.999 --    62 C    0.985
   129   1 H    0.999 --    62 C    0.985
   130   1 H    0.996 --    15 C    0.959
   131   1 H    0.996 --    17 C    0.959
   132   1 H    0.996 --     5 C    0.957
   133   1 H    0.995 --     1 C    0.947
   134   1 H    0.996 --    21 C    0.958
   135   1 H    0.993 --    19 C    0.940
   136   1 H    0.995 --    42 C    0.946
   137   1 H    0.996 --    44 C    0.957
   138   1 H    0.996 --    38 C    0.959
   139   1 H    0.996 --    40 C    0.959
   140   1 H    0.995 --    29 C    0.958
   141   1 H    0.994 --    25 C    0.942
 ---------------------------------------------------------------------------

Topologies differ in bond orders
Writing corrected topology to xtbtopo.mol

molecular dipole:
                 x           y           z       tot (Debye)
 q only:       -0.034      -0.515       1.645
   full:       -0.044      -0.544       1.771       4.711
molecular quadrupole (traceless):
                xx          xy          yy          xz          yz          zz
 q only:      -62.136      17.291      35.164       2.407       4.178      26.973
  q+dip:      -62.260      16.280      35.392       1.754       4.550      26.868
   full:      -66.861      21.208      36.172       3.291       3.356      30.689


           -------------------------------------------------
          | TOTAL ENERGY             -209.273133033692 Eh   |
          | GRADIENT NORM               0.000584804769 Eh/α |
          | HOMO-LUMO GAP               0.029262405899 eV   |
           -------------------------------------------------
########################################################################
[WARNING] Runtime exception occurred
-1- restart_readRestart: Number of electron missmatch in restart file.
########################################################################

------------------------------------------------------------------------
 * finished run on 2024/11/12 at 11:20:58.460     
------------------------------------------------------------------------
 total:
 * wall-time:     0 d,  0 h,  0 min,  1.412 sec
 *  cpu-time:     0 d,  0 h,  0 min,  4.996 sec
 * ratio c/w:     3.539 speedup
Note: The following floating-point exceptions are signalling: IEEE_UNDERFLOW_FLAG
normal termination of xtb
 SCF:
 * wall-time:     0 d,  0 h,  0 min,  1.395 sec
 *  cpu-time:     0 d,  0 h,  0 min,  4.957 sec
 * ratio c/w:     3.554 speedup

