      -----------------------------------------------------------      
     |                   =====================                   |     
     |                           x T B                           |     
     |                   =====================                   |     
     |                         S. Grimme                         |     
     |          Mulliken Center for Theoretical Chemistry        |     
     |                    University of Bonn                     |     
      -----------------------------------------------------------      

   * xtb version 6.6.1 (8d0f1dd) compiled by 'runner@Mac-1690902418499.local' on 2023-08-01

   xtb is free software: you can redistribute it and/or modify it under
   the terms of the GNU Lesser General Public License as published by
   the Free Software Foundation, either version 3 of the License, or
   (at your option) any later version.
   
   xtb is distributed in the hope that it will be useful,
   but WITHOUT ANY WARRANTY; without even the implied warranty of
   MERCHANTABILITY or FITNESS FOR A PARTICULAR PURPOSE.  See the
   GNU Lesser General Public License for more details.
   
   Cite this work as:
   * C. Bannwarth, E. Caldeweyher, S. Ehlert, A. Hansen, P. Pracht,
     J. Seibert, S. Spicher, S. Grimme, WIREs Comput. Mol. Sci., 2020, 11,
     e01493. DOI: 10.1002/wcms.1493
   
   for GFN2-xTB:
   * C. Bannwarth, S. Ehlert and S. Grimme., J. Chem. Theory Comput., 2019,
     15, 1652-1671. DOI: 10.1021/acs.jctc.8b01176
   for GFN1-xTB:
   * S. Grimme, C. Bannwarth, P. Shushkov, J. Chem. Theory Comput., 2017,
     13, 1989-2009. DOI: 10.1021/acs.jctc.7b00118
   for GFN0-xTB:
   * P. Pracht, E. Caldeweyher, S. Ehlert, S. Grimme, ChemRxiv, 2019, preprint.
     DOI: 10.26434/chemrxiv.8326202.v1
   for GFN-FF:
   * S. Spicher and S. Grimme, Angew. Chem. Int. Ed., 2020, 59, 15665-15673.
     DOI: 10.1002/anie.202004239
   
   for ALPB and GBSA implicit solvation:
   * S. Ehlert, M. Stahn, S. Spicher, S. Grimme, J. Chem. Theory Comput.,
     2021, 17, 4250-4261. DOI: 10.1021/acs.jctc.1c00471
   
   for DFT-D4:
   * E. Caldeweyher, C. Bannwarth and S. Grimme, J. Chem. Phys., 2017,
     147, 034112. DOI: 10.1063/1.4993215
   * E. Caldeweyher, S. Ehlert, A. Hansen, H. Neugebauer, S. Spicher,
     C. Bannwarth and S. Grimme, J. Chem. Phys., 2019, 150, 154122.
     DOI: 10.1063/1.5090222
   * E. Caldeweyher, J.-M. Mewes, S. Ehlert and S. Grimme, Phys. Chem. Chem. Phys.
     2020, 22, 8499-8512. DOI: 10.1039/D0CP00502A
   
   for sTDA-xTB:
   * S. Grimme and C. Bannwarth, J. Chem. Phys., 2016, 145, 054103.
     DOI: 10.1063/1.4959605
   
   in the mass-spec context:
   * V. Asgeirsson, C. Bauer and S. Grimme, Chem. Sci., 2017, 8, 4879.
     DOI: 10.1039/c7sc00601b
   * J. Koopman and S. Grimme, ACS Omega 2019, 4, 12, 15120-15133.
     DOI: 10.1021/acsomega.9b02011
   
   for metadynamics refer to:
   * S. Grimme, J. Chem. Theory Comput., 2019, 155, 2847-2862
     DOI: 10.1021/acs.jctc.9b00143
   
   for SPH calculations refer to:
   * S. Spicher and S. Grimme, J. Chem. Theory Comput., 2021, 17, 1701-1714
     DOI: 10.1021/acs.jctc.0c01306
   
   with help from (in alphabetical order)
   P. Atkinson, C. Bannwarth, F. Bohle, G. Brandenburg, E. Caldeweyher
   M. Checinski, S. Dohm, S. Ehlert, S. Ehrlich, I. Gerasimov, C. Hölzer
   A. Katbashev, J. Koopman, C. Lavigne, S. Lehtola, F. März, M. Müller,
   F. Musil, H. Neugebauer, J. Pisarek, C. Plett, P. Pracht, F. Pultar,
   J. Seibert, P. Shushkov, S. Spicher, M. Stahn, M. Steiner, T. Strunk,
   J. Stückrath, T. Rose, and J. Unsleber
   
 * started run on 2024/11/12 at 12:08:55.405     

           -------------------------------------------------
          |                Calculation Setup                |
           -------------------------------------------------

          program call               : xtb stacked_dimer_Katherine2.mol --opt --gfn2 --chrg -2 --uhf 0 --tight
          coordinate file            : stacked_dimer_Katherine2.mol
          omp threads                :                     8

   ID    Z sym.   atoms
    1    6 C      1-21, 25-44, 47, 52-75, 142-162, 166-185, 188, 193-216
    2    8 O      22, 23, 45, 46, 48-51, 163, 164, 186, 187, 189-192
    3    5 B      24, 165
    4    1 H      76-141, 217-282

molecular fragmentation (1/2 indicates fragments):
111111111111111111111111111111111111111111111111111111111111111111111111
111111111111111111111111111111111111111111111111111111111111111111111222
222222222222222222222222222222222222222222222222222222222222222222222222
222222222222222222222222222222222222222222222222222222222222222222
# atoms in fragment 1/2:   141   141
 fragment masses (1/2) :      998.04      998.04
CMA distance (Bohr)    :  11.714
constraining FC (au)   :  0.0500
########################################################################
[WARNING] Please study the warnings concerning your input carefully
-2- prog_main: Charge in sdf/mol input was overwritten
-1- prog_main_parseArguments: Unknown option '--tight' provided
########################################################################

           -------------------------------------------------
          |                 G F N 2 - x T B                 |
           -------------------------------------------------

        Reference                      10.1021/acs.jctc.8b01176
      * Hamiltonian:
        H0-scaling (s, p, d)           1.850000    2.230000    2.230000
        zeta-weighting                 0.500000
      * Dispersion:
        s8                             2.700000
        a1                             0.520000
        a2                             5.000000
        s9                             5.000000
      * Repulsion:
        kExp                           1.500000    1.000000
        rExp                           1.000000
      * Coulomb:
        alpha                          2.000000
        third order                    shell-resolved
        anisotropic                    true
        a3                             3.000000
        a5                             4.000000
        cn-shift                       1.200000
        cn-exp                         4.000000
        max-rad                        5.000000

q/qsh data taken from xtbrestart
CAMM data taken from xtbrestart

          ...................................................
          :                      SETUP                      :
          :.................................................:
          :  # basis functions                 732          :
          :  # atomic orbitals                 732          :
          :  # shells                          432          :
          :  # electrons                       764          :
          :  max. iterations                   250          :
          :  Hamiltonian                  GFN2-xTB          :
          :  restarted?                       true          :
          :  GBSA solvation                  false          :
          :  PC potential                    false          :
          :  electronic temp.          300.0000000     K    :
          :  accuracy                    1.0000000          :
          :  -> integral cutoff          0.2500000E+02      :
          :  -> integral neglect         0.1000000E-07      :
          :  -> SCF convergence          0.1000000E-05 Eh   :
          :  -> wf. convergence          0.1000000E-03 e    :
          :  Broyden damping             0.4000000          :
          ...................................................

 iter      E             dE          RMSdq      gap      omega  full diag
   1   -423.3870619 -0.423387E+03  0.275E+00    0.25       0.0  T
   2   -421.5758147  0.181125E+01  0.233E+00    0.05       1.0  T
   3   -421.1768668  0.398948E+00  0.200E+00    0.12       1.0  T
   4   -423.0674411 -0.189057E+01  0.138E+00    0.31       1.0  T
   5   -423.7718697 -0.704429E+00  0.907E-01    0.28       1.0  T
   6   -423.8378657 -0.659960E-01  0.732E-01    0.19       1.0  T
   7   -423.9191691 -0.813034E-01  0.620E-01    0.08       1.0  T
   8   -423.9762796 -0.571105E-01  0.498E-01    0.04       1.0  T
   9   -423.7906099  0.185670E+00  0.638E-01    0.21       1.0  T
  10   -423.8742473 -0.836375E-01  0.563E-01    0.23       1.0  T
  11   -424.0759504 -0.201703E+00  0.320E-01    0.02       1.0  T
  12   -424.0864881 -0.105377E-01  0.318E-01    0.01       1.0  T
  13   -424.0869262 -0.438144E-03  0.270E-01    0.03       1.0  T
  14   -424.1108473 -0.239211E-01  0.225E-01    0.03       1.0  T
  15   -424.1498130 -0.389657E-01  0.794E-02    0.01       1.0  T
  16   -424.1503406 -0.527611E-03  0.743E-02    0.00       1.0  T
  17   -424.1543358 -0.399518E-02  0.399E-02    0.02       1.0  T
  18   -424.1555949 -0.125913E-02  0.109E-02    0.01       1.0  T
  19   -424.1556616 -0.666472E-04  0.659E-03    0.01       1.0  T
  20   -424.1556116  0.499709E-04  0.992E-03    0.01       1.0  T
  21   -424.1556863 -0.746376E-04  0.260E-03    0.01       2.3  T
  22   -424.1556917 -0.539079E-05  0.877E-04    0.01       6.8  T
  23   -424.1556922 -0.504543E-06  0.290E-04    0.01      20.6  T
  24   -424.1556922 -0.420624E-08  0.270E-04    0.01      22.1  T

   *** convergence criteria satisfied after 24 iterations ***

         #    Occupation            Energy/Eh            Energy/eV
      -------------------------------------------------------------
         1        2.0000           -0.5632314             -15.3263
       ...           ...                  ...                  ...
       376        2.0000           -0.2353425              -6.4040
       377        2.0000           -0.2346956              -6.3864
       378        2.0000           -0.2318356              -6.3086
       379        2.0000           -0.2315358              -6.3004
       380        2.0000           -0.2294756              -6.2444
       381        1.2267           -0.1958209              -5.3286
       382        1.0797           -0.1955344              -5.3208 (HOMO)
       383        0.8741           -0.1951420              -5.3101 (LUMO)
       384        0.8195           -0.1950358              -5.3072
       385                         -0.1535108              -4.1772
       386                         -0.1525595              -4.1514
       387                         -0.1513581              -4.1187
       ...                                ...                  ...
       732                          0.9129909              24.8437
      -------------------------------------------------------------
                  HL-Gap            0.0003924 Eh            0.0107 eV
             Fermi-level           -0.1953826 Eh           -5.3166 eV

 SCC (total)                   0 d,  0 h,  0 min,  6.458 sec
 SCC setup                      ...        0 min,  0.001 sec (  0.023%)
 Dispersion                     ...        0 min,  0.007 sec (  0.112%)
 classical contributions        ...        0 min,  0.001 sec (  0.021%)
 integral evaluation            ...        0 min,  0.030 sec (  0.462%)
 iterations                     ...        0 min,  6.026 sec ( 93.311%)
 molecular gradient             ...        0 min,  0.379 sec (  5.875%)
 printout                       ...        0 min,  0.013 sec (  0.195%)

         :::::::::::::::::::::::::::::::::::::::::::::::::::::
         ::                     SUMMARY                     ::
         :::::::::::::::::::::::::::::::::::::::::::::::::::::
         :: total energy            -418.090450678182 Eh    ::
         :: gradient norm              0.398978972170 Eh/a0 ::
         :: HOMO-LUMO gap              0.010677798408 eV    ::
         ::.................................................::
         :: SCC energy              -424.155692160715 Eh    ::
         :: -> isotropic ES            0.737606072350 Eh    ::
         :: -> anisotropic ES          0.025332480200 Eh    ::
         :: -> anisotropic XC          0.158714803319 Eh    ::
         :: -> dispersion             -0.462953184053 Eh    ::
         :: repulsion energy           6.028316797412 Eh    ::
         :: add. restraining           0.000000000000 Eh    ::
         :: total charge              -1.999999429209 e     ::
         :::::::::::::::::::::::::::::::::::::::::::::::::::::

      ----------------------------------------------------------- 
     |                   =====================                   |
     |                        A N C O P T                        |
     |                   =====================                   |
     |               Approximate Normal Coordinate               |
     |                Rational Function Optimizer                |
      ----------------------------------------------------------- 

          ...................................................
          :                      SETUP                      :
          :.................................................:
          :   optimization level            normal          :
          :   max. optcycles                   846          :
          :   ANC micro-cycles                  20          :
          :   degrees of freedom               840          :
          :.................................................:
          :   RF solver                   davidson          :
          :   write xtbopt.log                true          :
          :   linear?                        false          :
          :   energy convergence         0.5000000E-05 Eh   :
          :   grad. convergence          0.1000000E-02 Eh/α :
          :   maxmium RF displ.          1.0000000          :
          :   Hlow (freq-cutoff)         0.1000000E-01      :
          :   Hmax (freq-cutoff)         5.0000000          :
          :   S6 in model hess.         20.0000000          :
          ...................................................

generating ANC from model Hessian ...
Using Lindh-Hessian (1995)
 Shifting diagonal of input Hessian by    1.3716123163233214E-002
 Lowest  eigenvalues of input Hessian
    0.010000    0.010628    0.013277    0.013665    0.013673    0.013701
    0.000000    0.000000    0.000000    0.000000    0.000000    0.000000
    0.013750    0.013758    0.013808    0.013830    0.013864    0.013895
 Highest eigenvalues
    2.223715    2.232555    2.235221    2.257961    2.293406    2.352036


........................................................................
.............................. CYCLE    1 ..............................
........................................................................

 iter      E             dE          RMSdq      gap      omega  full diag
   1   -424.1556922 -0.424156E+03  0.713E-05    0.01       0.0  T
   2   -424.1556901  0.210081E-05  0.164E-03    0.01       3.6  T
   3   -424.1556921 -0.202129E-05  0.299E-04    0.01      19.9  T
   4   -424.1556922 -0.823368E-07  0.292E-05    0.01     203.7  T
   5   -424.1556922  0.124165E-07  0.123E-04    0.01      48.5  T
     SCC iter.                  ...        0 min,  1.062 sec
     gradient                   ...        0 min,  0.384 sec
 * total energy  :  -418.0904507 Eh     change       -0.5687735E-07 Eh
   gradient norm :     0.3989800 Eh/α   predicted     0.0000000E+00 (-100.00%)
   displ. norm   :     0.6157533 α      lambda       -0.2006224E+00
   maximum displ.:     0.1321944 α      in ANC's #588, #585, #581, ...

........................................................................
.............................. CYCLE    2 ..............................
........................................................................

 iter      E             dE          RMSdq      gap      omega  full diag
   1   -424.3066029 -0.424307E+03  0.271E-01    0.00       0.0  T
   2   -423.9597652  0.346838E+00  0.666E-01    0.36       1.0  T
   3   -424.1024395 -0.142674E+00  0.519E-01    0.11       1.0  T
   4   -424.1928531 -0.904136E-01  0.494E-01    0.12       1.0  T
   5   -424.2547610 -0.619079E-01  0.313E-01    0.05       1.0  T
   6   -424.0906411  0.164120E+00  0.500E-01    0.11       1.0  T
   7   -424.3305035 -0.239862E+00  0.136E-01    0.00       1.0  T
   8   -424.3214372  0.906631E-02  0.147E-01    0.02       1.0  T
   9   -424.3315800 -0.101428E-01  0.110E-01    0.02       1.0  T
  10   -424.3415362 -0.995624E-02  0.550E-02    0.00       1.0  T
  11   -424.3442295 -0.269325E-02  0.170E-02    0.01       1.0  T
  12   -424.3443690 -0.139472E-03  0.103E-02    0.01       1.0  T
  13   -424.3444163 -0.472955E-04  0.742E-03    0.01       1.0  T
  14   -424.3444552 -0.389382E-04  0.402E-03    0.01       1.5  T
  15   -424.3444654 -0.101920E-04  0.258E-03    0.01       2.3  T
  16   -424.3444717 -0.630089E-05  0.659E-04    0.01       9.0  T
  17   -424.3444721 -0.449815E-06  0.933E-05    0.01      63.9  T
  18   -424.3444721  0.169987E-07  0.158E-04    0.01      37.8  T
     SCC iter.                  ...        0 min,  4.122 sec
     gradient                   ...        0 min,  0.394 sec
 * total energy  :  -418.2436008 Eh     change       -0.1531501E+00 Eh
   gradient norm :     0.1986802 Eh/α   predicted    -0.1383602E+00 (  -9.66%)
   displ. norm   :     0.6311236 α      lambda       -0.1015469E+00
   maximum displ.:     0.1277763 α      in ANC's #203, #588, #581, ...

........................................................................
.............................. CYCLE    3 ..............................
........................................................................

 iter      E             dE          RMSdq      gap      omega  full diag
   1   -424.4974579 -0.424497E+03  0.198E-01    0.01       0.0  T
   2   -424.2877193  0.209739E+00  0.493E-01    0.07       1.0  T
   3   -424.3820782 -0.943589E-01  0.370E-01    0.06       1.0  T
   4   -424.3355614  0.465168E-01  0.408E-01    0.07       1.0  T
   5   -424.4027879 -0.672265E-01  0.383E-01    0.05       1.0  T
   6   -424.4438637 -0.410758E-01  0.278E-01    0.00       1.0  T
   7   -424.4868183 -0.429545E-01  0.147E-01    0.03       1.0  T
   8   -424.5080581 -0.212398E-01  0.476E-02    0.00       1.0  T
   9   -424.5044246  0.363345E-02  0.732E-02    0.02       1.0  T
  10   -424.5085025 -0.407792E-02  0.388E-02    0.01       1.0  T
  11   -424.5098934 -0.139087E-02  0.137E-02    0.01       1.0  T
  12   -424.5100392 -0.145760E-03  0.538E-03    0.01       1.1  T
  13   -424.5100555 -0.163627E-04  0.386E-03    0.01       1.5  T
  14   -424.5100652 -0.968328E-05  0.190E-03    0.01       3.1  T
  15   -424.5100672 -0.193227E-05  0.882E-04    0.01       6.8  T
  16   -424.5100679 -0.744040E-06  0.309E-04    0.01      19.2  T
  17   -424.5100679 -0.504223E-07  0.191E-04    0.01      31.1  T
     SCC iter.                  ...        0 min,  3.173 sec
     gradient                   ...        0 min,  0.381 sec
 * total energy  :  -418.3155289 Eh     change       -0.7192808E-01 Eh
   gradient norm :     0.0724079 Eh/α   predicted    -0.7099741E-01 (  -1.29%)
   displ. norm   :     0.6737520 α      lambda       -0.4097256E-01
   maximum displ.:     0.1441897 α      in ANC's #203, #14, #3, ...

........................................................................
.............................. CYCLE    4 ..............................
........................................................................

 iter      E             dE          RMSdq      gap      omega  full diag
   1   -424.5968238 -0.424597E+03  0.147E-01    0.01       0.0  T
   2   -424.3567245  0.240099E+00  0.490E-01    0.13       1.0  T
   3   -424.5275295 -0.170805E+00  0.291E-01    0.01       1.0  T
   4   -424.4231789  0.104351E+00  0.398E-01    0.07       1.0  T
   5   -424.4935412 -0.703623E-01  0.368E-01    0.03       1.0  T
   6   -424.5365145 -0.429733E-01  0.242E-01    0.02       1.0  T
   7   -424.5925777 -0.560632E-01  0.845E-02    0.01       1.0  T
   8   -424.5993602 -0.678250E-02  0.294E-02    0.01       1.0  T
   9   -424.5999780 -0.617767E-03  0.175E-02    0.01       1.0  T
  10   -424.6000845 -0.106499E-03  0.139E-02    0.01       1.0  T
  11   -424.6002565 -0.171984E-03  0.526E-03    0.00       1.1  T
  12   -424.6002793 -0.228153E-04  0.251E-03    0.00       2.4  T
  13   -424.6002847 -0.547828E-05  0.125E-03    0.00       4.8  T
  14   -424.6002858 -0.100116E-05  0.836E-04    0.00       7.1  T
  15   -424.6002860 -0.254684E-06  0.593E-04    0.00      10.0  T
  16   -424.6002864 -0.389746E-06  0.110E-04    0.00      54.2  T
     SCC iter.                  ...        0 min,  2.629 sec
     gradient                   ...        0 min,  0.387 sec
 * total energy  :  -418.3472811 Eh     change       -0.3175213E-01 Eh
   gradient norm :     0.0429866 Eh/α   predicted    -0.2978598E-01 (  -6.19%)
   displ. norm   :     0.7556743 α      lambda       -0.2513382E-01
   maximum displ.:     0.1902405 α      in ANC's #14, #3, #20, ...

........................................................................
.............................. CYCLE    5 ..............................
........................................................................

 iter      E             dE          RMSdq      gap      omega  full diag
   1   -424.6614310 -0.424661E+03  0.110E-01    0.01       0.0  T
   2   -424.5125338  0.148897E+00  0.377E-01    0.05       1.0  T
   3   -424.5821076 -0.695738E-01  0.293E-01    0.05       1.0  T
   4   -424.5654790  0.166286E-01  0.356E-01    0.06       1.0  T
   5   -424.6374635 -0.719844E-01  0.157E-01    0.01       1.0  T
   6   -424.6006083  0.368552E-01  0.243E-01    0.02       1.0  T
   7   -424.6621952 -0.615869E-01  0.207E-02    0.00       1.0  T
   8   -424.6624287 -0.233508E-03  0.983E-03    0.00       1.0  T
   9   -424.6624819 -0.531669E-04  0.737E-03    0.00       1.0  T
  10   -424.6625289 -0.470774E-04  0.120E-03    0.00       5.0  T
  11   -424.6625292 -0.303286E-06  0.843E-04    0.00       7.1  T
  12   -424.6625292 -0.266516E-08  0.846E-04    0.00       7.0  T
     SCC iter.                  ...        0 min,  2.122 sec
     gradient                   ...        0 min,  0.383 sec
 * total energy  :  -418.3682556 Eh     change       -0.2097455E-01 Eh
   gradient norm :     0.0312077 Eh/α   predicted    -0.1974317E-01 (  -5.87%)
   displ. norm   :     0.8216385 α      lambda       -0.1915831E-01
   maximum displ.:     0.2205442 α      in ANC's #14, #3, #20, ...

........................................................................
.............................. CYCLE    6 ..............................
........................................................................

 iter      E             dE          RMSdq      gap      omega  full diag
   1   -424.6994687 -0.424699E+03  0.877E-02    0.00       0.0  T
   2   -424.6188536  0.806151E-01  0.316E-01    0.05       1.0  T
   3   -424.6821495 -0.632959E-01  0.146E-01    0.01       1.0  T
   4   -424.4978361  0.184313E+00  0.425E-01    0.08       1.0  T
   5   -424.5843131 -0.864770E-01  0.331E-01    0.05       1.0  T
   6   -424.6987783 -0.114465E+00  0.369E-02    0.00       1.0  T
   7   -424.6997316 -0.953247E-03  0.157E-02    0.00       1.0  T
   8   -424.6999247 -0.193101E-03  0.786E-03    0.00       1.0  T
   9   -424.6999511 -0.264354E-04  0.567E-03    0.00       1.1  T
  10   -424.6999806 -0.294606E-04  0.189E-03    0.00       3.2  T
  11   -424.6999833 -0.271711E-05  0.791E-04    0.00       7.5  T
  12   -424.6999837 -0.401059E-06  0.534E-04    0.00      11.2  T
  13   -424.6999838 -0.157050E-06  0.370E-04    0.00      16.1  T
     SCC iter.                  ...        0 min,  2.671 sec
     gradient                   ...        0 min,  0.389 sec
 * total energy  :  -418.3850445 Eh     change       -0.1678893E-01 Eh
   gradient norm :     0.0237852 Eh/α   predicted    -0.1604594E-01 (  -4.43%)
   displ. norm   :     0.8768760 α      lambda       -0.1653156E-01
   maximum displ.:     0.2438389 α      in ANC's #14, #3, #32, ...

........................................................................
.............................. CYCLE    7 ..............................
........................................................................

 iter      E             dE          RMSdq      gap      omega  full diag
   1   -424.7274846 -0.424727E+03  0.769E-02    0.01       0.0  T
   2   -424.6369967  0.904879E-01  0.325E-01    0.02       1.0  T
   3   -424.6979237 -0.609270E-01  0.170E-01    0.03       1.0  T
   4   -424.6132518  0.846719E-01  0.331E-01    0.02       1.0  T
   5   -424.7080457 -0.947939E-01  0.134E-01    0.02       1.0  T
   6   -424.7199720 -0.119263E-01  0.866E-02    0.00       1.0  T
   7   -424.7275883 -0.761634E-02  0.190E-02    0.00       1.0  T
   8   -424.7279862 -0.397891E-03  0.435E-03    0.00       1.4  T
   9   -424.7279976 -0.113660E-04  0.255E-03    0.00       2.3  T
  10   -424.7280002 -0.257796E-05  0.177E-03    0.00       3.4  T
  11   -424.7280033 -0.311924E-05  0.680E-04    0.00       8.8  T
  12   -424.7280036 -0.330705E-06  0.318E-04    0.00      18.7  T
  13   -424.7280037 -0.778016E-07  0.116E-04    0.00      51.3  T
     SCC iter.                  ...        0 min,  2.481 sec
     gradient                   ...        0 min,  0.387 sec
 * total energy  :  -418.3997108 Eh     change       -0.1466628E-01 Eh
   gradient norm :     0.0216519 Eh/α   predicted    -0.1462147E-01 (  -0.31%)
   displ. norm   :     0.8995866 α      lambda       -0.1480827E-01
   maximum displ.:     0.2444130 α      in ANC's #14, #20, #3, ...

........................................................................
.............................. CYCLE    8 ..............................
........................................................................

 iter      E             dE          RMSdq      gap      omega  full diag
   1   -424.7364091 -0.424736E+03  0.757E-02    0.01       0.0  T
   2   -424.6023868  0.134022E+00  0.365E-01    0.03       1.0  T
   3   -424.6782121 -0.758253E-01  0.234E-01    0.04       1.0  T
   4   -424.7025003 -0.242882E-01  0.215E-01    0.03       1.0  T
   5   -424.6744588  0.280415E-01  0.244E-01    0.05       1.0  T
   6   -424.7284000 -0.539411E-01  0.106E-01    0.01       1.0  T
   7   -424.7370691 -0.866909E-02  0.157E-02    0.00       1.0  T
   8   -424.7372406 -0.171586E-03  0.316E-03    0.00       1.9  T
   9   -424.7372402  0.492659E-06  0.327E-03    0.00       1.8  T
  10   -424.7372479 -0.777443E-05  0.802E-04    0.00       7.4  T
  11   -424.7372484 -0.440270E-06  0.375E-04    0.00      15.9  T
  12   -424.7372484 -0.534652E-08  0.354E-04    0.00      16.8  T
     SCC iter.                  ...        0 min,  2.111 sec
     gradient                   ...        0 min,  0.407 sec
 * total energy  :  -418.4127989 Eh     change       -0.1308807E-01 Eh
   gradient norm :     0.0193650 Eh/α   predicted    -0.1339599E-01 (   2.35%)
   displ. norm   :     0.8948140 α      lambda       -0.1257310E-01
   maximum displ.:     0.2644907 α      in ANC's #32, #14, #3, ...

........................................................................
.............................. CYCLE    9 ..............................
........................................................................

 iter      E             dE          RMSdq      gap      omega  full diag
   1   -424.7462545 -0.424746E+03  0.710E-02    0.01       0.0  T
   2   -424.5234391  0.222815E+00  0.447E-01    0.10       1.0  T
   3   -424.7060620 -0.182623E+00  0.215E-01    0.01       1.0  T
   4   -424.7176942 -0.116322E-01  0.185E-01    0.00       1.0  T
   5   -424.6224216  0.952726E-01  0.338E-01    0.05       1.0  T
   6   -424.7368331 -0.114412E+00  0.103E-01    0.01       1.0  T
   7   -424.7471335 -0.103004E-01  0.170E-02    0.00       1.0  T
   8   -424.7473700 -0.236478E-03  0.576E-03    0.01       1.0  T
   9   -424.7474003 -0.302689E-04  0.206E-03    0.01       2.9  T
  10   -424.7474031 -0.276631E-05  0.111E-03    0.01       5.4  T
  11   -424.7474035 -0.485895E-06  0.922E-04    0.01       6.5  T
  12   -424.7474040 -0.435059E-06  0.542E-04    0.01      11.0  T
     SCC iter.                  ...        0 min,  1.999 sec
     gradient                   ...        0 min,  0.389 sec
 * total energy  :  -418.4242196 Eh     change       -0.1142071E-01 Eh
   gradient norm :     0.0165598 Eh/α   predicted    -0.1132014E-01 (  -0.88%)
   displ. norm   :     0.8997547 α      lambda       -0.1074319E-01
   maximum displ.:     0.2789157 α      in ANC's #32, #14, #3, ...

........................................................................
.............................. CYCLE   10 ..............................
........................................................................

 iter      E             dE          RMSdq      gap      omega  full diag
   1   -424.7511532 -0.424751E+03  0.696E-02    0.01       0.0  T
   2   -424.4991485  0.252005E+00  0.475E-01    0.13       1.0  T
   3   -424.7201034 -0.220955E+00  0.193E-01    0.01       1.0  T
   4   -424.7231664 -0.306295E-02  0.184E-01    0.00       1.0  T
   5   -424.6305865  0.925799E-01  0.333E-01    0.05       1.0  T
   6   -424.7454292 -0.114843E+00  0.826E-02    0.01       1.0  T
   7   -424.7523335 -0.690435E-02  0.104E-02    0.01       1.0  T
   8   -424.7524122 -0.787288E-04  0.511E-03    0.01       1.2  T
   9   -424.7524362 -0.239488E-04  0.168E-03    0.01       3.6  T
  10   -424.7524379 -0.173781E-05  0.916E-04    0.01       6.5  T
  11   -424.7524381 -0.198752E-06  0.868E-04    0.01       6.9  T
  12   -424.7524387 -0.535469E-06  0.362E-04    0.01      16.5  T
     SCC iter.                  ...        0 min,  1.938 sec
     gradient                   ...        0 min,  0.383 sec
 * total energy  :  -418.4340759 Eh     change       -0.9856292E-02 Eh
   gradient norm :     0.0134490 Eh/α   predicted    -0.9720215E-02 (  -1.38%)
   displ. norm   :     0.9020470 α      lambda       -0.9244826E-02
   maximum displ.:     0.2949208 α      in ANC's #32, #3, #20, ...

........................................................................
.............................. CYCLE   11 ..............................
........................................................................

 iter      E             dE          RMSdq      gap      omega  full diag
   1   -424.7546970 -0.424755E+03  0.659E-02    0.01       0.0  T
   2   -424.4926307  0.262066E+00  0.484E-01    0.15       1.0  T
   3   -424.7363247 -0.243694E+00  0.147E-01    0.01       1.0  T
   4   -424.7089978  0.273269E-01  0.231E-01    0.01       1.0  T
   5   -424.6637040  0.452938E-01  0.291E-01    0.03       1.0  T
   6   -424.7517218 -0.880177E-01  0.619E-02    0.00       1.0  T
   7   -424.7557805 -0.405870E-02  0.112E-02    0.01       1.0  T
   8   -424.7558792 -0.987832E-04  0.391E-03    0.01       1.5  T
   9   -424.7558904 -0.111272E-04  0.210E-03    0.01       2.8  T
  10   -424.7558911 -0.768090E-06  0.194E-03    0.01       3.1  T
  11   -424.7558945 -0.338582E-05  0.529E-04    0.01      11.3  T
  12   -424.7558948 -0.243819E-06  0.149E-04    0.01      39.8  T
  13   -424.7558948  0.951025E-08  0.175E-04    0.01      34.1  T
     SCC iter.                  ...        0 min,  2.202 sec
     gradient                   ...        0 min,  0.382 sec
 * total energy  :  -418.4425318 Eh     change       -0.8455930E-02 Eh
   gradient norm :     0.0118141 Eh/α   predicted    -0.8383619E-02 (  -0.86%)
   displ. norm   :     0.9012123 α      lambda       -0.7926363E-02
   maximum displ.:     0.3008739 α      in ANC's #32, #3, #20, ...

........................................................................
.............................. CYCLE   12 ..............................
........................................................................

 iter      E             dE          RMSdq      gap      omega  full diag
   1   -424.7582859 -0.424758E+03  0.580E-02    0.01       0.0  T
   2   -424.5587741  0.199512E+00  0.421E-01    0.10       1.0  T
   3   -424.7427303 -0.183956E+00  0.125E-01    0.03       1.0  T
   4   -424.6936762  0.490541E-01  0.278E-01    0.03       1.0  T
   5   -424.7550766 -0.614003E-01  0.609E-02    0.00       1.0  T
   6   -424.7321429  0.229336E-01  0.160E-01    0.03       1.0  T
   7   -424.7587303 -0.265873E-01  0.107E-02    0.00       1.0  T
   8   -424.7588492 -0.118975E-03  0.188E-03    0.01       3.2  T
   9   -424.7588511 -0.187514E-05  0.115E-03    0.01       5.2  T
  10   -424.7588506  0.525421E-06  0.125E-03    0.01       4.8  T
  11   -424.7588522 -0.164148E-05  0.122E-04    0.01      48.8  T
  12   -424.7588522  0.200362E-07  0.156E-04    0.01      38.1  T
  13   -424.7588522  0.652227E-08  0.170E-04    0.01      35.1  T
     SCC iter.                  ...        0 min,  2.185 sec
     gradient                   ...        0 min,  0.386 sec
 * total energy  :  -418.4497468 Eh     change       -0.7214980E-02 Eh
   gradient norm :     0.0105045 Eh/α   predicted    -0.7182011E-02 (  -0.46%)
   displ. norm   :     0.8991287 α      lambda       -0.6796661E-02
   maximum displ.:     0.3036539 α      in ANC's #32, #3, #20, ...

........................................................................
.............................. CYCLE   13 ..............................
........................................................................

 iter      E             dE          RMSdq      gap      omega  full diag
   1   -424.7608358 -0.424761E+03  0.520E-02    0.01       0.0  T
   2   -424.6230891  0.137747E+00  0.350E-01    0.05       1.0  T
   3   -424.7467476 -0.123659E+00  0.117E-01    0.03       1.0  T
   4   -424.6583278  0.884198E-01  0.304E-01    0.05       1.0  T
   5   -424.7078745 -0.495467E-01  0.270E-01    0.05       1.0  T
   6   -424.7592375 -0.513630E-01  0.420E-02    0.00       1.0  T
   7   -424.7611395 -0.190207E-02  0.731E-03    0.01       1.0  T
   8   -424.7611787 -0.391956E-04  0.204E-03    0.01       2.9  T
   9   -424.7611825 -0.378336E-05  0.749E-04    0.01       7.9  T
  10   -424.7611825  0.577144E-07  0.726E-04    0.01       8.2  T
  11   -424.7611829 -0.408321E-06  0.245E-04    0.01      24.3  T
     SCC iter.                  ...        0 min,  1.838 sec
     gradient                   ...        0 min,  0.397 sec
 * total energy  :  -418.4559176 Eh     change       -0.6170789E-02 Eh
   gradient norm :     0.0101915 Eh/α   predicted    -0.6145652E-02 (  -0.41%)
   displ. norm   :     0.8951204 α      lambda       -0.5854730E-02
   maximum displ.:     0.2974717 α      in ANC's #32, #3, #20, ...

........................................................................
.............................. CYCLE   14 ..............................
........................................................................

 iter      E             dE          RMSdq      gap      omega  full diag
   1   -424.7636850 -0.424764E+03  0.463E-02    0.01       0.0  T
   2   -424.6915001  0.721849E-01  0.258E-01    0.03       1.0  T
   3   -424.7587829 -0.672828E-01  0.747E-02    0.00       1.0  T
   4   -424.7067844  0.519986E-01  0.276E-01    0.04       1.0  T
   5   -424.7633550 -0.565707E-01  0.231E-02    0.00       1.0  T
   6   -424.7485300  0.148251E-01  0.116E-01    0.03       1.0  T
   7   -424.7638185 -0.152885E-01  0.611E-03    0.01       1.0  T
   8   -424.7638452 -0.266557E-04  0.160E-03    0.01       3.7  T
   9   -424.7638473 -0.214788E-05  0.577E-04    0.01      10.3  T
  10   -424.7638469  0.392761E-06  0.775E-04    0.01       7.7  T
  11   -424.7638475 -0.574545E-06  0.149E-04    0.01      40.0  T
     SCC iter.                  ...        0 min,  1.892 sec
     gradient                   ...        0 min,  0.387 sec
 * total energy  :  -418.4612554 Eh     change       -0.5337764E-02 Eh
   gradient norm :     0.0084974 Eh/α   predicted    -0.5272891E-02 (  -1.22%)
   displ. norm   :     0.8961853 α      lambda       -0.5105882E-02
   maximum displ.:     0.2915647 α      in ANC's #32, #3, #4, ...

........................................................................
.............................. CYCLE   15 ..............................
........................................................................

 iter      E             dE          RMSdq      gap      omega  full diag
   1   -424.7658410 -0.424766E+03  0.437E-02    0.00       0.0  T
   2   -424.6809955  0.848455E-01  0.279E-01    0.05       1.0  T
   3   -424.7635447 -0.825491E-01  0.562E-02    0.00       1.0  T
   4   -424.6993812  0.641634E-01  0.282E-01    0.04       1.0  T
   5   -424.7513240 -0.519427E-01  0.115E-01    0.03       1.0  T
   6   -424.7637583 -0.124344E-01  0.465E-02    0.00       1.0  T
   7   -424.7660062 -0.224786E-02  0.560E-03    0.01       1.1  T
   8   -424.7660259 -0.197308E-04  0.190E-03    0.01       3.1  T
   9   -424.7660294 -0.347290E-05  0.538E-04    0.01      11.1  T
  10   -424.7660289  0.509543E-06  0.801E-04    0.01       7.4  T
  11   -424.7660295 -0.652803E-06  0.205E-04    0.01      29.1  T
     SCC iter.                  ...        0 min,  1.778 sec
     gradient                   ...        0 min,  0.380 sec
 * total energy  :  -418.4659567 Eh     change       -0.4701317E-02 Eh
   gradient norm :     0.0081433 Eh/α   predicted    -0.4603335E-02 (  -2.08%)
   displ. norm   :     0.8999411 α      lambda       -0.4599423E-02
   maximum displ.:     0.2759033 α      in ANC's #32, #3, #4, ...

........................................................................
.............................. CYCLE   16 ..............................
........................................................................

 iter      E             dE          RMSdq      gap      omega  full diag
   1   -424.7693311 -0.424769E+03  0.448E-02    0.00       0.0  T
   2   -424.6580767  0.111254E+00  0.318E-01    0.03       1.0  T
   3   -424.7650395 -0.106963E+00  0.759E-02    0.01       1.0  T
   4   -424.7325615  0.324780E-01  0.191E-01    0.01       1.0  T
   5   -424.7193193  0.132422E-01  0.234E-01    0.01       1.0  T
   6   -424.7696313 -0.503120E-01  0.129E-02    0.01       1.0  T
   7   -424.7696988 -0.674956E-04  0.783E-03    0.01       1.0  T
   8   -424.7697524 -0.536059E-04  0.172E-03    0.01       3.5  T
   9   -424.7697551 -0.273734E-05  0.580E-04    0.01      10.3  T
  10   -424.7697539  0.122760E-05  0.115E-03    0.01       5.2  T
  11   -424.7697548 -0.929181E-06  0.649E-04    0.01       9.2  T
  12   -424.7697553 -0.465907E-06  0.116E-04    0.01      51.4  T
     SCC iter.                  ...        0 min,  1.968 sec
     gradient                   ...        0 min,  0.381 sec
 * total energy  :  -418.4702187 Eh     change       -0.4261994E-02 Eh
   gradient norm :     0.0073912 Eh/α   predicted    -0.4162241E-02 (  -2.34%)
   displ. norm   :     0.9113999 α      lambda       -0.4273818E-02
   maximum displ.:     0.2745476 α      in ANC's #3, #32, #4, ...

........................................................................
.............................. CYCLE   17 ..............................
........................................................................

 iter      E             dE          RMSdq      gap      omega  full diag
   1   -424.7687068 -0.424769E+03  0.474E-02    0.00       0.0  T
   2   -424.6637529  0.104954E+00  0.308E-01    0.01       1.0  T
   3   -424.7638815 -0.100129E+00  0.845E-02    0.00       1.0  T
   4   -424.7406244  0.232571E-01  0.180E-01    0.02       1.0  T
   5   -424.7005343  0.400901E-01  0.252E-01    0.04       1.0  T
   6   -424.7689061 -0.683718E-01  0.175E-02    0.01       1.0  T
   7   -424.7691489 -0.242843E-03  0.609E-03    0.01       1.0  T
   8   -424.7691808 -0.318504E-04  0.161E-03    0.01       3.7  T
   9   -424.7691827 -0.187122E-05  0.743E-04    0.01       8.0  T
  10   -424.7691815  0.115394E-05  0.118E-03    0.01       5.0  T
  11   -424.7691823 -0.800112E-06  0.797E-04    0.01       7.5  T
  12   -424.7691830 -0.687839E-06  0.132E-04    0.01      45.2  T
     SCC iter.                  ...        0 min,  2.184 sec
     gradient                   ...        0 min,  0.380 sec
 * total energy  :  -418.4741598 Eh     change       -0.3941087E-02 Eh
   gradient norm :     0.0097505 Eh/α   predicted    -0.3911933E-02 (  -0.74%)
   displ. norm   :     0.9132182 α      lambda       -0.4116531E-02
   maximum displ.:     0.2847404 α      in ANC's #3, #1, #4, ...

........................................................................
.............................. CYCLE   18 ..............................
........................................................................

 iter      E             dE          RMSdq      gap      omega  full diag
   1   -424.7735922 -0.424774E+03  0.533E-02    0.00       0.0  T
   2   -424.6539318  0.119660E+00  0.330E-01    0.03       1.0  T
   3   -424.7555438 -0.101612E+00  0.151E-01    0.02       1.0  T
   4   -424.7665387 -0.109948E-01  0.926E-02    0.01       1.0  T
   5   -424.6770747  0.894640E-01  0.314E-01    0.02       1.0  T
   6   -424.7736629 -0.965882E-01  0.297E-02    0.00       1.0  T
   7   -424.7744602 -0.797348E-03  0.127E-02    0.01       1.0  T
   8   -424.7746212 -0.160975E-03  0.153E-03    0.01       3.9  T
   9   -424.7746229 -0.170076E-05  0.737E-04    0.01       8.1  T
  10   -424.7746224  0.447870E-06  0.897E-04    0.01       6.6  T
  11   -424.7746232 -0.762610E-06  0.304E-04    0.01      19.6  T
     SCC iter.                  ...        0 min,  1.850 sec
     gradient                   ...        0 min,  0.436 sec
 * total energy  :  -418.4779152 Eh     change       -0.3755442E-02 Eh
   gradient norm :     0.0092948 Eh/α   predicted    -0.3774803E-02 (   0.52%)
   displ. norm   :     0.9160115 α      lambda       -0.3847220E-02
   maximum displ.:     0.3201890 α      in ANC's #1, #3, #4, ...

........................................................................
.............................. CYCLE   19 ..............................
........................................................................

 iter      E             dE          RMSdq      gap      omega  full diag
   1   -424.7733135 -0.424773E+03  0.566E-02    0.00       0.0  T
   2   -424.6538639  0.119450E+00  0.331E-01    0.03       1.0  T
   3   -424.7428154 -0.889515E-01  0.191E-01    0.02       1.0  T
   4   -424.7676212 -0.248058E-01  0.848E-02    0.00       1.0  T
   5   -424.6731181  0.945031E-01  0.321E-01    0.03       1.0  T
   6   -424.7726070 -0.994889E-01  0.412E-02    0.00       1.0  T
   7   -424.7741648 -0.155783E-02  0.172E-02    0.01       1.0  T
   8   -424.7744867 -0.321876E-03  0.116E-03    0.01       5.1  T
   9   -424.7744872 -0.486451E-06  0.594E-04    0.01      10.0  T
  10   -424.7744867  0.494311E-06  0.855E-04    0.01       7.0  T
     SCC iter.                  ...        0 min,  1.976 sec
     gradient                   ...        0 min,  0.389 sec
 * total energy  :  -418.4814967 Eh     change       -0.3581491E-02 Eh
   gradient norm :     0.0089996 Eh/α   predicted    -0.3537673E-02 (  -1.22%)
   displ. norm   :     0.9180511 α      lambda       -0.3674151E-02
   maximum displ.:     0.3153699 α      in ANC's #1, #3, #21, ...

........................................................................
.............................. CYCLE   20 ..............................
........................................................................

 iter      E             dE          RMSdq      gap      omega  full diag
   1   -424.7738478 -0.424774E+03  0.594E-02    0.00       0.0  T
   2   -424.6465395  0.127308E+00  0.346E-01    0.06       1.0  T
   3   -424.7235649 -0.770254E-01  0.231E-01    0.02       1.0  T
   4   -424.7674204 -0.438555E-01  0.875E-02    0.00       1.0  T
   5   -424.6777950  0.896254E-01  0.318E-01    0.03       1.0  T
   6   -424.7745696 -0.967746E-01  0.225E-02    0.00       1.0  T
   7   -424.7749492 -0.379582E-03  0.118E-02    0.01       1.0  T
   8   -424.7750691 -0.119915E-03  0.446E-03    0.01       1.3  T
   9   -424.7750806 -0.114575E-04  0.275E-03    0.01       2.2  T
  10   -424.7750844 -0.378676E-05  0.198E-03    0.01       3.0  T
  11   -424.7750885 -0.415005E-05  0.338E-04    0.01      17.6  T
  12   -424.7750886 -0.915903E-07  0.982E-05    0.01      60.6  T
  13   -424.7750886 -0.259433E-08  0.824E-05    0.01      72.3  T
     SCC iter.                  ...        0 min,  2.320 sec
     gradient                   ...        0 min,  0.383 sec
 * total energy  :  -418.4849282 Eh     change       -0.3431524E-02 Eh
   gradient norm :     0.0092054 Eh/α   predicted    -0.3385396E-02 (  -1.34%)
   displ. norm   :     0.9181492 α      lambda       -0.3498171E-02
   maximum displ.:     0.3547425 α      in ANC's #1, #3, #21, ...
 * RMSD in coord.:     0.8318924 α      energy gain  -0.3944775E+00 Eh

generating ANC from model Hessian ...
Using Lindh-Hessian (1995)
 Shifting diagonal of input Hessian by    9.9994557456329659E-003
 Lowest  eigenvalues of input Hessian
    0.000000    0.000000    0.000000    0.000000    0.000000    0.000000
    0.010000    0.010010    0.010029    0.010044    0.010051    0.010066
    0.010083    0.010099    0.010132    0.010137    0.010164    0.010209
 Highest eigenvalues
    2.216414    2.221326    2.236345    2.245922    2.251360    2.253016


........................................................................
.............................. CYCLE   21 ..............................
........................................................................

 iter      E             dE          RMSdq      gap      omega  full diag
   1   -424.7774113 -0.424777E+03  0.699E-02    0.00       0.0  T
   2   -424.6342481  0.143163E+00  0.372E-01    0.07       1.0  T
   3   -424.6958719 -0.616238E-01  0.297E-01    0.02       1.0  T
   4   -424.7744399 -0.785679E-01  0.771E-02    0.00       1.0  T
   5   -424.7036508  0.707891E-01  0.282E-01    0.02       1.0  T
   6   -424.7546700 -0.510192E-01  0.152E-01    0.00       1.0  T
   7   -424.7795023 -0.248323E-01  0.187E-02    0.01       1.0  T
   8   -424.7798121 -0.309848E-03  0.782E-03    0.01       1.0  T
   9   -424.7798789 -0.668093E-04  0.993E-04    0.01       6.0  T
  10   -424.7798793 -0.383836E-06  0.748E-04    0.01       8.0  T
  11   -424.7798782  0.108484E-05  0.121E-03    0.01       4.9  T
  12   -424.7798797 -0.151494E-05  0.307E-04    0.01      19.4  T
  13   -424.7798798 -0.800310E-07  0.914E-05    0.01      65.2  T
     SCC iter.                  ...        0 min,  2.270 sec
     gradient                   ...        0 min,  0.386 sec
 * total energy  :  -418.4881552 Eh     change       -0.3226944E-02 Eh
   gradient norm :     0.0080055 Eh/α   predicted     0.0000000E+00 (-100.00%)
   displ. norm   :     0.2918869 α      lambda       -0.1114763E-02
   maximum displ.:     0.0941829 α      in ANC's #6, #16, #44, ...

........................................................................
.............................. CYCLE   22 ..............................
........................................................................

 iter      E             dE          RMSdq      gap      omega  full diag
   1   -424.7822812 -0.424782E+03  0.179E-02    0.01       0.0  T
   2   -424.7628064  0.194748E-01  0.154E-01    0.03       1.0  T
   3   -424.7814779 -0.186715E-01  0.301E-02    0.01       1.0  T
   4   -424.7709986  0.104793E-01  0.106E-01    0.00       1.0  T
   5   -424.7819441 -0.109454E-01  0.191E-02    0.01       1.0  T
   6   -424.7809715  0.972542E-03  0.348E-02    0.00       1.0  T
   7   -424.7823460 -0.137445E-02  0.177E-03    0.01       3.4  T
   8   -424.7823487 -0.274107E-05  0.316E-04    0.01      18.8  T
   9   -424.7823487 -0.399069E-08  0.247E-04    0.01      24.1  T
  10   -424.7823488 -0.247947E-07  0.151E-04    0.01      39.3  T
     SCC iter.                  ...        0 min,  1.651 sec
     gradient                   ...        0 min,  0.381 sec
 * total energy  :  -418.4892149 Eh     change       -0.1059707E-02 Eh
   gradient norm :     0.0050644 Eh/α   predicted    -0.6053992E-03 ( -42.87%)
   displ. norm   :     0.8583879 α      lambda       -0.2954527E-02
   maximum displ.:     0.2675160 α      in ANC's #6, #16, #21, ...

........................................................................
.............................. CYCLE   23 ..............................
........................................................................

 iter      E             dE          RMSdq      gap      omega  full diag
   1   -424.7842804 -0.424784E+03  0.558E-02    0.01       0.0  T
   2   -424.6465628  0.137718E+00  0.422E-01    0.09       1.0  T
   3   -424.7833518 -0.136789E+00  0.531E-02    0.01       1.0  T
   4   -424.6877168  0.956350E-01  0.295E-01    0.01       1.0  T
   5   -424.7850185 -0.973017E-01  0.155E-02    0.00       1.0  T
   6   -424.7648388  0.201797E-01  0.137E-01    0.00       1.0  T
   7   -424.7851701 -0.203312E-01  0.827E-03    0.00       1.0  T
   8   -424.7852307 -0.606330E-04  0.375E-03    0.01       1.6  T
   9   -424.7852459 -0.152225E-04  0.783E-04    0.01       7.6  T
  10   -424.7852455  0.478825E-06  0.944E-04    0.01       6.3  T
  11   -424.7852463 -0.820515E-06  0.404E-04    0.01      14.7  T
     SCC iter.                  ...        0 min,  1.861 sec
     gradient                   ...        0 min,  0.385 sec
 * total energy  :  -418.4919281 Eh     change       -0.2713258E-02 Eh
   gradient norm :     0.0059276 Eh/α   predicted    -0.2566000E-02 (  -5.43%)
   displ. norm   :     0.9014576 α      lambda       -0.2704505E-02
   maximum displ.:     0.2886510 α      in ANC's #6, #16, #21, ...

........................................................................
.............................. CYCLE   24 ..............................
........................................................................

 iter      E             dE          RMSdq      gap      omega  full diag
   1   -424.7844417 -0.424784E+03  0.609E-02    0.01       0.0  T
   2   -424.6313574  0.153084E+00  0.446E-01    0.10       1.0  T
   3   -424.7774779 -0.146121E+00  0.926E-02    0.01       1.0  T
   4   -424.7550660  0.224119E-01  0.165E-01    0.01       1.0  T
   5   -424.7816436 -0.265775E-01  0.610E-02    0.01       1.0  T
   6   -424.7799830  0.166057E-02  0.752E-02    0.00       1.0  T
   7   -424.7857672 -0.578418E-02  0.643E-03    0.01       1.0  T
   8   -424.7858024 -0.352567E-04  0.300E-03    0.01       2.0  T
   9   -424.7858100 -0.755122E-05  0.437E-04    0.01      13.6  T
  10   -424.7858092  0.787390E-06  0.934E-04    0.01       6.4  T
  11   -424.7858099 -0.743563E-06  0.352E-04    0.01      16.9  T
     SCC iter.                  ...        0 min,  1.855 sec
     gradient                   ...        0 min,  0.386 sec
 * total energy  :  -418.4944451 Eh     change       -0.2517022E-02 Eh
   gradient norm :     0.0074584 Eh/α   predicted    -0.2451131E-02 (  -2.62%)
   displ. norm   :     0.8988729 α      lambda       -0.2467590E-02
   maximum displ.:     0.2955484 α      in ANC's #6, #16, #21, ...

........................................................................
.............................. CYCLE   25 ..............................
........................................................................

 iter      E             dE          RMSdq      gap      omega  full diag
   1   -424.7861567 -0.424786E+03  0.605E-02    0.01       0.0  T
   2   -424.6452025  0.140954E+00  0.427E-01    0.09       1.0  T
   3   -424.7660997 -0.120897E+00  0.142E-01    0.02       1.0  T
   4   -424.7802730 -0.141733E-01  0.823E-02    0.00       1.0  T
   5   -424.7719739  0.829915E-02  0.119E-01    0.00       1.0  T
   6   -424.7861706 -0.141968E-01  0.397E-02    0.01       1.0  T
   7   -424.7875393 -0.136862E-02  0.520E-03    0.01       1.1  T
   8   -424.7875394 -0.185954E-06  0.489E-03    0.01       1.2  T
   9   -424.7875625 -0.230890E-04  0.517E-04    0.01      11.5  T
  10   -424.7875619  0.607488E-06  0.884E-04    0.01       6.7  T
  11   -424.7875625 -0.534818E-06  0.458E-04    0.01      13.0  T
     SCC iter.                  ...        0 min,  1.836 sec
     gradient                   ...        0 min,  0.392 sec
 * total energy  :  -418.4967370 Eh     change       -0.2291861E-02 Eh
   gradient norm :     0.0066858 Eh/α   predicted    -0.2230683E-02 (  -2.67%)
   displ. norm   :     0.8928636 α      lambda       -0.2229119E-02
   maximum displ.:     0.3027928 α      in ANC's #6, #16, #21, ...

........................................................................
.............................. CYCLE   26 ..............................
........................................................................

 iter      E             dE          RMSdq      gap      omega  full diag
   1   -424.7898246 -0.424790E+03  0.569E-02    0.01       0.0  T
   2   -424.6805762  0.109248E+00  0.369E-01    0.05       1.0  T
   3   -424.7805954 -0.100019E+00  0.102E-01    0.02       1.0  T
   4   -424.7749343  0.566109E-02  0.122E-01    0.00       1.0  T
   5   -424.7830628 -0.812844E-02  0.845E-02    0.00       1.0  T
   6   -424.7879726 -0.490980E-02  0.575E-02    0.01       1.0  T
   7   -424.7910324 -0.305982E-02  0.557E-03    0.01       1.1  T
   8   -424.7910077  0.247025E-04  0.716E-03    0.01       1.0  T
   9   -424.7910621 -0.543868E-04  0.419E-04    0.01      14.2  T
  10   -424.7910618  0.294171E-06  0.619E-04    0.01       9.6  T
  11   -424.7910619 -0.139891E-06  0.466E-04    0.01      12.8  T
     SCC iter.                  ...        0 min,  1.856 sec
     gradient                   ...        0 min,  0.396 sec
 * total energy  :  -418.4988005 Eh     change       -0.2063462E-02 Eh
   gradient norm :     0.0052125 Eh/α   predicted    -0.2003100E-02 (  -2.93%)
   displ. norm   :     0.8964916 α      lambda       -0.1993886E-02
   maximum displ.:     0.3101443 α      in ANC's #6, #16, #12, ...

........................................................................
.............................. CYCLE   27 ..............................
........................................................................

 iter      E             dE          RMSdq      gap      omega  full diag
   1   -424.7929572 -0.424793E+03  0.516E-02    0.01       0.0  T
   2   -424.6921044  0.100853E+00  0.325E-01    0.02       1.0  T
   3   -424.7750288 -0.829244E-01  0.136E-01    0.02       1.0  T
   4   -424.7801757 -0.514697E-02  0.115E-01    0.02       1.0  T
   5   -424.7177904  0.623853E-01  0.275E-01    0.02       1.0  T
   6   -424.7902266 -0.724362E-01  0.577E-02    0.00       1.0  T
   7   -424.7937892 -0.356256E-02  0.104E-02    0.01       1.0  T
   8   -424.7938068 -0.176021E-04  0.802E-03    0.01       1.0  T
   9   -424.7938748 -0.680721E-04  0.140E-03    0.01       4.3  T
  10   -424.7938763 -0.149840E-05  0.697E-04    0.01       8.5  T
  11   -424.7938766 -0.229037E-06  0.463E-04    0.01      12.9  T
  12   -424.7938768 -0.187695E-06  0.224E-04    0.01      26.6  T
     SCC iter.                  ...        0 min,  2.033 sec
     gradient                   ...        0 min,  0.384 sec
 * total energy  :  -418.5006548 Eh     change       -0.1854355E-02 Eh
   gradient norm :     0.0043399 Eh/α   predicted    -0.1798185E-02 (  -3.03%)
   displ. norm   :     0.8980570 α      lambda       -0.1804856E-02
   maximum displ.:     0.3177640 α      in ANC's #6, #16, #12, ...

........................................................................
.............................. CYCLE   28 ..............................
........................................................................

 iter      E             dE          RMSdq      gap      omega  full diag
   1   -424.7964653 -0.424796E+03  0.475E-02    0.01       0.0  T
   2   -424.6518452  0.144620E+00  0.364E-01    0.08       1.0  T
   3   -424.7744178 -0.122573E+00  0.157E-01    0.01       1.0  T
   4   -424.7909573 -0.165394E-01  0.795E-02    0.00       1.0  T
   5   -424.7175356  0.734217E-01  0.287E-01    0.02       1.0  T
   6   -424.7961236 -0.785880E-01  0.332E-02    0.01       1.0  T
   7   -424.7971803 -0.105671E-02  0.100E-02    0.01       1.0  T
   8   -424.7972169 -0.365806E-04  0.631E-03    0.01       1.0  T
   9   -424.7972592 -0.423307E-04  0.104E-03    0.01       5.7  T
  10   -424.7972599 -0.699947E-06  0.738E-04    0.01       8.1  T
  11   -424.7972601 -0.194150E-06  0.450E-04    0.01      13.2  T
     SCC iter.                  ...        0 min,  1.885 sec
     gradient                   ...        0 min,  0.382 sec
 * total energy  :  -418.5023350 Eh     change       -0.1680168E-02 Eh
   gradient norm :     0.0039098 Eh/α   predicted    -0.1630245E-02 (  -2.97%)
   displ. norm   :     0.9029936 α      lambda       -0.1637051E-02
   maximum displ.:     0.3225535 α      in ANC's #6, #16, #12, ...

........................................................................
.............................. CYCLE   29 ..............................
........................................................................

 iter      E             dE          RMSdq      gap      omega  full diag
   1   -424.7979946 -0.424798E+03  0.442E-02    0.01       0.0  T
   2   -424.6324612  0.165533E+00  0.386E-01    0.11       1.0  T
   3   -424.7977444 -0.165283E+00  0.354E-02    0.01       1.0  T
   4   -424.7291031  0.686413E-01  0.251E-01    0.03       1.0  T
   5   -424.7605312 -0.314282E-01  0.222E-01    0.04       1.0  T
   6   -424.7975383 -0.370070E-01  0.298E-02    0.01       1.0  T
   7   -424.7984388 -0.900506E-03  0.919E-03    0.01       1.0  T
   8   -424.7985214 -0.825761E-04  0.311E-03    0.01       1.9  T
   9   -424.7985317 -0.103380E-04  0.572E-04    0.01      10.4  T
  10   -424.7985313  0.439292E-06  0.810E-04    0.01       7.3  T
  11   -424.7985319 -0.662247E-06  0.193E-04    0.01      30.9  T
     SCC iter.                  ...        0 min,  1.989 sec
     gradient                   ...        0 min,  0.389 sec
 * total energy  :  -418.5038634 Eh     change       -0.1528366E-02 Eh
   gradient norm :     0.0041311 Eh/α   predicted    -0.1485954E-02 (  -2.78%)
   displ. norm   :     0.9020508 α      lambda       -0.1510009E-02
   maximum displ.:     0.3273784 α      in ANC's #6, #16, #8, ...

........................................................................
.............................. CYCLE   30 ..............................
........................................................................

 iter      E             dE          RMSdq      gap      omega  full diag
   1   -424.8017957 -0.424802E+03  0.437E-02    0.01       0.0  T
   2   -424.6487286  0.153067E+00  0.371E-01    0.09       1.0  T
   3   -424.7938247 -0.145096E+00  0.108E-01    0.03       1.0  T
   4   -424.7954593 -0.163463E-02  0.981E-02    0.01       1.0  T
   5   -424.7401625  0.552969E-01  0.236E-01    0.04       1.0  T
   6   -424.8016791 -0.615167E-01  0.248E-02    0.01       1.0  T
   7   -424.8022997 -0.620557E-03  0.707E-03    0.01       1.0  T
   8   -424.8023482 -0.485114E-04  0.266E-03    0.01       2.2  T
   9   -424.8023556 -0.738734E-05  0.339E-04    0.01      17.6  T
  10   -424.8023551  0.460838E-06  0.682E-04    0.01       8.7  T
  11   -424.8023556 -0.438377E-06  0.258E-04    0.01      23.0  T
     SCC iter.                  ...        0 min,  1.870 sec
     gradient                   ...        0 min,  0.388 sec
 * total energy  :  -418.5052601 Eh     change       -0.1396784E-02 Eh
   gradient norm :     0.0050421 Eh/α   predicted    -0.1369356E-02 (  -1.96%)
   displ. norm   :     0.9060555 α      lambda       -0.1398628E-02
   maximum displ.:     0.3297856 α      in ANC's #6, #8, #16, ...

........................................................................
.............................. CYCLE   31 ..............................
........................................................................

 iter      E             dE          RMSdq      gap      omega  full diag
   1   -424.8002249 -0.424800E+03  0.429E-02    0.01       0.0  T
   2   -424.6883117  0.111913E+00  0.320E-01    0.06       1.0  T
   3   -424.7889045 -0.100593E+00  0.117E-01    0.02       1.0  T
   4   -424.7903991 -0.149464E-02  0.109E-01    0.01       1.0  T
   5   -424.7060228  0.843764E-01  0.299E-01    0.06       1.0  T
   6   -424.8004428 -0.944200E-01  0.147E-02    0.01       1.0  T
   7   -424.8006014 -0.158617E-03  0.670E-03    0.01       1.0  T
   8   -424.8006486 -0.471339E-04  0.139E-03    0.01       4.3  T
   9   -424.8006504 -0.179122E-05  0.374E-04    0.01      15.9  T
  10   -424.8006501  0.209662E-06  0.517E-04    0.01      11.5  T
  11   -424.8006504 -0.201804E-06  0.256E-04    0.01      23.3  T
     SCC iter.                  ...        0 min,  2.003 sec
     gradient                   ...        0 min,  0.384 sec
 * total energy  :  -418.5065292 Eh     change       -0.1269084E-02 Eh
   gradient norm :     0.0047441 Eh/α   predicted    -0.1273408E-02 (   0.34%)
   displ. norm   :     0.8904672 α      lambda       -0.1286895E-02
   maximum displ.:     0.3249485 α      in ANC's #6, #8, #16, ...

........................................................................
.............................. CYCLE   32 ..............................
........................................................................

 iter      E             dE          RMSdq      gap      omega  full diag
   1   -424.8033830 -0.424803E+03  0.449E-02    0.01       0.0  T
   2   -424.7312439  0.721391E-01  0.276E-01    0.02       1.0  T
   3   -424.7858015 -0.545576E-01  0.128E-01    0.00       1.0  T
   4   -424.7835599  0.224159E-02  0.138E-01    0.01       1.0  T
   5   -424.7369706  0.465893E-01  0.258E-01    0.02       1.0  T
   6   -424.8037196 -0.667490E-01  0.156E-02    0.01       1.0  T
   7   -424.8039017 -0.182127E-03  0.582E-03    0.01       1.0  T
   8   -424.8039281 -0.263688E-04  0.253E-03    0.01       2.4  T
   9   -424.8039345 -0.640153E-05  0.549E-04    0.01      10.9  T
  10   -424.8039343  0.226696E-06  0.674E-04    0.01       8.8  T
  11   -424.8039344 -0.161893E-06  0.473E-04    0.01      12.6  T
     SCC iter.                  ...        0 min,  1.874 sec
     gradient                   ...        0 min,  0.384 sec
 * total energy  :  -418.5077030 Eh     change       -0.1173777E-02 Eh
   gradient norm :     0.0038988 Eh/α   predicted    -0.1153658E-02 (  -1.71%)
   displ. norm   :     0.8927751 α      lambda       -0.1146927E-02
   maximum displ.:     0.3285944 α      in ANC's #6, #8, #12, ...

........................................................................
.............................. CYCLE   33 ..............................
........................................................................

 iter      E             dE          RMSdq      gap      omega  full diag
   1   -424.8044961 -0.424804E+03  0.413E-02    0.01       0.0  T
   2   -424.7466832  0.578129E-01  0.259E-01    0.02       1.0  T
   3   -424.7993913 -0.527081E-01  0.712E-02    0.00       1.0  T
   4   -424.7554233  0.439680E-01  0.211E-01    0.01       1.0  T
   5   -424.7940751 -0.386519E-01  0.101E-01    0.00       1.0  T
   6   -424.8042877 -0.102125E-01  0.251E-02    0.01       1.0  T
   7   -424.8048504 -0.562725E-03  0.361E-03    0.01       1.6  T
   8   -424.8048630 -0.126343E-04  0.102E-03    0.01       5.8  T
   9   -424.8048635 -0.496107E-06  0.621E-04    0.01       9.6  T
  10   -424.8048637 -0.152043E-06  0.407E-04    0.01      14.6  T
     SCC iter.                  ...        0 min,  1.798 sec
     gradient                   ...        0 min,  0.410 sec
 * total energy  :  -418.5087687 Eh     change       -0.1065716E-02 Eh
   gradient norm :     0.0032245 Eh/α   predicted    -0.1030545E-02 (  -3.30%)
   displ. norm   :     0.8855923 α      lambda       -0.1049827E-02
   maximum displ.:     0.3223223 α      in ANC's #6, #8, #3, ...

........................................................................
.............................. CYCLE   34 ..............................
........................................................................

 iter      E             dE          RMSdq      gap      omega  full diag
   1   -424.8055242 -0.424806E+03  0.422E-02    0.01       0.0  T
   2   -424.7478443  0.576799E-01  0.261E-01    0.03       1.0  T
   3   -424.8036621 -0.558179E-01  0.521E-02    0.01       1.0  T
   4   -424.7152017  0.884604E-01  0.282E-01    0.02       1.0  T
   5   -424.7956545 -0.804528E-01  0.976E-02    0.01       1.0  T
   6   -424.8053671 -0.971260E-02  0.271E-02    0.01       1.0  T
   7   -424.8058562 -0.489111E-03  0.725E-03    0.01       1.0  T
   8   -424.8059096 -0.533938E-04  0.226E-03    0.01       2.6  T
   9   -424.8059147 -0.504297E-05  0.720E-04    0.01       8.3  T
  10   -424.8059149 -0.188124E-06  0.531E-04    0.01      11.2  T
  11   -424.8059151 -0.277248E-06  0.636E-05    0.01      93.7  T
     SCC iter.                  ...        0 min,  1.913 sec
     gradient                   ...        0 min,  0.388 sec
 * total energy  :  -418.5097454 Eh     change       -0.9766896E-03 Eh
   gradient norm :     0.0034538 Eh/α   predicted    -0.9365902E-03 (  -4.11%)
   displ. norm   :     0.8789660 α      lambda       -0.9647460E-03
   maximum displ.:     0.3174022 α      in ANC's #6, #8, #3, ...

........................................................................
.............................. CYCLE   35 ..............................
........................................................................

 iter      E             dE          RMSdq      gap      omega  full diag
   1   -424.8071058 -0.424807E+03  0.388E-02    0.01       0.0  T
   2   -424.7594685  0.476373E-01  0.240E-01    0.03       1.0  T
   3   -424.8039649 -0.444964E-01  0.613E-02    0.01       1.0  T
   4   -424.7311042  0.728607E-01  0.261E-01    0.01       1.0  T
   5   -424.7977740 -0.666697E-01  0.940E-02    0.00       1.0  T
   6   -424.8068300 -0.905602E-02  0.230E-02    0.01       1.0  T
   7   -424.8072759 -0.445942E-03  0.734E-03    0.01       1.0  T
   8   -424.8073339 -0.579675E-04  0.155E-03    0.01       3.8  T
   9   -424.8073362 -0.227165E-05  0.669E-04    0.01       8.9  T
  10   -424.8073364 -0.250779E-06  0.416E-04    0.01      14.3  T
  11   -424.8073366 -0.169745E-06  0.126E-04    0.01      47.2  T
     SCC iter.                  ...        0 min,  1.943 sec
     gradient                   ...        0 min,  0.392 sec
 * total energy  :  -418.5106403 Eh     change       -0.8949220E-03 Eh
   gradient norm :     0.0037788 Eh/α   predicted    -0.8550465E-03 (  -4.46%)
   displ. norm   :     0.8719772 α      lambda       -0.8827780E-03
   maximum displ.:     0.3087897 α      in ANC's #6, #8, #3, ...

........................................................................
.............................. CYCLE   36 ..............................
........................................................................

 iter      E             dE          RMSdq      gap      omega  full diag
   1   -424.8078545 -0.424808E+03  0.384E-02    0.01       0.0  T
   2   -424.7596851  0.481695E-01  0.221E-01    0.02       1.0  T
   3   -424.7956544 -0.359693E-01  0.106E-01    0.02       1.0  T
   4   -424.7847422  0.109122E-01  0.161E-01    0.02       1.0  T
   5   -424.7969143 -0.121721E-01  0.101E-01    0.01       1.0  T
   6   -424.8070918 -0.101775E-01  0.321E-02    0.01       1.0  T
   7   -424.8079398 -0.848023E-03  0.973E-03    0.01       1.0  T
   8   -424.8080436 -0.103787E-03  0.120E-03    0.01       5.0  T
   9   -424.8080447 -0.111547E-05  0.610E-04    0.01       9.8  T
  10   -424.8080447 -0.463035E-08  0.574E-04    0.01      10.4  T
  11   -424.8080451 -0.325115E-06  0.824E-05    0.01      72.2  T
     SCC iter.                  ...        0 min,  1.982 sec
     gradient                   ...        0 min,  0.378 sec
 * total energy  :  -418.5114551 Eh     change       -0.8147319E-03 Eh
   gradient norm :     0.0038145 Eh/α   predicted    -0.7770001E-03 (  -4.63%)
   displ. norm   :     0.8625860 α      lambda       -0.8037462E-03
   maximum displ.:     0.3131990 α      in ANC's #8, #6, #3, ...

........................................................................
.............................. CYCLE   37 ..............................
........................................................................

 iter      E             dE          RMSdq      gap      omega  full diag
   1   -424.8087951 -0.424809E+03  0.375E-02    0.01       0.0  T
   2   -424.7393698  0.694254E-01  0.250E-01    0.03       1.0  T
   3   -424.7977987 -0.584290E-01  0.102E-01    0.02       1.0  T
   4   -424.7832723  0.145264E-01  0.177E-01    0.03       1.0  T
   5   -424.7909305 -0.765818E-02  0.128E-01    0.02       1.0  T
   6   -424.8083676 -0.174371E-01  0.262E-02    0.01       1.0  T
   7   -424.8088877 -0.520156E-03  0.845E-03    0.01       1.0  T
   8   -424.8089646 -0.768346E-04  0.100E-03    0.01       5.9  T
   9   -424.8089651 -0.510727E-06  0.633E-04    0.01       9.4  T
  10   -424.8089653 -0.252858E-06  0.354E-04    0.01      16.8  T
     SCC iter.                  ...        0 min,  1.790 sec
     gradient                   ...        0 min,  0.385 sec
 * total energy  :  -418.5121907 Eh     change       -0.7356860E-03 Eh
   gradient norm :     0.0037492 Eh/α   predicted    -0.7008976E-03 (  -4.73%)
   displ. norm   :     0.8509874 α      lambda       -0.7277692E-03
   maximum displ.:     0.3137696 α      in ANC's #8, #3, #6, ...

........................................................................
.............................. CYCLE   38 ..............................
........................................................................

 iter      E             dE          RMSdq      gap      omega  full diag
   1   -424.8097394 -0.424810E+03  0.386E-02    0.01       0.0  T
   2   -424.7033302  0.106409E+00  0.306E-01    0.06       1.0  T
   3   -424.8039938 -0.100664E+00  0.762E-02    0.02       1.0  T
   4   -424.7158992  0.880946E-01  0.292E-01    0.03       1.0  T
   5   -424.7945837 -0.786845E-01  0.136E-01    0.01       1.0  T
   6   -424.8096502 -0.150665E-01  0.195E-02    0.01       1.0  T
   7   -424.8099445 -0.294365E-03  0.452E-03    0.01       1.3  T
   8   -424.8099651 -0.205695E-04  0.798E-04    0.01       7.5  T
   9   -424.8099654 -0.298939E-06  0.497E-04    0.01      12.0  T
  10   -424.8099655 -0.126658E-06  0.265E-04    0.01      22.5  T
     SCC iter.                  ...        0 min,  1.706 sec
     gradient                   ...        0 min,  0.384 sec
 * total energy  :  -418.5128522 Eh     change       -0.6614544E-03 Eh
   gradient norm :     0.0037745 Eh/α   predicted    -0.6274025E-03 (  -5.15%)
   displ. norm   :     0.8374065 α      lambda       -0.6682247E-03
   maximum displ.:     0.3128701 α      in ANC's #8, #3, #6, ...

........................................................................
.............................. CYCLE   39 ..............................
........................................................................

 iter      E             dE          RMSdq      gap      omega  full diag
   1   -424.8096742 -0.424810E+03  0.395E-02    0.01       0.0  T
   2   -424.6881910  0.121483E+00  0.329E-01    0.06       1.0  T
   3   -424.8030098 -0.114819E+00  0.839E-02    0.02       1.0  T
   4   -424.7853788  0.176310E-01  0.181E-01    0.04       1.0  T
   5   -424.8076925 -0.223137E-01  0.455E-02    0.00       1.0  T
   6   -424.8061117  0.158081E-02  0.580E-02    0.01       1.0  T
   7   -424.8099373 -0.382554E-02  0.425E-03    0.01       1.4  T
   8   -424.8099551 -0.178543E-04  0.754E-04    0.01       7.9  T
   9   -424.8099553 -0.198346E-06  0.484E-04    0.01      12.3  T
  10   -424.8099554 -0.478965E-07  0.352E-04    0.01      16.9  T
     SCC iter.                  ...        0 min,  1.655 sec
     gradient                   ...        0 min,  0.382 sec
 * total energy  :  -418.5134541 Eh     change       -0.6019282E-03 Eh
   gradient norm :     0.0043451 Eh/α   predicted    -0.5684094E-03 (  -5.57%)
   displ. norm   :     0.8286939 α      lambda       -0.6326851E-03
   maximum displ.:     0.3096670 α      in ANC's #8, #3, #6, ...

........................................................................
.............................. CYCLE   40 ..............................
........................................................................

 iter      E             dE          RMSdq      gap      omega  full diag
   1   -424.8112014 -0.424811E+03  0.406E-02    0.01       0.0  T
   2   -424.6856817  0.125520E+00  0.336E-01    0.06       1.0  T
   3   -424.8037952 -0.118113E+00  0.902E-02    0.02       1.0  T
   4   -424.7943683  0.942691E-02  0.151E-01    0.04       1.0  T
   5   -424.7875278  0.684044E-02  0.145E-01    0.02       1.0  T
   6   -424.8108727 -0.233449E-01  0.245E-02    0.01       1.0  T
   7   -424.8114999 -0.627183E-03  0.479E-03    0.01       1.2  T
   8   -424.8115227 -0.228638E-04  0.787E-04    0.01       7.6  T
   9   -424.8115229 -0.178020E-06  0.513E-04    0.01      11.6  T
  10   -424.8115230 -0.610791E-07  0.365E-04    0.01      16.3  T
     SCC iter.                  ...        0 min,  1.602 sec
     gradient                   ...        0 min,  0.388 sec
 * total energy  :  -418.5140216 Eh     change       -0.5674397E-03 Eh
   gradient norm :     0.0044962 Eh/α   predicted    -0.5335855E-03 (  -5.97%)
   displ. norm   :     0.8100387 α      lambda       -0.6042621E-03
   maximum displ.:     0.3028791 α      in ANC's #8, #3, #5, ...

........................................................................
.............................. CYCLE   41 ..............................
........................................................................

 iter      E             dE          RMSdq      gap      omega  full diag
   1   -424.8109020 -0.424811E+03  0.415E-02    0.01       0.0  T
   2   -424.7233546  0.875474E-01  0.299E-01    0.02       1.0  T
   3   -424.7994421 -0.760875E-01  0.105E-01    0.02       1.0  T
   4   -424.7943112  0.513088E-02  0.139E-01    0.02       1.0  T
   5   -424.8101886 -0.158774E-01  0.305E-02    0.01       1.0  T
   6   -424.8040270  0.616165E-02  0.806E-02    0.01       1.0  T
   7   -424.8112207 -0.719374E-02  0.344E-03    0.01       1.7  T
   8   -424.8112309 -0.101969E-04  0.108E-03    0.01       5.5  T
   9   -424.8112317 -0.753526E-06  0.535E-04    0.01      11.1  T
  10   -424.8112317 -0.859279E-08  0.437E-04    0.01      13.6  T
     SCC iter.                  ...        0 min,  1.906 sec
     gradient                   ...        0 min,  0.397 sec
 * total energy  :  -418.5145629 Eh     change       -0.5413401E-03 Eh
   gradient norm :     0.0047166 Eh/α   predicted    -0.5003805E-03 (  -7.57%)
   displ. norm   :     0.7953201 α      lambda       -0.5696775E-03
   maximum displ.:     0.2954398 α      in ANC's #8, #5, #3, ...

........................................................................
.............................. CYCLE   42 ..............................
........................................................................

 iter      E             dE          RMSdq      gap      omega  full diag
   1   -424.8119764 -0.424812E+03  0.393E-02    0.01       0.0  T
   2   -424.7686529  0.433235E-01  0.234E-01    0.04       1.0  T
   3   -424.8090902 -0.404373E-01  0.592E-02    0.02       1.0  T
   4   -424.7176999  0.913902E-01  0.289E-01    0.04       1.0  T
   5   -424.7977485 -0.800486E-01  0.114E-01    0.01       1.0  T
   6   -424.8114189 -0.136703E-01  0.256E-02    0.01       1.0  T
   7   -424.8120842 -0.665299E-03  0.720E-03    0.01       1.0  T
   8   -424.8121427 -0.585567E-04  0.705E-04    0.01       8.4  T
   9   -424.8121429 -0.235030E-06  0.363E-04    0.01      16.4  T
  10   -424.8121429  0.664498E-07  0.325E-04    0.01      18.3  T
     SCC iter.                  ...        0 min,  1.788 sec
     gradient                   ...        0 min,  0.390 sec
 * total energy  :  -418.5150675 Eh     change       -0.5046137E-03 Eh
   gradient norm :     0.0046238 Eh/α   predicted    -0.4650090E-03 (  -7.85%)
   displ. norm   :     0.7756325 α      lambda       -0.5104454E-03
   maximum displ.:     0.2918687 α      in ANC's #8, #5, #3, ...
 * RMSD in coord.:     0.9954660 α      energy gain  -0.3013931E-01 Eh

generating ANC from model Hessian ...
Using Lindh-Hessian (1995)
 Shifting diagonal of input Hessian by    1.0009600240110200E-002
 Lowest  eigenvalues of input Hessian
    0.010000    0.000000    0.000000    0.000000    0.000000    0.000000
    0.000000    0.010013    0.010016    0.010054    0.010063    0.010079
    0.010084    0.010094    0.010115    0.010148    0.010167    0.010257
 Highest eigenvalues
    2.214801    2.216985    2.234070    2.234785    2.237612    2.243266


........................................................................
.............................. CYCLE   43 ..............................
........................................................................

 iter      E             dE          RMSdq      gap      omega  full diag
   1   -424.8114227 -0.424811E+03  0.388E-02    0.01       0.0  T
   2   -424.7559859  0.554368E-01  0.244E-01    0.02       1.0  T
   3   -424.8007583 -0.447724E-01  0.998E-02    0.01       1.0  T
   4   -424.7906103  0.101480E-01  0.151E-01    0.02       1.0  T
   5   -424.7770371  0.135732E-01  0.175E-01    0.02       1.0  T
   6   -424.8106721 -0.336350E-01  0.294E-02    0.01       1.0  T
   7   -424.8115671 -0.895006E-03  0.705E-03    0.01       1.0  T
   8   -424.8116198 -0.527329E-04  0.116E-03    0.01       5.1  T
   9   -424.8116204 -0.550644E-06  0.857E-04    0.01       6.9  T
  10   -424.8116210 -0.599014E-06  0.288E-04    0.01      20.7  T
     SCC iter.                  ...        0 min,  1.822 sec
     gradient                   ...        0 min,  0.382 sec
 * total energy  :  -418.5155141 Eh     change       -0.4465553E-03 Eh
   gradient norm :     0.0047548 Eh/α   predicted     0.0000000E+00 (-100.00%)
   displ. norm   :     0.0733263 α      lambda       -0.9243666E-04
   maximum displ.:     0.0282702 α      in ANC's #4, #8, #3, ...

........................................................................
.............................. CYCLE   44 ..............................
........................................................................

 iter      E             dE          RMSdq      gap      omega  full diag
   1   -424.8128109 -0.424813E+03  0.936E-03    0.01       0.0  T
   2   -424.7883530  0.244578E-01  0.149E-01    0.02       1.0  T
   3   -424.8121226 -0.237695E-01  0.279E-02    0.01       1.0  T
   4   -424.8126572 -0.534615E-03  0.156E-02    0.01       1.0  T
   5   -424.8093959  0.326133E-02  0.566E-02    0.00       1.0  T
   6   -424.8128518 -0.345593E-02  0.330E-03    0.01       1.8  T
   7   -424.8128622 -0.103935E-04  0.622E-04    0.01       9.6  T
   8   -424.8128624 -0.213049E-06  0.157E-04    0.01      38.0  T
   9   -424.8128624 -0.112771E-07  0.805E-05    0.01      74.0  T
     SCC iter.                  ...        0 min,  1.516 sec
     gradient                   ...        0 min,  0.410 sec
 * total energy  :  -418.5155971 Eh     change       -0.8306504E-04 Eh
   gradient norm :     0.0030965 Eh/α   predicted    -0.4717572E-04 ( -43.21%)
   displ. norm   :     0.3359164 α      lambda       -0.3233879E-03
   maximum displ.:     0.1289026 α      in ANC's #4, #8, #3, ...

........................................................................
.............................. CYCLE   45 ..............................
........................................................................

 iter      E             dE          RMSdq      gap      omega  full diag
   1   -424.8142585 -0.424814E+03  0.386E-02    0.01       0.0  T
   2   -424.6798494  0.134409E+00  0.351E-01    0.06       1.0  T
[...]
    28   6 C       29   6 C                                       1.3914275
    25   6 C       30   6 C                                       1.3927456
    29   6 C       30   6 C                                       1.3865513
    27   6 C       31   6 C                                       1.4236669
    31   6 C       32   6 C                                       1.4255888
    32   6 C       33   6 C                                       1.4127811
    34   6 C       35   6 C                                       1.4237293
    32   6 C       37   6 C                                       1.4084847
    37   6 C       38   6 C                                       1.3868206
    38   6 C       39   6 C                                       1.3902375
    33   6 C       40   6 C                                       1.3903644
    39   6 C       40   6 C                                       1.3874078
    41   6 C       42   6 C                                       1.3972540
    42   6 C       43   6 C                                       1.3840164
    35   6 C       44   6 C                                       1.3866132
    43   6 C       44   6 C                                       1.3830868
    41   6 C       45   8 O                                       1.3625350
    24   5 B       46   8 O                                       1.4589026
    26   6 C       46   8 O                                       1.3576294
    36   6 C       48   8 O                                       1.2312123
    47   6 C       49   8 O                                       1.2316676
    10   6 C       50   8 O                                       1.2309495
    13   6 C       51   8 O                                       1.2290068
    52   6 C       53   6 C                                       1.5295906
    52   6 C       54   6 C                                       1.5349648
    52   6 C       55   6 C                                       1.5355208
    56   6 C       57   6 C                                       1.5363828
    56   6 C       58   6 C                                       1.5332223
    56   6 C       59   6 C                                       1.5289037
    60   6 C       61   6 C                                       1.5352320
    60   6 C       62   6 C                                       1.5308295
    60   6 C       63   6 C                                       1.5349477
    64   6 C       65   6 C                                       1.5344104
    64   6 C       66   6 C                                       1.5340058
    64   6 C       67   6 C                                       1.5307006
    68   6 C       69   6 C                                       1.5354117
    68   6 C       70   6 C                                       1.5350060
    68   6 C       71   6 C                                       1.5298586
    72   6 C       73   6 C                                       1.5351709
    72   6 C       74   6 C                                       1.5309054
    72   6 C       75   6 C                                       1.5350605
    58   6 C       76   1 H                                       1.0878957
    58   6 C       77   1 H                                       1.0865556
    58   6 C       78   1 H                                       1.0875546
    59   6 C       79   1 H                                       1.0877960
    59   6 C       80   1 H                                       1.0878355
    59   6 C       81   1 H                                       1.0872904
    57   6 C       82   1 H                                       1.0882536
    57   6 C       83   1 H                                       1.0870008
    57   6 C       84   1 H                                       1.0872971
    71   6 C       85   1 H                                       1.0896033
    71   6 C       86   1 H                                       1.0876398
    71   6 C       87   1 H                                       1.0877435
    69   6 C       88   1 H                                       1.0890714
    69   6 C       89   1 H                                       1.0865042
    69   6 C       90   1 H                                       1.0879034
    70   6 C       91   1 H                                       1.0892105
    70   6 C       92   1 H                                       1.0877308
    70   6 C       93   1 H                                       1.0865926
    73   6 C       94   1 H                                       1.0892252
    73   6 C       95   1 H                                       1.0881619
    73   6 C       96   1 H                                       1.0863596
    74   6 C       97   1 H                                       1.0894198
    74   6 C       98   1 H                                       1.0873182
    74   6 C       99   1 H                                       1.0872463
    75   6 C      100   1 H                                       1.0892730
    75   6 C      101   1 H                                       1.0863284
    75   6 C      102   1 H                                       1.0881602
    54   6 C      103   1 H                                       1.0892637
    54   6 C      104   1 H                                       1.0876083
    54   6 C      105   1 H                                       1.0865078
    55   6 C      106   1 H                                       1.0890917
    55   6 C      107   1 H                                       1.0863470
    55   6 C      108   1 H                                       1.0881220
    53   6 C      109   1 H                                       1.0893825
    53   6 C      110   1 H                                       1.0863681
    53   6 C      111   1 H                                       1.0870740
    65   6 C      112   1 H                                       1.0887203
    65   6 C      113   1 H                                       1.0888884
    65   6 C      114   1 H                                       1.0859399
    67   6 C      115   1 H                                       1.0882606
    67   6 C      116   1 H                                       1.0863787
    67   6 C      117   1 H                                       1.0879316
    66   6 C      118   1 H                                       1.0882452
    66   6 C      119   1 H                                       1.0856708
    66   6 C      120   1 H                                       1.0872824
    61   6 C      121   1 H                                       1.0892026
    61   6 C      122   1 H                                       1.0864297
    61   6 C      123   1 H                                       1.0881751
    63   6 C      124   1 H                                       1.0892099
    63   6 C      125   1 H                                       1.0879531
    63   6 C      126   1 H                                       1.0863519
    62   6 C      127   1 H                                       1.0893980
    62   6 C      128   1 H                                       1.0872694
    62   6 C      129   1 H                                       1.0869097
    15   6 C      130   1 H                                       1.0793158
    17   6 C      131   1 H                                       1.0806779
     5   6 C      132   1 H                                       1.0799776
     1   6 C      133   1 H                                       1.0727316 (min)
    21   6 C      134   1 H                                       1.0796407
    19   6 C      135   1 H                                       1.0748825
    42   6 C      136   1 H                                       1.0729702
    44   6 C      137   1 H                                       1.0799360
    38   6 C      138   1 H                                       1.0806343
    40   6 C      139   1 H                                       1.0791774
    29   6 C      140   1 H                                       1.0784561
    25   6 C      141   1 H                                       1.0754845
   142   6 C      143   6 C                                       1.3972667
   144   6 C      145   6 C                                       1.4239886
   145   6 C      146   6 C                                       1.3849746
   142   6 C      147   6 C                                       1.3858753
   146   6 C      147   6 C                                       1.3843735
   148   6 C      149   6 C                                       1.4257893
   149   6 C      150   6 C                                       1.4081317
   148   6 C      152   6 C                                       1.4238874
   152   6 C      153   6 C                                       1.4131740
   149   6 C      155   6 C                                       1.4128207
   155   6 C      156   6 C                                       1.3918423
   156   6 C      157   6 C                                       1.3875534
   150   6 C      158   6 C                                       1.3865136
   157   6 C      158   6 C                                       1.3909651
   152   6 C      159   6 C                                       1.4107257
   159   6 C      160   6 C                                       1.3928980
   160   6 C      161   6 C                                       1.3899518
   153   6 C      162   6 C                                       1.3883564
   161   6 C      162   6 C                                       1.3892895
   143   6 C      163   8 O                                       1.3649965
   159   6 C      164   8 O                                       1.3488348
   164   8 O      165   5 B                                       1.4511973
   166   6 C      167   6 C                                       1.3905379
   167   6 C      168   6 C                                       1.4069710
   168   6 C      169   6 C                                       1.4086151
   169   6 C      170   6 C                                       1.3908925
   166   6 C      171   6 C                                       1.3954087
   170   6 C      171   6 C                                       1.3887374
   168   6 C      172   6 C                                       1.4233267
   172   6 C      173   6 C                                       1.4209908
   173   6 C      174   6 C                                       1.4130084
   172   6 C      175   6 C                                       1.4286563
   175   6 C      176   6 C                                       1.4237990
   173   6 C      178   6 C                                       1.4066484
   178   6 C      179   6 C                                       1.3880376
   179   6 C      180   6 C                                       1.3913749
   174   6 C      181   6 C                                       1.3887430
   180   6 C      181   6 C                                       1.3910085
   182   6 C      183   6 C                                       1.3974176
   183   6 C      184   6 C                                       1.3846499
   176   6 C      185   6 C                                       1.3856643
   184   6 C      185   6 C                                       1.3848281
   182   6 C      186   8 O                                       1.3590943
   165   5 B      187   8 O                                       1.4494975
   167   6 C      187   8 O                                       1.3496913
   177   6 C      189   8 O                                       1.2298976
   188   6 C      190   8 O                                       1.2284343
   151   6 C      191   8 O                                       1.2299136
   154   6 C      192   8 O                                       1.2324287
   193   6 C      194   6 C                                       1.5302472
   193   6 C      195   6 C                                       1.5343228
   193   6 C      196   6 C                                       1.5365897 (max)
   197   6 C      198   6 C                                       1.5350915
   197   6 C      199   6 C                                       1.5360547
   197   6 C      200   6 C                                       1.5305831
   201   6 C      202   6 C                                       1.5346791
   201   6 C      203   6 C                                       1.5316648
   201   6 C      204   6 C                                       1.5348810
   205   6 C      206   6 C                                       1.5335324
   205   6 C      207   6 C                                       1.5357380
   205   6 C      208   6 C                                       1.5316543
   209   6 C      210   6 C                                       1.5349870
   209   6 C      211   6 C                                       1.5355034
   209   6 C      212   6 C                                       1.5302493
   213   6 C      214   6 C                                       1.5350214
   213   6 C      215   6 C                                       1.5299495
   213   6 C      216   6 C                                       1.5361898
   199   6 C      217   1 H                                       1.0894733
   199   6 C      218   1 H                                       1.0877892
   199   6 C      219   1 H                                       1.0863250
   200   6 C      220   1 H                                       1.0897026
   200   6 C      221   1 H                                       1.0866021
   200   6 C      222   1 H                                       1.0869846
   198   6 C      223   1 H                                       1.0892897
   198   6 C      224   1 H                                       1.0863154
   198   6 C      225   1 H                                       1.0875671
   212   6 C      226   1 H                                       1.0896916
   212   6 C      227   1 H                                       1.0883174
   212   6 C      228   1 H                                       1.0875908
   210   6 C      229   1 H                                       1.0892123
   210   6 C      230   1 H                                       1.0860749
   210   6 C      231   1 H                                       1.0884369
   211   6 C      232   1 H                                       1.0892148
   211   6 C      233   1 H                                       1.0879826
   211   6 C      234   1 H                                       1.0863517
   214   6 C      235   1 H                                       1.0884952
   214   6 C      236   1 H                                       1.0888511
   214   6 C      237   1 H                                       1.0867278
   215   6 C      238   1 H                                       1.0884031
   215   6 C      239   1 H                                       1.0866220
   215   6 C      240   1 H                                       1.0882110
   216   6 C      241   1 H                                       1.0888328
   216   6 C      242   1 H                                       1.0867632
   216   6 C      243   1 H                                       1.0875026
   195   6 C      244   1 H                                       1.0891642
   195   6 C      245   1 H                                       1.0865925
   195   6 C      246   1 H                                       1.0861695
   196   6 C      247   1 H                                       1.0889568
   196   6 C      248   1 H                                       1.0870988
   196   6 C      249   1 H                                       1.0888052
   194   6 C      250   1 H                                       1.0892574
   194   6 C      251   1 H                                       1.0871260
   194   6 C      252   1 H                                       1.0870428
   206   6 C      253   1 H                                       1.0894130
   206   6 C      254   1 H                                       1.0876325
   206   6 C      255   1 H                                       1.0857673
   208   6 C      256   1 H                                       1.0894495
   208   6 C      257   1 H                                       1.0870838
   208   6 C      258   1 H                                       1.0874239
   207   6 C      259   1 H                                       1.0895029
   207   6 C      260   1 H                                       1.0862939
   207   6 C      261   1 H                                       1.0880664
   202   6 C      262   1 H                                       1.0893086
   202   6 C      263   1 H                                       1.0860894
   202   6 C      264   1 H                                       1.0883576
   204   6 C      265   1 H                                       1.0893464
   204   6 C      266   1 H                                       1.0888519
   204   6 C      267   1 H                                       1.0854681
   203   6 C      268   1 H                                       1.0893745
   203   6 C      269   1 H                                       1.0872026
   203   6 C      270   1 H                                       1.0881466
   156   6 C      271   1 H                                       1.0793252
   158   6 C      272   1 H                                       1.0782935
   146   6 C      273   1 H                                       1.0791118
Note: The following floating-point exceptions are signalling: IEEE_UNDERFLOW_FLAG
normal termination of xtb
   142   6 C      274   1 H                                       1.0747795
   162   6 C      275   1 H                                       1.0798861
   160   6 C      276   1 H                                       1.0737124
   183   6 C      277   1 H                                       1.0741038
   185   6 C      278   1 H                                       1.0800290
   179   6 C      279   1 H                                       1.0800292
   181   6 C      280   1 H                                       1.0788069
   170   6 C      281   1 H                                       1.0781728
   166   6 C      282   1 H                                       1.0767760

 * 4 distinct bonds (by element types)

   Z      Z             #   av. dist./Å        max./Å        min./Å
   1 H    6 C         132     1.0860014     1.0897026     1.0727316
   6 C    6 C         112     1.4425298     1.5365897     1.3813495
   5 B    8 O           4     1.4569995     1.4684005     1.4494975
   6 C    8 O          16     1.2931633     1.3649965     1.2284343


optimized geometry written to: xtbopt.mol


           -------------------------------------------------
          | TOTAL ENERGY             -418.530320415837 Eh   |
          | GRADIENT NORM               0.000266209345 Eh/α |
          | HOMO-LUMO GAP               0.004483667643 eV   |
           -------------------------------------------------
########################################################################
[WARNING] Runtime exception occurred
-1- restart_readRestart: Number of electron missmatch in restart file.
########################################################################

------------------------------------------------------------------------
 * finished run on 2024/11/12 at 12:14:50.702     
------------------------------------------------------------------------
 total:
 * wall-time:     0 d,  0 h,  5 min, 55.296 sec
 *  cpu-time:     0 d,  0 h, 20 min, 10.835 sec
 * ratio c/w:     3.408 speedup
 SCF:
 * wall-time:     0 d,  0 h,  0 min,  6.460 sec
 *  cpu-time:     0 d,  0 h,  0 min, 25.708 sec
 * ratio c/w:     3.980 speedup
 ANC optimizer:
 * wall-time:     0 d,  0 h,  5 min, 48.733 sec
 *  cpu-time:     0 d,  0 h, 19 min, 44.990 sec
 * ratio c/w:     3.398 speedup

