      -----------------------------------------------------------      
     |                   =====================                   |     
     |                           x T B                           |     
     |                   =====================                   |     
     |                         S. Grimme                         |     
     |          Mulliken Center for Theoretical Chemistry        |     
     |                    University of Bonn                     |     
      -----------------------------------------------------------      

   * xtb version 6.6.1 (8d0f1dd) compiled by 'runner@Mac-1690902418499.local' on 2023-08-01

   xtb is free software: you can redistribute it and/or modify it under
   the terms of the GNU Lesser General Public License as published by
   the Free Software Foundation, either version 3 of the License, or
   (at your option) any later version.
   
   xtb is distributed in the hope that it will be useful,
   but WITHOUT ANY WARRANTY; without even the implied warranty of
   MERCHANTABILITY or FITNESS FOR A PARTICULAR PURPOSE.  See the
   GNU Lesser General Public License for more details.
   
   Cite this work as:
   * C. Bannwarth, E. Caldeweyher, S. Ehlert, A. Hansen, P. Pracht,
     J. Seibert, S. Spicher, S. Grimme, WIREs Comput. Mol. Sci., 2020, 11,
     e01493. DOI: 10.1002/wcms.1493
   
   for GFN2-xTB:
   * C. Bannwarth, S. Ehlert and S. Grimme., J. Chem. Theory Comput., 2019,
     15, 1652-1671. DOI: 10.1021/acs.jctc.8b01176
   for GFN1-xTB:
   * S. Grimme, C. Bannwarth, P. Shushkov, J. Chem. Theory Comput., 2017,
     13, 1989-2009. DOI: 10.1021/acs.jctc.7b00118
   for GFN0-xTB:
   * P. Pracht, E. Caldeweyher, S. Ehlert, S. Grimme, ChemRxiv, 2019, preprint.
     DOI: 10.26434/chemrxiv.8326202.v1
   for GFN-FF:
   * S. Spicher and S. Grimme, Angew. Chem. Int. Ed., 2020, 59, 15665-15673.
     DOI: 10.1002/anie.202004239
   
   for ALPB and GBSA implicit solvation:
   * S. Ehlert, M. Stahn, S. Spicher, S. Grimme, J. Chem. Theory Comput.,
     2021, 17, 4250-4261. DOI: 10.1021/acs.jctc.1c00471
   
   for DFT-D4:
   * E. Caldeweyher, C. Bannwarth and S. Grimme, J. Chem. Phys., 2017,
     147, 034112. DOI: 10.1063/1.4993215
   * E. Caldeweyher, S. Ehlert, A. Hansen, H. Neugebauer, S. Spicher,
     C. Bannwarth and S. Grimme, J. Chem. Phys., 2019, 150, 154122.
     DOI: 10.1063/1.5090222
   * E. Caldeweyher, J.-M. Mewes, S. Ehlert and S. Grimme, Phys. Chem. Chem. Phys.
     2020, 22, 8499-8512. DOI: 10.1039/D0CP00502A
   
   for sTDA-xTB:
   * S. Grimme and C. Bannwarth, J. Chem. Phys., 2016, 145, 054103.
     DOI: 10.1063/1.4959605
   
   in the mass-spec context:
   * V. Asgeirsson, C. Bauer and S. Grimme, Chem. Sci., 2017, 8, 4879.
     DOI: 10.1039/c7sc00601b
   * J. Koopman and S. Grimme, ACS Omega 2019, 4, 12, 15120-15133.
     DOI: 10.1021/acsomega.9b02011
   
   for metadynamics refer to:
   * S. Grimme, J. Chem. Theory Comput., 2019, 155, 2847-2862
     DOI: 10.1021/acs.jctc.9b00143
   
   for SPH calculations refer to:
   * S. Spicher and S. Grimme, J. Chem. Theory Comput., 2021, 17, 1701-1714
     DOI: 10.1021/acs.jctc.0c01306
   
   with help from (in alphabetical order)
   P. Atkinson, C. Bannwarth, F. Bohle, G. Brandenburg, E. Caldeweyher
   M. Checinski, S. Dohm, S. Ehlert, S. Ehrlich, I. Gerasimov, C. Hölzer
   A. Katbashev, J. Koopman, C. Lavigne, S. Lehtola, F. März, M. Müller,
   F. Musil, H. Neugebauer, J. Pisarek, C. Plett, P. Pracht, F. Pultar,
   J. Seibert, P. Shushkov, S. Spicher, M. Stahn, M. Steiner, T. Strunk,
   J. Stückrath, T. Rose, and J. Unsleber
   
 * started run on 2024/11/12 at 11:20:58.488     

           -------------------------------------------------
          |                Calculation Setup                |
           -------------------------------------------------

          program call               : xtb opt_cation_Katherine2.mol --gfn2 --sp --chrg -2 --uhf 1
          coordinate file            : opt_cation_Katherine2.mol
          omp threads                :                     8

   ID    Z sym.   atoms
    1    6 C      1-21, 25-44, 47, 52-75
    2    8 O      22, 23, 45, 46, 48-51
    3    5 B      24
    4    1 H      76-141
########################################################################
[WARNING] Please study the warnings concerning your input carefully
-1- prog_main: Charge in sdf/mol input was overwritten
########################################################################

           -------------------------------------------------
          |                 G F N 2 - x T B                 |
           -------------------------------------------------

        Reference                      10.1021/acs.jctc.8b01176
      * Hamiltonian:
        H0-scaling (s, p, d)           1.850000    2.230000    2.230000
        zeta-weighting                 0.500000
      * Dispersion:
        s8                             2.700000
        a1                             0.520000
        a2                             5.000000
        s9                             5.000000
      * Repulsion:
        kExp                           1.500000    1.000000
        rExp                           1.000000
      * Coulomb:
        alpha                          2.000000
        third order                    shell-resolved
        anisotropic                    true
        a3                             3.000000
        a5                             4.000000
        cn-shift                       1.200000
        cn-exp                         4.000000
        max-rad                        5.000000

q/qsh data taken from xtbrestart
CAMM data taken from xtbrestart

          ...................................................
          :                      SETUP                      :
          :.................................................:
          :  # basis functions                 366          :
          :  # atomic orbitals                 366          :
          :  # shells                          216          :
          :  # electrons                       383          :
          :  max. iterations                   250          :
          :  Hamiltonian                  GFN2-xTB          :
          :  restarted?                       true          :
          :  GBSA solvation                  false          :
          :  PC potential                    false          :
          :  electronic temp.          300.0000000     K    :
          :  accuracy                    1.0000000          :
          :  -> integral cutoff          0.2500000E+02      :
          :  -> integral neglect         0.1000000E-07      :
          :  -> SCF convergence          0.1000000E-05 Eh   :
          :  -> wf. convergence          0.1000000E-03 e    :
          :  Broyden damping             0.4000000          :
          ...................................................

 iter      E             dE          RMSdq      gap      omega  full diag
   1   -212.5980446 -0.212598E+03  0.237E-01    1.25       0.0  T
   2   -212.6046915 -0.664690E-02  0.233E-01    1.05       1.0  T
   3   -212.6067494 -0.205789E-02  0.156E-01    1.11       1.0  T
   4   -212.5759694  0.307800E-01  0.305E-01    0.88       1.0  T
   5   -212.6060508 -0.300814E-01  0.131E-01    1.09       1.0  T
   6   -212.6017516  0.429925E-02  0.145E-01    1.07       1.0  T
   7   -212.6105060 -0.875441E-02  0.288E-02    1.13       1.0  T
   8   -212.6107354 -0.229372E-03  0.758E-03    1.13       1.1  T
   9   -212.6107471 -0.117200E-04  0.316E-03    1.13       2.7  T
  10   -212.6107374  0.971510E-05  0.491E-03    1.13       1.7  T
  11   -212.6107479 -0.105546E-04  0.561E-04    1.13      15.0  T
  12   -212.6107480 -0.260118E-07  0.383E-04    1.13      22.0  T
  13   -212.6107480 -0.450110E-07  0.101E-04    1.13      83.5  T

   *** convergence criteria satisfied after 13 iterations ***

         #    Occupation            Energy/Eh            Energy/eV
      -------------------------------------------------------------
         1        2.0000           -0.5103433             -13.8871
       ...           ...                  ...                  ...
       186        2.0000           -0.2028710              -5.5204
       187        2.0000           -0.1957312              -5.3261
       188        2.0000           -0.1952349              -5.3126
       189        2.0000           -0.1938978              -5.2762
       190        2.0000           -0.1922977              -5.2327
       191        1.6343           -0.1554304              -4.2295
       192        1.3657           -0.1543837              -4.2010 (HOMO)
       193                         -0.1127073              -3.0669 (LUMO)
       194                         -0.1122562              -3.0546
       195                         -0.0735629              -2.0017
       196                         -0.0699083              -1.9023
       197                         -0.0575906              -1.5671
       ...                                ...                  ...
       366                          0.9148573              24.8945
      -------------------------------------------------------------
                  HL-Gap            0.0416764 Eh            1.1341 eV
             Fermi-level           -0.1442729 Eh           -3.9259 eV

 SCC (total)                   0 d,  0 h,  0 min,  1.302 sec
 SCC setup                      ...        0 min,  0.000 sec (  0.032%)
 Dispersion                     ...        0 min,  0.002 sec (  0.147%)
 classical contributions        ...        0 min,  0.000 sec (  0.028%)
 integral evaluation            ...        0 min,  0.007 sec (  0.575%)
 iterations                     ...        0 min,  1.225 sec ( 94.041%)
 molecular gradient             ...        0 min,  0.059 sec (  4.553%)
 printout                       ...        0 min,  0.008 sec (  0.623%)

         :::::::::::::::::::::::::::::::::::::::::::::::::::::
         ::                     SUMMARY                     ::
         :::::::::::::::::::::::::::::::::::::::::::::::::::::
         :: total energy            -209.476175359431 Eh    ::
         :: gradient norm              0.047153672742 Eh/a0 ::
         :: HOMO-LUMO gap              1.134073892826 eV    ::
         ::.................................................::
         :: SCC energy              -212.610748002719 Eh    ::
         :: -> isotropic ES            0.491068807349 Eh    ::
         :: -> anisotropic ES          0.027199065718 Eh    ::
         :: -> anisotropic XC          0.069750701172 Eh    ::
         :: -> dispersion             -0.206719610866 Eh    ::
         :: repulsion energy           3.130782015083 Eh    ::
         :: add. restraining           0.000000000000 Eh    ::
         :: total charge              -1.999991932808 e     ::
         :::::::::::::::::::::::::::::::::::::::::::::::::::::

           -------------------------------------------------
          |                Property Printout                |
           -------------------------------------------------

    * Orbital Energies and Occupations

         #    Occupation            Energy/Eh            Energy/eV
      -------------------------------------------------------------
         1        2.0000           -0.5103433             -13.8871
       ...           ...                  ...                  ...
       180        2.0000           -0.2200343              -5.9874
       181        2.0000           -0.2132436              -5.8027
       182        2.0000           -0.2110946              -5.7442
       183        2.0000           -0.2087966              -5.6816
       184        2.0000           -0.2065017              -5.6192
       185        2.0000           -0.2047844              -5.5725
       186        2.0000           -0.2028710              -5.5204
       187        2.0000           -0.1957312              -5.3261
       188        2.0000           -0.1952349              -5.3126
       189        2.0000           -0.1938978              -5.2762
       190        2.0000           -0.1922977              -5.2327
       191        1.6343           -0.1554304              -4.2295
       192        1.3657           -0.1543837              -4.2010 (HOMO)
       193                         -0.1127073              -3.0669 (LUMO)
       194                         -0.1122562              -3.0546
       195                         -0.0735629              -2.0017
       196                         -0.0699083              -1.9023
       197                         -0.0575906              -1.5671
       198                         -0.0573241              -1.5599
       199                         -0.0525010              -1.4286
       200                         -0.0520980              -1.4177
       201                         -0.0431456              -1.1741
       202                         -0.0405475              -1.1034
       203                         -0.0095927              -0.2610
       ...                                ...                  ...
       366                          0.9148573              24.8945
      -------------------------------------------------------------
                  HL-Gap            0.0416764 Eh            1.1341 eV
             Fermi-level           -0.1442729 Eh           -3.9259 eV

     #   Z          covCN         q      C6AA      α(0)
     1   6 C        2.930    -0.066    29.640     8.928
     2   6 C        2.871     0.163    24.487     8.112
     3   6 C        2.966    -0.013    28.324     8.730
     4   6 C        2.981    -0.038    28.928     8.823
     5   6 C        2.943    -0.043    29.066     8.842
     6   6 C        2.969    -0.006    28.164     8.705
     7   6 C        2.970    -0.005    28.149     8.703
     8   6 C        2.987    -0.006    28.170     8.706
     9   6 C        2.981    -0.031    28.761     8.797
    10   6 C        2.845     0.209    23.578     7.958
    11   6 C        2.981    -0.012    28.308     8.728
    12   6 C        2.980    -0.040    28.981     8.831
    13   6 C        2.839     0.206    23.642     7.968
    14   6 C        2.980    -0.033    28.806     8.804
    15   6 C        2.932    -0.034    28.844     8.808
    16   6 C        2.970    -0.014    28.370     8.737
    17   6 C        2.934    -0.030    28.740     8.792
    18   6 C        2.902     0.175    24.240     8.073
    19   6 C        2.927    -0.077    29.929     8.972
    20   6 C        2.971    -0.008    28.223     8.714
    21   6 C        2.933    -0.046    29.145     8.854
    22   8 O        1.616    -0.463    22.131     6.350
    23   8 O        1.635    -0.419    21.228     6.219
    24   5 B        3.282     0.633    13.184     6.055
    25   6 C        2.929    -0.073    29.829     8.957
    26   6 C        2.908     0.174    24.258     8.076
    27   6 C        2.984    -0.011    28.293     8.725
    28   6 C        2.980    -0.040    28.991     8.832
    29   6 C        2.930    -0.050    29.232     8.867
    30   6 C        2.971    -0.009    28.232     8.715
    31   6 C        2.972    -0.006    28.159     8.704
    32   6 C        2.988    -0.006    28.172     8.707
    33   6 C        2.979    -0.033    28.806     8.804
    34   6 C        2.966    -0.012    28.316     8.728
    35   6 C        2.981    -0.037    28.916     8.821
    36   6 C        2.845     0.209    23.571     7.957
    37   6 C        2.980    -0.031    28.763     8.797
    38   6 C        2.933    -0.030    28.740     8.792
    39   6 C        2.970    -0.015    28.372     8.737
    40   6 C        2.932    -0.034    28.844     8.808
    41   6 C        2.866     0.163    24.479     8.110
    42   6 C        2.931    -0.067    29.674     8.934
    43   6 C        2.969    -0.007    28.187     8.709
    44   6 C        2.943    -0.043    29.067     8.842
    45   8 O        1.617    -0.460    22.064     6.340
    46   8 O        1.635    -0.419    21.238     6.221
    47   6 C        2.838     0.205    23.650     7.970
    48   8 O        0.858    -0.465    23.017     6.432
    49   8 O        0.858    -0.471    23.162     6.453
    50   8 O        0.858    -0.465    23.034     6.435
    51   8 O        0.858    -0.472    23.176     6.455
    52   6 C        3.903     0.027    20.063     6.367
    53   6 C        3.761    -0.103    22.516     6.764
    54   6 C        3.763    -0.102    22.494     6.761
    55   6 C        3.761    -0.101    22.475     6.758
    56   6 C        3.903     0.027    20.061     6.367
    57   6 C        3.761    -0.102    22.496     6.761
    58   6 C        3.762    -0.101    22.483     6.759
    59   6 C        3.761    -0.102    22.493     6.761
    60   6 C        3.903     0.026    20.087     6.371
    61   6 C        3.762    -0.101    22.473     6.758
    62   6 C        3.761    -0.102    22.490     6.760
    63   6 C        3.762    -0.101    22.467     6.757
    64   6 C        3.903     0.027    20.068     6.368
    65   6 C        3.761    -0.100    22.455     6.755
    66   6 C        3.762    -0.102    22.500     6.762
    67   6 C        3.761    -0.102    22.493     6.761
    68   6 C        3.903     0.027    20.068     6.368
    69   6 C        3.761    -0.101    22.472     6.758
    70   6 C        3.763    -0.102    22.494     6.761
    71   6 C        3.760    -0.099    22.440     6.753
    72   6 C        3.903     0.026    20.087     6.371
    73   6 C        3.762    -0.101    22.466     6.757
    74   6 C        3.761    -0.102    22.490     6.761
    75   6 C        3.762    -0.101    22.473     6.758
    76   1 H        0.925     0.019     2.753     2.595
    77   1 H        0.925     0.032     2.555     2.500
    78   1 H        0.925     0.036     2.496     2.471
    79   1 H        0.925     0.018     2.768     2.602
    80   1 H        0.925     0.036     2.505     2.475
    81   1 H        0.925     0.041     2.431     2.438
    82   1 H        0.925     0.019     2.749     2.593
    83   1 H        0.925     0.035     2.513     2.479
    84   1 H        0.925     0.033     2.541     2.493
    85   1 H        0.925     0.019     2.743     2.590
    86   1 H        0.925     0.028     2.610     2.527
    87   1 H        0.925     0.044     2.400     2.422
    88   1 H        0.925     0.020     2.734     2.586
    89   1 H        0.925     0.036     2.498     2.472
    90   1 H        0.925     0.026     2.642     2.542
    91   1 H        0.925     0.020     2.732     2.585
    92   1 H        0.925     0.039     2.457     2.451
    93   1 H        0.925     0.037     2.487     2.466
    94   1 H        0.925     0.019     2.752     2.594
    95   1 H        0.925     0.029     2.607     2.525
    96   1 H        0.925     0.037     2.485     2.465
    97   1 H        0.925     0.018     2.765     2.600
    98   1 H        0.925     0.035     2.519     2.482
    99   1 H        0.925     0.035     2.518     2.481
   100   1 H        0.925     0.019     2.755     2.596
   101   1 H        0.925     0.039     2.466     2.456
   102   1 H        0.925     0.030     2.590     2.517
   103   1 H        0.925     0.020     2.731     2.584
   104   1 H        0.925     0.040     2.453     2.449
   105   1 H        0.925     0.037     2.495     2.470
   106   1 H        0.925     0.020     2.729     2.583
   107   1 H        0.925     0.036     2.506     2.476
   108   1 H        0.925     0.026     2.642     2.542
   109   1 H        0.925     0.019     2.741     2.589
   110   1 H        0.925     0.033     2.542     2.493
   111   1 H        0.925     0.045     2.387     2.416
   112   1 H        0.925     0.019     2.754     2.595
   113   1 H        0.925     0.029     2.607     2.525
   114   1 H        0.925     0.042     2.428     2.437
   115   1 H        0.925     0.018     2.761     2.599
   116   1 H        0.925     0.035     2.521     2.483
   117   1 H        0.925     0.033     2.551     2.498
   118   1 H        0.925     0.019     2.747     2.592
   119   1 H        0.925     0.047     2.358     2.401
   120   1 H        0.925     0.030     2.592     2.518
   121   1 H        0.925     0.019     2.754     2.595
   122   1 H        0.925     0.039     2.465     2.455
   123   1 H        0.925     0.030     2.591     2.517
   124   1 H        0.925     0.019     2.751     2.594
   125   1 H        0.925     0.029     2.607     2.525
   126   1 H        0.925     0.037     2.482     2.464
   127   1 H        0.925     0.018     2.765     2.600
   128   1 H        0.925     0.035     2.519     2.482
   129   1 H        0.925     0.035     2.518     2.482
   130   1 H        0.926     0.045     2.387     2.416
   131   1 H        0.926     0.037     2.492     2.469
   132   1 H        0.926     0.041     2.441     2.443
   133   1 H        0.926     0.055     2.258     2.350
   134   1 H        0.926     0.037     2.492     2.469
   135   1 H        0.926     0.070     2.090     2.261
   136   1 H        0.926     0.054     2.273     2.358
   137   1 H        0.926     0.040     2.454     2.450
   138   1 H        0.926     0.036     2.499     2.472
   139   1 H        0.926     0.045     2.388     2.417
   140   1 H        0.926     0.043     2.410     2.428
   141   1 H        0.926     0.061     2.188     2.313

 Mol. C6AA /au·bohr⁶  :     229991.223387
 Mol. C8AA /au·bohr⁸  :    5519028.317008
 Mol. α(0) /au        :        744.817348


Wiberg/Mayer (AO) data.
largest (>0.10) Wiberg bond orders for each atom

 ---------------------------------------------------------------------------
     #   Z sym  total        # sym  WBO       # sym  WBO       # sym  WBO
 ---------------------------------------------------------------------------
     1   6 C    3.967 --     6 C    1.398     2 C    1.388   133 H    0.948
     2   6 C    3.913 --     1 C    1.388     3 C    1.257    22 O    1.079
     3   6 C    3.978 --     4 C    1.267     2 C    1.257     7 C    1.200
     4   6 C    3.962 --     5 C    1.385     3 C    1.267    10 C    1.078
     5   6 C    3.971 --     6 C    1.411     4 C    1.385   132 H    0.958
     6   6 C    3.950 --     5 C    1.411     1 C    1.398    52 C    0.980
     7   6 C    3.875 --     8 C    1.238    11 C    1.212     3 C    1.200
     8   6 C    3.971 --    14 C    1.256     9 C    1.253     7 C    1.238
     9   6 C    3.966 --    17 C    1.411     8 C    1.253    10 C    1.069
    10   6 C    3.926 --    50 O    1.647     4 C    1.078     9 C    1.069
    11   6 C    3.974 --    12 C    1.258    18 C    1.250     7 C    1.212
    12   6 C    3.959 --    21 C    1.381    11 C    1.258    13 C    1.088
    13   6 C    3.926 --    51 O    1.633    12 C    1.088    14 C    1.071
    14   6 C    3.963 --    15 C    1.399     8 C    1.256    13 C    1.071
    15   6 C    3.985 --    16 C    1.411    14 C    1.399   130 H    0.961
    16   6 C    3.957 --    15 C    1.411    17 C    1.395    60 C    0.979
    17   6 C    3.985 --     9 C    1.411    16 C    1.395   131 H    0.960
    18   6 C    3.905 --    19 C    1.372    11 C    1.250    23 O    1.090
    19   6 C    3.962 --    20 C    1.399    18 C    1.372   135 H    0.941
    20   6 C    3.954 --    21 C    1.408    19 C    1.399    56 C    0.980
    21   6 C    3.967 --    20 C    1.408    12 C    1.381   134 H    0.960
    22   8 O    2.031 --     2 C    1.079    24 B    0.734
    23   8 O    2.122 --    18 C    1.090    24 B    0.818
    24   5 B    3.282 --    46 O    0.823    23 O    0.818    45 O    0.737
                            22 O    0.734
    25   6 C    3.963 --    26 C    1.388    30 C    1.380   141 H    0.944
    26   6 C    3.908 --    25 C    1.388    27 C    1.245    46 O    1.085
    27   6 C    3.974 --    28 C    1.265    26 C    1.245    31 C    1.210
    28   6 C    3.957 --    29 C    1.368    27 C    1.265    47 C    1.090
    29   6 C    3.968 --    30 C    1.426    28 C    1.368   140 H    0.961
    30   6 C    3.953 --    29 C    1.426    25 C    1.380    64 C    0.980
    31   6 C    3.875 --    32 C    1.238    27 C    1.210    34 C    1.203
    32   6 C    3.972 --    33 C    1.255    37 C    1.253    31 C    1.238
    33   6 C    3.963 --    40 C    1.401    32 C    1.255    47 C    1.069
    34   6 C    3.978 --    35 C    1.268    41 C    1.253    31 C    1.203
    35   6 C    3.962 --    44 C    1.385    34 C    1.268    36 C    1.075
    36   6 C    3.926 --    48 O    1.648    35 C    1.075    37 C    1.069
    37   6 C    3.966 --    38 C    1.410    32 C    1.253    36 C    1.069
    38   6 C    3.985 --    37 C    1.410    39 C    1.395   138 H    0.960
    39   6 C    3.956 --    40 C    1.410    38 C    1.395    72 C    0.979
    40   6 C    3.985 --    39 C    1.410    33 C    1.401   139 H    0.961
    41   6 C    3.913 --    42 C    1.390    34 C    1.253    45 O    1.080
    42   6 C    3.967 --    43 C    1.398    41 C    1.390   136 H    0.947
    43   6 C    3.949 --    44 C    1.411    42 C    1.398    68 C    0.980
    44   6 C    3.971 --    43 C    1.411    35 C    1.385   137 H    0.959
    45   8 O    2.037 --    41 C    1.080    24 B    0.737
    46   8 O    2.123 --    26 C    1.085    24 B    0.823
    47   6 C    3.925 --    49 O    1.633    28 C    1.090    33 C    1.069
    48   8 O    1.919 --    36 C    1.648
    49   8 O    1.905 --    47 C    1.633
    50   8 O    1.919 --    10 C    1.647
    51   8 O    1.906 --    13 C    1.633
    52   6 C    3.990 --    53 C    1.000    55 C    0.989    54 C    0.987
                             6 C    0.980
    53   6 C    3.996 --    52 C    1.000   109 H    0.985   111 H    0.983
                           110 H    0.983
    54   6 C    3.995 --    52 C    0.987   104 H    0.987   103 H    0.986
                           105 H    0.984
    55   6 C    3.996 --    52 C    0.989   108 H    0.988   106 H    0.986
                           107 H    0.984
    56   6 C    3.990 --    59 C    1.000    57 C    0.988    58 C    0.988
                            20 C    0.980
    57   6 C    3.995 --    56 C    0.988    82 H    0.986    84 H    0.986
                            83 H    0.984
    58   6 C    3.995 --    56 C    0.988    77 H    0.987    76 H    0.986
                            78 H    0.984
    59   6 C    3.996 --    56 C    1.000    79 H    0.985    81 H    0.984
                            80 H    0.983
    60   6 C    3.989 --    62 C    1.000    61 C    0.989    63 C    0.989
                            16 C    0.979
    61   6 C    3.995 --    60 C    0.989   123 H    0.987   121 H    0.986
                           122 H    0.984
    62   6 C    3.997 --    60 C    1.000   127 H    0.986   128 H    0.985
                           129 H    0.985
    63   6 C    3.995 --    60 C    0.989   125 H    0.987   124 H    0.986
                           126 H    0.984
    64   6 C    3.990 --    67 C    0.999    65 C    0.989    66 C    0.988
                            30 C    0.980
    65   6 C    3.995 --    64 C    0.989   112 H    0.986   113 H    0.986
                           114 H    0.982
    66   6 C    3.994 --    64 C    0.988   120 H    0.987   118 H    0.986
                           119 H    0.982
    67   6 C    3.997 --    64 C    0.999   115 H    0.986   116 H    0.985
                           117 H    0.985
    68   6 C    3.990 --    71 C    0.999    69 C    0.989    70 C    0.988
                            43 C    0.980
    69   6 C    3.996 --    68 C    0.989    90 H    0.988    88 H    0.986
                            89 H    0.984
    70   6 C    3.995 --    68 C    0.988    92 H    0.987    91 H    0.986
                            93 H    0.984
    71   6 C    3.997 --    68 C    0.999    85 H    0.985    86 H    0.984
                            87 H    0.983
    72   6 C    3.989 --    74 C    1.000    75 C    0.989    73 C    0.989
                            39 C    0.979
    73   6 C    3.995 --    72 C    0.989    95 H    0.987    94 H    0.986
                            96 H    0.984
    74   6 C    3.997 --    72 C    1.000    97 H    0.986    98 H    0.985
                            99 H    0.985
    75   6 C    3.995 --    72 C    0.989   102 H    0.987   100 H    0.986
                           101 H    0.984
    76   1 H    0.999 --    58 C    0.986
    77   1 H    0.999 --    58 C    0.987
    78   1 H    0.999 --    58 C    0.984
    79   1 H    0.999 --    59 C    0.985
    80   1 H    0.999 --    59 C    0.983
    81   1 H    0.998 --    59 C    0.984
    82   1 H    0.999 --    57 C    0.986
    83   1 H    0.999 --    57 C    0.984
    84   1 H    0.999 --    57 C    0.986
    85   1 H    0.999 --    71 C    0.985
    86   1 H    0.999 --    71 C    0.984
    87   1 H    0.998 --    71 C    0.983
    88   1 H    0.999 --    69 C    0.986
    89   1 H    0.999 --    69 C    0.984
    90   1 H    0.999 --    69 C    0.988
    91   1 H    0.999 --    70 C    0.986
    92   1 H    0.998 --    70 C    0.987
    93   1 H    0.999 --    70 C    0.984
    94   1 H    0.999 --    73 C    0.986
    95   1 H    0.999 --    73 C    0.987
    96   1 H    0.999 --    73 C    0.984
    97   1 H    0.999 --    74 C    0.986
    98   1 H    0.999 --    74 C    0.985
    99   1 H    0.999 --    74 C    0.985
   100   1 H    0.999 --    75 C    0.986
   101   1 H    0.998 --    75 C    0.984
   102   1 H    0.999 --    75 C    0.987
   103   1 H    0.999 --    54 C    0.986
   104   1 H    0.998 --    54 C    0.987
   105   1 H    0.999 --    54 C    0.984
   106   1 H    0.999 --    55 C    0.986
   107   1 H    0.999 --    55 C    0.984
   108   1 H    0.999 --    55 C    0.988
   109   1 H    0.999 --    53 C    0.985
   110   1 H    0.999 --    53 C    0.983
   111   1 H    0.998 --    53 C    0.983
   112   1 H    0.999 --    65 C    0.986
   113   1 H    0.999 --    65 C    0.986
   114   1 H    0.998 --    65 C    0.982
   115   1 H    0.999 --    67 C    0.986
   116   1 H    0.999 --    67 C    0.985
   117   1 H    0.999 --    67 C    0.985
   118   1 H    0.999 --    66 C    0.986
   119   1 H    0.998 --    66 C    0.982
   120   1 H    0.999 --    66 C    0.987
   121   1 H    0.999 --    61 C    0.986
   122   1 H    0.998 --    61 C    0.984
   123   1 H    0.999 --    61 C    0.987
   124   1 H    0.999 --    63 C    0.986
   125   1 H    0.999 --    63 C    0.987
   126   1 H    0.999 --    63 C    0.984
   127   1 H    0.999 --    62 C    0.986
   128   1 H    0.999 --    62 C    0.985
   129   1 H    0.999 --    62 C    0.985
   130   1 H    0.997 --    15 C    0.961
   131   1 H    0.998 --    17 C    0.960
   132   1 H    0.998 --     5 C    0.958
   133   1 H    0.996 --     1 C    0.948
   134   1 H    0.998 --    21 C    0.960
   135   1 H    0.994 --    19 C    0.941
   136   1 H    0.997 --    42 C    0.947
   137   1 H    0.998 --    44 C    0.959
   138   1 H    0.998 --    38 C    0.960
   139   1 H    0.997 --    40 C    0.961
   140   1 H    0.997 --    29 C    0.961
   141   1 H    0.996 --    25 C    0.944
 ---------------------------------------------------------------------------

Topologies differ in bond orders
Writing corrected topology to xtbtopo.mol

molecular dipole:
                 x           y           z       tot (Debye)
 q only:       -0.051      -0.844       2.453
   full:       -0.062      -0.872       2.585       6.936
molecular quadrupole (traceless):
                xx          xy          yy          xz          yz          zz
 q only:     -131.507      30.075      61.833       3.560      -1.984      69.674
  q+dip:     -129.750      28.674      61.645       2.837      -1.175      68.105
   full:     -134.292      33.294      62.483       4.259      -2.276      71.809


           -------------------------------------------------
          | TOTAL ENERGY             -209.476175359431 Eh   |
          | GRADIENT NORM               0.047153672742 Eh/α |
          | HOMO-LUMO GAP               1.134073892826 eV   |
           -------------------------------------------------
########################################################################
[WARNING] Runtime exception occurred
-2- restart_readRestart: Multiplicity missmatch in restart file.
-1- restart_readRestart: Number of electron missmatch in restart file.
########################################################################

------------------------------------------------------------------------
 * finished run on 2024/11/12 at 11:20:59.811     
------------------------------------------------------------------------
 total:
 * wall-time:     0 d,  0 h,  0 min,  1.322 sec
 *  cpu-time:     0 d,  0 h,  0 min,  4.995 sec
 * ratio c/w:     3.778 speedup
 SCF:
 * wall-time:     0 d,  0 h,  0 min,  1.303 sec
 *  cpu-time:     0 d,  0 h,  0 min,  4.954 sec
 * ratio c/w:     3.802 speedup
Note: The following floating-point exceptions are signalling: IEEE_UNDERFLOW_FLAG
normal termination of xtb

