      -----------------------------------------------------------      
     |                   =====================                   |     
     |                           x T B                           |     
     |                   =====================                   |     
     |                         S. Grimme                         |     
     |          Mulliken Center for Theoretical Chemistry        |     
     |                    University of Bonn                     |     
      -----------------------------------------------------------      

   * xtb version 6.6.1 (8d0f1dd) compiled by 'runner@Mac-1690902418499.local' on 2023-08-01

   xtb is free software: you can redistribute it and/or modify it under
   the terms of the GNU Lesser General Public License as published by
   the Free Software Foundation, either version 3 of the License, or
   (at your option) any later version.
   
   xtb is distributed in the hope that it will be useful,
   but WITHOUT ANY WARRANTY; without even the implied warranty of
   MERCHANTABILITY or FITNESS FOR A PARTICULAR PURPOSE.  See the
   GNU Lesser General Public License for more details.
   
   Cite this work as:
   * C. Bannwarth, E. Caldeweyher, S. Ehlert, A. Hansen, P. Pracht,
     J. Seibert, S. Spicher, S. Grimme, WIREs Comput. Mol. Sci., 2020, 11,
     e01493. DOI: 10.1002/wcms.1493
   
   for GFN2-xTB:
   * C. Bannwarth, S. Ehlert and S. Grimme., J. Chem. Theory Comput., 2019,
     15, 1652-1671. DOI: 10.1021/acs.jctc.8b01176
   for GFN1-xTB:
   * S. Grimme, C. Bannwarth, P. Shushkov, J. Chem. Theory Comput., 2017,
     13, 1989-2009. DOI: 10.1021/acs.jctc.7b00118
   for GFN0-xTB:
   * P. Pracht, E. Caldeweyher, S. Ehlert, S. Grimme, ChemRxiv, 2019, preprint.
     DOI: 10.26434/chemrxiv.8326202.v1
   for GFN-FF:
   * S. Spicher and S. Grimme, Angew. Chem. Int. Ed., 2020, 59, 15665-15673.
     DOI: 10.1002/anie.202004239
   
   for ALPB and GBSA implicit solvation:
   * S. Ehlert, M. Stahn, S. Spicher, S. Grimme, J. Chem. Theory Comput.,
     2021, 17, 4250-4261. DOI: 10.1021/acs.jctc.1c00471
   
   for DFT-D4:
   * E. Caldeweyher, C. Bannwarth and S. Grimme, J. Chem. Phys., 2017,
     147, 034112. DOI: 10.1063/1.4993215
   * E. Caldeweyher, S. Ehlert, A. Hansen, H. Neugebauer, S. Spicher,
     C. Bannwarth and S. Grimme, J. Chem. Phys., 2019, 150, 154122.
     DOI: 10.1063/1.5090222
   * E. Caldeweyher, J.-M. Mewes, S. Ehlert and S. Grimme, Phys. Chem. Chem. Phys.
     2020, 22, 8499-8512. DOI: 10.1039/D0CP00502A
   
   for sTDA-xTB:
   * S. Grimme and C. Bannwarth, J. Chem. Phys., 2016, 145, 054103.
     DOI: 10.1063/1.4959605
   
   in the mass-spec context:
   * V. Asgeirsson, C. Bauer and S. Grimme, Chem. Sci., 2017, 8, 4879.
     DOI: 10.1039/c7sc00601b
   * J. Koopman and S. Grimme, ACS Omega 2019, 4, 12, 15120-15133.
     DOI: 10.1021/acsomega.9b02011
   
   for metadynamics refer to:
   * S. Grimme, J. Chem. Theory Comput., 2019, 155, 2847-2862
     DOI: 10.1021/acs.jctc.9b00143
   
   for SPH calculations refer to:
   * S. Spicher and S. Grimme, J. Chem. Theory Comput., 2021, 17, 1701-1714
     DOI: 10.1021/acs.jctc.0c01306
   
   with help from (in alphabetical order)
   P. Atkinson, C. Bannwarth, F. Bohle, G. Brandenburg, E. Caldeweyher
   M. Checinski, S. Dohm, S. Ehlert, S. Ehrlich, I. Gerasimov, C. Hölzer
   A. Katbashev, J. Koopman, C. Lavigne, S. Lehtola, F. März, M. Müller,
   F. Musil, H. Neugebauer, J. Pisarek, C. Plett, P. Pracht, F. Pultar,
   J. Seibert, P. Shushkov, S. Spicher, M. Stahn, M. Steiner, T. Strunk,
   J. Stückrath, T. Rose, and J. Unsleber
   
 * started run on 2024/11/12 at 11:20:51.809     

           -------------------------------------------------
          |                Calculation Setup                |
           -------------------------------------------------

          program call               : xtb opt_radical_Katherine2.mol --gfn2 --sp --chrg -2 --uhf 1
          coordinate file            : opt_radical_Katherine2.mol
          omp threads                :                     8

   ID    Z sym.   atoms
    1    6 C      1-21, 25-44, 47, 52-75
    2    8 O      22, 23, 45, 46, 48-51
    3    5 B      24
    4    1 H      76-141
########################################################################
[WARNING] Please study the warnings concerning your input carefully
-1- prog_main: Charge in sdf/mol input was overwritten
########################################################################

           -------------------------------------------------
          |                 G F N 2 - x T B                 |
           -------------------------------------------------

        Reference                      10.1021/acs.jctc.8b01176
      * Hamiltonian:
        H0-scaling (s, p, d)           1.850000    2.230000    2.230000
        zeta-weighting                 0.500000
      * Dispersion:
        s8                             2.700000
        a1                             0.520000
        a2                             5.000000
        s9                             5.000000
      * Repulsion:
        kExp                           1.500000    1.000000
        rExp                           1.000000
      * Coulomb:
        alpha                          2.000000
        third order                    shell-resolved
        anisotropic                    true
        a3                             3.000000
        a5                             4.000000
        cn-shift                       1.200000
        cn-exp                         4.000000
        max-rad                        5.000000

q/qsh data taken from xtbrestart
CAMM data taken from xtbrestart

          ...................................................
          :                      SETUP                      :
          :.................................................:
          :  # basis functions                 366          :
          :  # atomic orbitals                 366          :
          :  # shells                          216          :
          :  # electrons                       383          :
          :  max. iterations                   250          :
          :  Hamiltonian                  GFN2-xTB          :
          :  restarted?                       true          :
          :  GBSA solvation                  false          :
          :  PC potential                    false          :
          :  electronic temp.          300.0000000     K    :
          :  accuracy                    1.0000000          :
          :  -> integral cutoff          0.2500000E+02      :
          :  -> integral neglect         0.1000000E-07      :
          :  -> SCF convergence          0.1000000E-05 Eh   :
          :  -> wf. convergence          0.1000000E-03 e    :
          :  Broyden damping             0.4000000          :
          ...................................................

 iter      E             dE          RMSdq      gap      omega  full diag
   1   -212.5882155 -0.212588E+03  0.342E-01    1.27       0.0  T
   2   -212.5928974 -0.468196E-02  0.271E-01    1.09       1.0  T
   3   -212.5692980  0.235994E-01  0.298E-01    1.03       1.0  T
   4   -212.5631295  0.616857E-02  0.320E-01    0.91       1.0  T
   5   -212.5939000 -0.307705E-01  0.138E-01    1.12       1.0  T
   6   -212.5908569  0.304309E-02  0.147E-01    1.10       1.0  T
   7   -212.6000047 -0.914786E-02  0.288E-02    1.17       1.0  T
   8   -212.6002667 -0.261990E-03  0.956E-03    1.17       1.0  T
   9   -212.6002831 -0.163505E-04  0.615E-03    1.17       1.4  T
  10   -212.6002957 -0.126567E-04  0.175E-03    1.17       4.8  T
  11   -212.6002964 -0.694616E-06  0.827E-04    1.17      10.2  T
  12   -212.6002964  0.971318E-08  0.797E-04    1.17      10.6  T

   *** convergence criteria satisfied after 12 iterations ***

         #    Occupation            Energy/Eh            Energy/eV
      -------------------------------------------------------------
         1        2.0000           -0.5081160             -13.8265
       ...           ...                  ...                  ...
       186        2.0000           -0.2046093              -5.5677
       187        2.0000           -0.1967857              -5.3548
       188        2.0000           -0.1965670              -5.3489
       189        2.0000           -0.1951084              -5.3092
       190        2.0000           -0.1935158              -5.2658
       191        1.6365           -0.1587983              -4.3211
       192        1.3635           -0.1577339              -4.2922 (HOMO)
       193                         -0.1148412              -3.1250 (LUMO)
       194                         -0.1144155              -3.1134
       195                         -0.0749219              -2.0387
       196                         -0.0711065              -1.9349
       197                         -0.0593297              -1.6144
       ...                                ...                  ...
       366                          0.9044307              24.6108
      -------------------------------------------------------------
                  HL-Gap            0.0428927 Eh            1.1672 eV
             Fermi-level           -0.1473269 Eh           -4.0090 eV

 SCC (total)                   0 d,  0 h,  0 min,  1.039 sec
 SCC setup                      ...        0 min,  0.001 sec (  0.077%)
 Dispersion                     ...        0 min,  0.002 sec (  0.196%)
 classical contributions        ...        0 min,  0.001 sec (  0.066%)
 integral evaluation            ...        0 min,  0.009 sec (  0.872%)
 iterations                     ...        0 min,  0.929 sec ( 89.411%)
 molecular gradient             ...        0 min,  0.060 sec (  5.812%)
 printout                       ...        0 min,  0.037 sec (  3.564%)

         :::::::::::::::::::::::::::::::::::::::::::::::::::::
         ::                     SUMMARY                     ::
         :::::::::::::::::::::::::::::::::::::::::::::::::::::
         :: total energy            -209.477580422828 Eh    ::
         :: gradient norm              0.000557657534 Eh/a0 ::
         :: HOMO-LUMO gap              1.167168487189 eV    ::
         ::.................................................::
         :: SCC energy              -212.600296410638 Eh    ::
         :: -> isotropic ES            0.495167569727 Eh    ::
         :: -> anisotropic ES          0.026445388469 Eh    ::
         :: -> anisotropic XC          0.070275150520 Eh    ::
         :: -> dispersion             -0.206673873328 Eh    ::
         :: repulsion energy           3.119069751652 Eh    ::
         :: add. restraining           0.000000000000 Eh    ::
         :: total charge              -2.000038937655 e     ::
         :::::::::::::::::::::::::::::::::::::::::::::::::::::

           -------------------------------------------------
          |                Property Printout                |
           -------------------------------------------------

    * Orbital Energies and Occupations

         #    Occupation            Energy/Eh            Energy/eV
      -------------------------------------------------------------
         1        2.0000           -0.5081160             -13.8265
       ...           ...                  ...                  ...
       180        2.0000           -0.2209249              -6.0117
       181        2.0000           -0.2135715              -5.8116
       182        2.0000           -0.2118377              -5.7644
       183        2.0000           -0.2098418              -5.7101
       184        2.0000           -0.2080105              -5.6603
       185        2.0000           -0.2061619              -5.6100
       186        2.0000           -0.2046093              -5.5677
       187        2.0000           -0.1967857              -5.3548
       188        2.0000           -0.1965670              -5.3489
       189        2.0000           -0.1951084              -5.3092
       190        2.0000           -0.1935158              -5.2658
       191        1.6365           -0.1587983              -4.3211
       192        1.3635           -0.1577339              -4.2922 (HOMO)
       193                         -0.1148412              -3.1250 (LUMO)
       194                         -0.1144155              -3.1134
       195                         -0.0749219              -2.0387
       196                         -0.0711065              -1.9349
       197                         -0.0593297              -1.6144
       198                         -0.0592173              -1.6114
       199                         -0.0539767              -1.4688
       200                         -0.0537764              -1.4633
       201                         -0.0440090              -1.1975
       202                         -0.0416703              -1.1339
       203                         -0.0106733              -0.2904
       ...                                ...                  ...
       366                          0.9044307              24.6108
      -------------------------------------------------------------
                  HL-Gap            0.0428927 Eh            1.1672 eV
             Fermi-level           -0.1473269 Eh           -4.0090 eV

     #   Z          covCN         q      C6AA      α(0)
     1   6 C        2.932    -0.065    29.630     8.927
     2   6 C        2.870     0.162    24.493     8.113
     3   6 C        2.966    -0.012    28.307     8.727
     4   6 C        2.981    -0.037    28.911     8.820
     5   6 C        2.944    -0.042    29.053     8.840
     6   6 C        2.968    -0.005    28.149     8.703
     7   6 C        2.969    -0.003    28.103     8.696
     8   6 C        2.987    -0.007    28.175     8.707
     9   6 C        2.980    -0.030    28.745     8.795
    10   6 C        2.847     0.207    23.626     7.966
    11   6 C        2.982    -0.011    28.293     8.725
    12   6 C        2.981    -0.038    28.949     8.826
    13   6 C        2.841     0.204    23.671     7.973
    14   6 C        2.980    -0.032    28.786     8.801
    15   6 C        2.933    -0.033    28.824     8.805
    16   6 C        2.968    -0.014    28.360     8.735
    17   6 C        2.934    -0.029    28.725     8.790
    18   6 C        2.898     0.175    24.248     8.074
    19   6 C        2.929    -0.077    29.923     8.971
    20   6 C        2.970    -0.007    28.199     8.710
    21   6 C        2.934    -0.045    29.127     8.851
    22   8 O        1.615    -0.465    22.172     6.355
    23   8 O        1.634    -0.422    21.295     6.229
    24   5 B        3.272     0.632    13.192     6.057
    25   6 C        2.930    -0.073    29.828     8.957
    26   6 C        2.903     0.174    24.262     8.076
    27   6 C        2.985    -0.011    28.277     8.723
    28   6 C        2.982    -0.039    28.957     8.827
    29   6 C        2.930    -0.049    29.209     8.863
    30   6 C        2.970    -0.008    28.206     8.711
    31   6 C        2.971    -0.004    28.111     8.697
    32   6 C        2.988    -0.007    28.177     8.707
    33   6 C        2.979    -0.032    28.786     8.801
    34   6 C        2.967    -0.011    28.297     8.725
    35   6 C        2.981    -0.036    28.900     8.818
    36   6 C        2.846     0.207    23.619     7.965
    37   6 C        2.980    -0.030    28.746     8.795
    38   6 C        2.934    -0.029    28.725     8.790
    39   6 C        2.968    -0.014    28.362     8.735
    40   6 C        2.932    -0.033    28.825     8.805
    41   6 C        2.867     0.163    24.485     8.111
    42   6 C        2.932    -0.067    29.658     8.931
    43   6 C        2.968    -0.006    28.169     8.706
    44   6 C        2.944    -0.043    29.055     8.841
    45   8 O        1.616    -0.462    22.113     6.347
    46   8 O        1.634    -0.423    21.302     6.230
    47   6 C        2.839     0.204    23.679     7.975
    48   8 O        0.858    -0.473    23.192     6.457
    49   8 O        0.857    -0.477    23.288     6.470
    50   8 O        0.858    -0.474    23.209     6.459
    51   8 O        0.858    -0.478    23.303     6.472
    52   6 C        3.903     0.027    20.066     6.367
    53   6 C        3.761    -0.103    22.522     6.765
    54   6 C        3.763    -0.102    22.497     6.761
    55   6 C        3.761    -0.101    22.474     6.758
    56   6 C        3.903     0.027    20.066     6.367
    57   6 C        3.761    -0.102    22.495     6.761
    58   6 C        3.762    -0.102    22.485     6.759
    59   6 C        3.761    -0.102    22.499     6.762
    60   6 C        3.903     0.026    20.089     6.371
    61   6 C        3.761    -0.101    22.475     6.758
    62   6 C        3.761    -0.102    22.493     6.761
    63   6 C        3.761    -0.101    22.470     6.757
    64   6 C        3.903     0.027    20.072     6.368
    65   6 C        3.761    -0.100    22.448     6.754
    66   6 C        3.762    -0.103    22.506     6.762
    67   6 C        3.761    -0.102    22.497     6.761
    68   6 C        3.903     0.027    20.071     6.368
    69   6 C        3.761    -0.101    22.475     6.758
    70   6 C        3.762    -0.102    22.494     6.761
    71   6 C        3.760    -0.099    22.446     6.754
    72   6 C        3.903     0.026    20.089     6.371
    73   6 C        3.761    -0.101    22.469     6.757
    74   6 C        3.761    -0.102    22.493     6.761
    75   6 C        3.761    -0.101    22.475     6.758
    76   1 H        0.924     0.019     2.750     2.593
    77   1 H        0.925     0.032     2.554     2.499
    78   1 H        0.925     0.037     2.495     2.470
    79   1 H        0.924     0.018     2.763     2.600
    80   1 H        0.925     0.036     2.502     2.474
    81   1 H        0.925     0.042     2.427     2.436
    82   1 H        0.924     0.019     2.747     2.592
    83   1 H        0.925     0.036     2.509     2.477
    84   1 H        0.925     0.033     2.546     2.495
    85   1 H        0.924     0.020     2.737     2.587
    86   1 H        0.925     0.029     2.606     2.524
    87   1 H        0.925     0.044     2.398     2.422
    88   1 H        0.925     0.020     2.732     2.585
    89   1 H        0.925     0.037     2.494     2.469
    90   1 H        0.925     0.026     2.640     2.541
    91   1 H        0.924     0.020     2.729     2.584
    92   1 H        0.925     0.039     2.463     2.454
    93   1 H        0.925     0.037     2.489     2.467
    94   1 H        0.924     0.019     2.752     2.594
    95   1 H        0.925     0.029     2.608     2.525
    96   1 H        0.925     0.038     2.478     2.462
    97   1 H        0.924     0.018     2.764     2.600
    98   1 H        0.925     0.035     2.520     2.482
    99   1 H        0.925     0.035     2.516     2.480
   100   1 H        0.924     0.019     2.754     2.595
   101   1 H        0.925     0.039     2.463     2.454
   102   1 H        0.925     0.030     2.593     2.518
   103   1 H        0.925     0.020     2.732     2.585
   104   1 H        0.925     0.039     2.468     2.457
   105   1 H        0.925     0.037     2.494     2.470
   106   1 H        0.925     0.021     2.725     2.582
   107   1 H        0.925     0.036     2.508     2.476
   108   1 H        0.925     0.027     2.635     2.538
   109   1 H        0.924     0.020     2.736     2.587
   110   1 H        0.925     0.034     2.531     2.488
   111   1 H        0.925     0.045     2.385     2.415
   112   1 H        0.924     0.019     2.748     2.592
   113   1 H        0.925     0.027     2.625     2.534
   114   1 H        0.925     0.042     2.419     2.432
   115   1 H        0.924     0.018     2.757     2.597
   116   1 H        0.925     0.035     2.522     2.483
   117   1 H        0.925     0.033     2.551     2.498
   118   1 H        0.924     0.019     2.743     2.590
   119   1 H        0.925     0.048     2.350     2.397
   120   1 H        0.925     0.029     2.594     2.519
   121   1 H        0.925     0.019     2.753     2.595
   122   1 H        0.925     0.039     2.462     2.454
   123   1 H        0.925     0.030     2.593     2.518
   124   1 H        0.925     0.019     2.752     2.594
   125   1 H        0.925     0.028     2.608     2.525
   126   1 H        0.925     0.038     2.477     2.461
   127   1 H        0.924     0.018     2.763     2.600
   128   1 H        0.925     0.035     2.519     2.482
   129   1 H        0.925     0.035     2.518     2.481
   130   1 H        0.926     0.046     2.372     2.408
   131   1 H        0.925     0.039     2.467     2.456
   132   1 H        0.926     0.042     2.418     2.432
   133   1 H        0.926     0.058     2.222     2.331
   134   1 H        0.926     0.038     2.473     2.459
   135   1 H        0.926     0.071     2.069     2.249
   136   1 H        0.926     0.057     2.238     2.340
   137   1 H        0.926     0.042     2.427     2.436
   138   1 H        0.925     0.038     2.475     2.460
   139   1 H        0.926     0.046     2.373     2.409
   140   1 H        0.926     0.044     2.393     2.419
   141   1 H        0.926     0.063     2.168     2.303

 Mol. C6AA /au·bohr⁶  :     229935.863822
 Mol. C8AA /au·bohr⁸  :    5518230.263012
 Mol. α(0) /au        :        744.707121


Wiberg/Mayer (AO) data.
largest (>0.10) Wiberg bond orders for each atom

 ---------------------------------------------------------------------------
     #   Z sym  total        # sym  WBO       # sym  WBO       # sym  WBO
 ---------------------------------------------------------------------------
     1   6 C    3.967 --     2 C    1.398     6 C    1.386   133 H    0.947
     2   6 C    3.915 --     1 C    1.398     3 C    1.256    22 O    1.074
     3   6 C    3.978 --     4 C    1.271     2 C    1.256     7 C    1.197
     4   6 C    3.963 --     5 C    1.372     3 C    1.271    10 C    1.088
     5   6 C    3.971 --     6 C    1.426     4 C    1.372   132 H    0.958
     6   6 C    3.951 --     5 C    1.426     1 C    1.386    52 C    0.979
     7   6 C    3.878 --     8 C    1.255    11 C    1.205     3 C    1.197
     8   6 C    3.972 --     7 C    1.255    14 C    1.247     9 C    1.246
     9   6 C    3.965 --    17 C    1.410     8 C    1.246    10 C    1.078
    10   6 C    3.928 --    50 O    1.629     4 C    1.088     9 C    1.078
    11   6 C    3.974 --    12 C    1.263    18 C    1.249     7 C    1.205
    12   6 C    3.960 --    21 C    1.368    11 C    1.263    13 C    1.097
    13   6 C    3.927 --    51 O    1.619    12 C    1.097    14 C    1.078
    14   6 C    3.962 --    15 C    1.401     8 C    1.247    13 C    1.078
    15   6 C    3.984 --    16 C    1.409    14 C    1.401   130 H    0.960
    16   6 C    3.956 --    15 C    1.409    17 C    1.396    60 C    0.979
    17   6 C    3.985 --     9 C    1.410    16 C    1.396   131 H    0.959
    18   6 C    3.907 --    19 C    1.380    11 C    1.249    23 O    1.086
    19   6 C    3.962 --    20 C    1.388    18 C    1.380   135 H    0.941
    20   6 C    3.955 --    21 C    1.422    19 C    1.388    56 C    0.979
    21   6 C    3.967 --    20 C    1.422    12 C    1.368   134 H    0.960
    22   8 O    2.029 --     2 C    1.074    24 B    0.737
    23   8 O    2.116 --    18 C    1.086    24 B    0.816
    24   5 B    3.283 --    46 O    0.820    23 O    0.816    45 O    0.740
                            22 O    0.737
    25   6 C    3.963 --    26 C    1.396    30 C    1.369   141 H    0.943
    26   6 C    3.910 --    25 C    1.396    27 C    1.243    46 O    1.082
    27   6 C    3.974 --    28 C    1.271    26 C    1.243    31 C    1.204
    28   6 C    3.958 --    29 C    1.354    27 C    1.271    47 C    1.099
    29   6 C    3.968 --    30 C    1.439    28 C    1.354   140 H    0.961
    30   6 C    3.954 --    29 C    1.439    25 C    1.369    64 C    0.979
    31   6 C    3.878 --    32 C    1.255    27 C    1.204    34 C    1.198
    32   6 C    3.973 --    31 C    1.255    33 C    1.247    37 C    1.246
    33   6 C    3.962 --    40 C    1.402    32 C    1.247    47 C    1.076
    34   6 C    3.978 --    35 C    1.272    41 C    1.253    31 C    1.198
    35   6 C    3.962 --    44 C    1.371    34 C    1.272    36 C    1.086
    36   6 C    3.928 --    48 O    1.631    35 C    1.086    37 C    1.077
    37   6 C    3.964 --    38 C    1.410    32 C    1.246    36 C    1.077
    38   6 C    3.985 --    37 C    1.410    39 C    1.396   138 H    0.960
    39   6 C    3.955 --    40 C    1.409    38 C    1.396    72 C    0.979
    40   6 C    3.984 --    39 C    1.409    33 C    1.402   139 H    0.960
    41   6 C    3.914 --    42 C    1.400    34 C    1.253    45 O    1.074
    42   6 C    3.966 --    41 C    1.400    43 C    1.386   136 H    0.946
    43   6 C    3.951 --    44 C    1.426    42 C    1.386    68 C    0.979
    44   6 C    3.971 --    43 C    1.426    35 C    1.371   137 H    0.958
    45   8 O    2.033 --    41 C    1.074    24 B    0.740
    46   8 O    2.116 --    26 C    1.082    24 B    0.820
    47   6 C    3.927 --    49 O    1.619    28 C    1.099    33 C    1.076
    48   8 O    1.904 --    36 C    1.631
    49   8 O    1.893 --    47 C    1.619
    50   8 O    1.903 --    10 C    1.629
    51   8 O    1.894 --    13 C    1.619
    52   6 C    3.990 --    53 C    1.000    55 C    0.988    54 C    0.988
                             6 C    0.979
    53   6 C    3.996 --    52 C    1.000   109 H    0.985   111 H    0.984
                           110 H    0.982
    54   6 C    3.995 --    52 C    0.988   104 H    0.987   103 H    0.986
                           105 H    0.984
    55   6 C    3.995 --    52 C    0.988   108 H    0.987   106 H    0.986
                           107 H    0.984
    56   6 C    3.990 --    59 C    1.000    57 C    0.989    58 C    0.988
                            20 C    0.979
    57   6 C    3.995 --    56 C    0.989    82 H    0.986    84 H    0.986
                            83 H    0.984
    58   6 C    3.995 --    56 C    0.988    77 H    0.987    76 H    0.986
                            78 H    0.984
    59   6 C    3.996 --    56 C    1.000    79 H    0.985    81 H    0.984
                            80 H    0.983
    60   6 C    3.989 --    62 C    1.000    63 C    0.989    61 C    0.989
                            16 C    0.979
    61   6 C    3.995 --    60 C    0.989   123 H    0.987   121 H    0.986
                           122 H    0.984
    62   6 C    3.997 --    60 C    1.000   127 H    0.986   128 H    0.985
                           129 H    0.985
    63   6 C    3.995 --    60 C    0.989   125 H    0.987   124 H    0.986
                           126 H    0.984
    64   6 C    3.990 --    67 C    0.999    65 C    0.989    66 C    0.989
                            30 C    0.979
    65   6 C    3.995 --    64 C    0.989   112 H    0.986   113 H    0.985
                           114 H    0.982
    66   6 C    3.994 --    64 C    0.989   120 H    0.987   118 H    0.985
                           119 H    0.982
    67   6 C    3.997 --    64 C    0.999   115 H    0.986   116 H    0.985
                           117 H    0.985
    68   6 C    3.990 --    71 C    1.000    69 C    0.989    70 C    0.988
                            43 C    0.979
    69   6 C    3.996 --    68 C    0.989    90 H    0.988    88 H    0.986
                            89 H    0.983
    70   6 C    3.995 --    68 C    0.988    92 H    0.987    91 H    0.986
                            93 H    0.984
    71   6 C    3.997 --    68 C    1.000    85 H    0.985    86 H    0.983
                            87 H    0.983
    72   6 C    3.989 --    74 C    1.000    75 C    0.989    73 C    0.989
                            39 C    0.979
    73   6 C    3.995 --    72 C    0.989    95 H    0.987    94 H    0.986
                            96 H    0.984
    74   6 C    3.997 --    72 C    1.000    97 H    0.986    98 H    0.985
                            99 H    0.985
    75   6 C    3.995 --    72 C    0.989   102 H    0.987   100 H    0.986
                           101 H    0.984
    76   1 H    0.999 --    58 C    0.986
    77   1 H    0.999 --    58 C    0.987
    78   1 H    0.999 --    58 C    0.984
    79   1 H    0.999 --    59 C    0.985
    80   1 H    0.999 --    59 C    0.983
    81   1 H    0.998 --    59 C    0.984
    82   1 H    0.999 --    57 C    0.986
    83   1 H    0.999 --    57 C    0.984
    84   1 H    0.999 --    57 C    0.986
    85   1 H    0.999 --    71 C    0.985
    86   1 H    0.999 --    71 C    0.983
    87   1 H    0.998 --    71 C    0.983
    88   1 H    0.999 --    69 C    0.986
    89   1 H    0.999 --    69 C    0.983
    90   1 H    0.999 --    69 C    0.988
Note: The following floating-point exceptions are signalling: IEEE_UNDERFLOW_FLAG
normal termination of xtb
    91   1 H    0.999 --    70 C    0.986
    92   1 H    0.998 --    70 C    0.987
    93   1 H    0.999 --    70 C    0.984
    94   1 H    0.999 --    73 C    0.986
    95   1 H    0.999 --    73 C    0.987
    96   1 H    0.999 --    73 C    0.984
    97   1 H    0.999 --    74 C    0.986
    98   1 H    0.999 --    74 C    0.985
    99   1 H    0.999 --    74 C    0.985
   100   1 H    0.999 --    75 C    0.986
   101   1 H    0.998 --    75 C    0.984
   102   1 H    0.999 --    75 C    0.987
   103   1 H    0.999 --    54 C    0.986
   104   1 H    0.998 --    54 C    0.987
   105   1 H    0.999 --    54 C    0.984
   106   1 H    0.999 --    55 C    0.986
   107   1 H    0.999 --    55 C    0.984
   108   1 H    0.999 --    55 C    0.987
   109   1 H    0.999 --    53 C    0.985
   110   1 H    0.999 --    53 C    0.982
   111   1 H    0.998 --    53 C    0.984
   112   1 H    0.999 --    65 C    0.986
   113   1 H    0.999 --    65 C    0.985
   114   1 H    0.998 --    65 C    0.982
   115   1 H    0.999 --    67 C    0.986
   116   1 H    0.999 --    67 C    0.985
   117   1 H    0.999 --    67 C    0.985
   118   1 H    0.999 --    66 C    0.985
   119   1 H    0.998 --    66 C    0.982
   120   1 H    0.999 --    66 C    0.987
   121   1 H    0.999 --    61 C    0.986
   122   1 H    0.998 --    61 C    0.984
   123   1 H    0.999 --    61 C    0.987
   124   1 H    0.999 --    63 C    0.986
   125   1 H    0.999 --    63 C    0.987
   126   1 H    0.999 --    63 C    0.984
   127   1 H    0.999 --    62 C    0.986
   128   1 H    0.999 --    62 C    0.985
   129   1 H    0.999 --    62 C    0.985
   130   1 H    0.997 --    15 C    0.960
   131   1 H    0.998 --    17 C    0.959
   132   1 H    0.998 --     5 C    0.958
   133   1 H    0.996 --     1 C    0.947
   134   1 H    0.998 --    21 C    0.960
   135   1 H    0.994 --    19 C    0.941
   136   1 H    0.996 --    42 C    0.946
   137   1 H    0.998 --    44 C    0.958
   138   1 H    0.998 --    38 C    0.960
   139   1 H    0.997 --    40 C    0.960
   140   1 H    0.997 --    29 C    0.961
   141   1 H    0.995 --    25 C    0.943
 ---------------------------------------------------------------------------

Topologies differ in bond orders
Writing corrected topology to xtbtopo.mol

molecular dipole:
                 x           y           z       tot (Debye)
 q only:       -0.056      -0.781       2.297
   full:       -0.066      -0.803       2.411       6.462
molecular quadrupole (traceless):
                xx          xy          yy          xz          yz          zz
 q only:     -136.702      27.255      62.059       2.508      -3.660      74.642
  q+dip:     -134.895      25.494      61.954       1.736      -2.871      72.940
   full:     -139.990      29.949      62.606       3.042      -4.247      77.384


           -------------------------------------------------
          | TOTAL ENERGY             -209.477580422828 Eh   |
          | GRADIENT NORM               0.000557657534 Eh/α |
          | HOMO-LUMO GAP               1.167168487189 eV   |
           -------------------------------------------------
########################################################################
[WARNING] Runtime exception occurred
-2- restart_readRestart: Multiplicity missmatch in restart file.
-1- restart_readRestart: Number of electron missmatch in restart file.
########################################################################

------------------------------------------------------------------------
 * finished run on 2024/11/12 at 11:20:52.880     
------------------------------------------------------------------------
 total:
 * wall-time:     0 d,  0 h,  0 min,  1.070 sec
 *  cpu-time:     0 d,  0 h,  0 min,  3.897 sec
 * ratio c/w:     3.643 speedup
 SCF:
 * wall-time:     0 d,  0 h,  0 min,  1.040 sec
 *  cpu-time:     0 d,  0 h,  0 min,  3.854 sec
 * ratio c/w:     3.706 speedup

