Optimization of monomers started
Stacking dimer
Calculating transfer integral
Reorganization energy (electron): 0.09709073248809863 eV
Reorganization energy (hole): 0.08677776819009721 eV
Electron Transfer integral J: 0.0 eV
Hole Transfer integral J: 0.0 eV
====                   |     
     |                         S. Grimme                         |     
     |          Mulliken Center for Theoretical Chemistry        |     
     |                    University of Bonn                     |     
      -----------------------------------------------------------      

   * xtb version 6.7.1 (edcfbbe) compiled by 'runner@Mac-1732539442253.local' on 2024-11-25

   xtb is free software: you can redistribute it and/or modify it under
   the terms of the GNU Lesser General Public License as published by
   the Free Software Foundation, either version 3 of the License, or
   (at your option) any later version.
   
   xtb is distributed in the hope that it will be useful,
   but WITHOUT ANY WARRANTY; without even the implied warranty of
   MERCHANTABILITY or FITNESS FOR A PARTICULAR PURPOSE.  See the
   GNU Lesser General Public License for more details.
   
   Cite this work as:
   * C. Bannwarth, E. Caldeweyher, S. Ehlert, A. Hansen, P. Pracht,
     J. Seibert, S. Spicher, S. Grimme, WIREs Comput. Mol. Sci., 2020, 11,
     e01493. DOI: 10.1002/wcms.1493
   
   for GFN2-xTB:
   * C. Bannwarth, S. Ehlert and S. Grimme., J. Chem. Theory Comput., 2019,
     15, 1652-1671. DOI: 10.1021/acs.jctc.8b01176
   for GFN1-xTB:
   * S. Grimme, C. Bannwarth, P. Shushkov, J. Chem. Theory Comput., 2017,
     13, 1989-2009. DOI: 10.1021/acs.jctc.7b00118
   for GFN0-xTB:
   * P. Pracht, E. Caldeweyher, S. Ehlert, S. Grimme, ChemRxiv, 2019, preprint.
     DOI: 10.26434/chemrxiv.8326202.v1
   for GFN-FF:
   * S. Spicher and S. Grimme, Angew. Chem. Int. Ed., 2020, 59, 15665-15673.
     DOI: 10.1002/anie.202004239
   
   for ALPB and GBSA implicit solvation:
   * S. Ehlert, M. Stahn, S. Spicher, S. Grimme, J. Chem. Theory Comput.,
     2021, 17, 4250-4261. DOI: 10.1021/acs.jctc.1c00471
   
   for ddCOSMO and CPCM-X implicit solvation:
   * M. Stahn, S. Ehlert, S. Grimme, J. Phys. Chem. A,
     2023, XX, XXXX-XXXX. DOI: 10.1021/acs.jpca.3c04382
   
   for DFT-D4:
   * E. Caldeweyher, C. Bannwarth and S. Grimme, J. Chem. Phys., 2017,
     147, 034112. DOI: 10.1063/1.4993215
   * E. Caldeweyher, S. Ehlert, A. Hansen, H. Neugebauer, S. Spicher,
     C. Bannwarth and S. Grimme, J. Chem. Phys., 2019, 150, 154122.
     DOI: 10.1063/1.5090222
   * E. Caldeweyher, J.-M. Mewes, S. Ehlert and S. Grimme, Phys. Chem. Chem. Phys.
     2020, 22, 8499-8512. DOI: 10.1039/D0CP00502A
   
   for sTDA-xTB:
   * S. Grimme and C. Bannwarth, J. Chem. Phys., 2016, 145, 054103.
     DOI: 10.1063/1.4959605
   
   in the mass-spec context:
   * V. Asgeirsson, C. Bauer and S. Grimme, Chem. Sci., 2017, 8, 4879.
     DOI: 10.1039/c7sc00601b
   * J. Koopman and S. Grimme, ACS Omega 2019, 4, 12, 15120-15133.
     DOI: 10.1021/acsomega.9b02011
   
   for metadynamics refer to:
   * S. Grimme, J. Chem. Theory Comput., 2019, 155, 2847-2862
     DOI: 10.1021/acs.jctc.9b00143
   
   for SPH calculations refer to:
   * S. Spicher and S. Grimme, J. Chem. Theory Comput., 2021, 17, 1701-1714
     DOI: 10.1021/acs.jctc.0c01306
   
   for ONIOM refer to:
   * C. Plett, A. Katbashev, S. Ehlert, S. Grimme, M. Bursch,
     Phys. Chem. Chem. Phys., 2023, 25, 17860-17868. DOI: 10.1039/D3CP02178E
   
   for DIPRO refer to:
   * J. Kohn, N. Gildemeister, S. Grimme, D. Fazzi, A. Hansen,
     J. Chem. Phys., 2023, just accepted.
   
   for PTB refer to:
   * S. Grimme, M. Mueller, A. Hansen, J. Chem. Phys., 2023, 158, 124111.
     DOI: 10.1063/5.0137838
   
   with help from (in alphabetical order)
   P. Atkinson, C. Bannwarth, F. Bohle, G. Brandenburg, E. Caldeweyher
   M. Checinski, S. Dohm, S. Ehlert, S. Ehrlich, I. Gerasimov, C. Hölzer
   A. Katbashev, J. Kohn, J. Koopman, C. Lavigne, S. Lehtola, F. März, M. Müller,
   F. Musil, H. Neugebauer, J. Pisarek, C. Plett, P. Pracht, F. Pultar,
   J. Seibert, P. Shushkov, S. Spicher, M. Stahn, M. Steiner, T. Strunk,
   J. Stückrath, T. Rose, and J. Unsleber
   
 * started run on 2024/12/10 at 14:57:21.901     
   ID    Z sym.   atoms
    1    6 C      1-21, 25-44, 47, 52-75
    2    8 O      22, 23, 45, 46, 48-51
    3    5 B      24
    4    1 H      76-141

           -------------------------------------------------
          |                Calculation Setup                |
           -------------------------------------------------

          program call               : xtb Katherine2.mol --opt --gfn 2 --chrg -2 --uhf 1 --tight
          coordinate file            : Katherine2.mol
          omp threads                :                     8

########################################################################
[WARNING] Please study the warnings concerning your input carefully
-2- prog_main: Charge in sdf/mol input was overwritten
-1- prog_main_parseArguments: Unknown option '--tight' provided
########################################################################

           -------------------------------------------------
          |                 G F N 2 - x T B                 |
           -------------------------------------------------

        Reference                      10.1021/acs.jctc.8b01176
      * Hamiltonian:
        H0-scaling (s, p, d)           1.850000    2.230000    2.230000
        zeta-weighting                 0.500000
      * Dispersion:
        s8                             2.700000
        a1                             0.520000
        a2                             5.000000
        s9                             5.000000
      * Repulsion:
        kExp                           1.500000    1.000000
        rExp                           1.000000
      * Coulomb:
        alpha                          2.000000
        third order                    shell-resolved
        anisotropic                    true
        a3                             3.000000
        a5                             4.000000
        cn-shift                       1.200000
        cn-exp                         4.000000
        max-rad                        5.000000


          ...................................................
          :                      SETUP                      :
          :.................................................:
          :  # basis functions                 366          :
          :  # atomic orbitals                 366          :
          :  # shells                          216          :
          :  # electrons                       383          :
          :  max. iterations                   250          :
          :  Hamiltonian                  GFN2-xTB          :
          :  restarted?                      false          :
          :  GBSA solvation                  false          :
          :  PC potential                    false          :
          :  electronic temp.          300.0000000     K    :
          :  accuracy                    1.0000000          :
          :  -> integral cutoff          0.2500000E+02      :
          :  -> integral neglect         0.1000000E-07      :
          :  -> SCF convergence          0.1000000E-05 Eh   :
          :  -> wf. convergence          0.1000000E-03 e    :
          :  Broyden damping             0.4000000          :
          :  net charge                         -2          :
          :  unpaired electrons                  1          :
          ...................................................

 iter      E             dE          RMSdq      gap      omega  full diag
   1   -212.0015757 -0.212002E+03  0.412E+00    1.39       0.0  T
   2   -212.3607010 -0.359125E+00  0.237E+00    0.58       1.0  T
   3   -211.8725060  0.488195E+00  0.165E+00    0.11       1.0  T
   4   -211.8013759  0.711300E-01  0.144E+00    0.56       1.0  T
   5   -212.4261274 -0.624751E+00  0.609E-01    0.77       1.0  T
   6   -212.4995608 -0.734334E-01  0.210E-01    0.94       1.0  T
   7   -212.4890069  0.105539E-01  0.234E-01    0.93       1.0  T
   8   -212.4683916  0.206152E-01  0.345E-01    0.82       1.0  T
   9   -212.4910329 -0.226412E-01  0.209E-01    0.97       1.0  T
  10   -212.5002426 -0.920969E-02  0.119E-01    0.96       1.0  T
  11   -212.5056252 -0.538266E-02  0.163E-02    1.00       1.0  T
  12   -212.5056506 -0.253202E-04  0.107E-02    1.00       1.0  T
  13   -212.5056844 -0.338780E-04  0.218E-03    1.00       3.9  T
  14   -212.5056831  0.131530E-05  0.232E-03    1.00       3.6  T
  15   -212.5056843 -0.116909E-05  0.139E-03    1.00       6.1  T
  16   -212.5056849 -0.586563E-06  0.391E-04    1.00      21.5  T
  17   -212.5056849 -0.371939E-07  0.831E-05    1.00     101.3  T

   *** convergence criteria satisfied after 17 iterations ***

         #    Occupation            Energy/Eh            Energy/eV
      -------------------------------------------------------------
         1        2.0000           -0.5127746             -13.9533
       ...           ...                  ...                  ...
       186        2.0000           -0.1976486              -5.3783
       187        2.0000           -0.1939178              -5.2768
       188        2.0000           -0.1923879              -5.2351
       189        2.0000           -0.1898795              -5.1669
       190        2.0000           -0.1890734              -5.1449
       191        1.5813           -0.1509338              -4.1071
       192        1.4187           -0.1503102              -4.0901 (HOMO)
       193                         -0.1135217              -3.0891 (LUMO)
       194                         -0.1130707              -3.0768
       195                         -0.0765823              -2.0839
       196                         -0.0756039              -2.0573
       197                         -0.0577139              -1.5705
       ...                                ...                  ...
       366                          1.1930871              32.4656
      -------------------------------------------------------------
                  HL-Gap            0.0367885 Eh            1.0011 eV
             Fermi-level           -0.1412846 Eh           -3.8446 eV

 SCC (total)                   0 d,  0 h,  0 min,  1.170 sec
 SCC setup                      ...        0 min,  0.001 sec (  0.105%)
 Dispersion                     ...        0 min,  0.002 sec (  0.171%)
 classical contributions        ...        0 min,  0.001 sec (  0.048%)
 integral evaluation            ...        0 min,  0.008 sec (  0.685%)
 iterations                     ...        0 min,  1.085 sec ( 92.736%)
 molecular gradient             ...        0 min,  0.067 sec (  5.705%)
 printout                       ...        0 min,  0.006 sec (  0.548%)

         :::::::::::::::::::::::::::::::::::::::::::::::::::::
         ::                     SUMMARY                     ::
         :::::::::::::::::::::::::::::::::::::::::::::::::::::
         :: total energy            -209.223199223175 Eh    ::
         :: gradient norm              0.304385410974 Eh/a0 ::
         :: HOMO-LUMO gap              1.001066107712 eV    ::
         ::.................................................::
         :: SCC energy              -212.502765257480 Eh    ::
         :: -> isotropic ES            0.503453851032 Eh    ::
         :: -> anisotropic ES          0.028809083495 Eh    ::
         :: -> anisotropic XC          0.066078442959 Eh    ::
         :: -> dispersion             -0.209569353652 Eh    ::
         :: repulsion energy           3.279566034305 Eh    ::
         :: add. restraining           0.000000000000 Eh    ::
         :: total charge              -2.000000000400 e     ::
         :::::::::::::::::::::::::::::::::::::::::::::::::::::

      ----------------------------------------------------------- 
     |                   =====================                   |
     |                        A N C O P T                        |
     |                   =====================                   |
     |               Approximate Normal Coordinate               |
     |                Rational Function Optimizer                |
      ----------------------------------------------------------- 
      ----------------------------------------------------------- 
     |                   =====================                   |
     |                        A N C O P T                        |
     |                   =====================                   |
     |               Approximate Normal Coordinate               |
     |                Rational Function Optimizer                |
      ----------------------------------------------------------- 

          ...................................................
          :                      SETUP                      :
          :.................................................:
          :   optimization level            normal          :
          :   max. optcycles                   423          :
          :   ANC micro-cycles                  20          :
          :   degrees of freedom               417          :
          :.................................................:
          :   RF solver                   davidson          :
          :   write xtbopt.log                true          :
          :   linear?                        false          :
          :   energy convergence         0.5000000E-05 Eh   :
          :   grad. convergence          0.1000000E-02 Eh/α :
          :   maxmium RF displ.          1.0000000          :
          :   Hlow (freq-cutoff)         0.1000000E-01      :
          :   Hmax (freq-cutoff)         5.0000000          :
          :   S6 in model hess.         20.0000000          :
          ...................................................

generating ANC from exact Hessian ...
Using Lindh-Hessian (1995)
 Shifting diagonal of input Hessian by    9.9709797278753984E-003
 Lowest  eigenvalues of input Hessian
    0.000000    0.000000    0.000000    0.000000    0.000000    0.000000
    0.010000    0.010040    0.010062    0.010233    0.010271    0.010384
    0.010390    0.010428    0.010703    0.010728    0.010781    0.010975
 Highest eigenvalues
    2.018941    2.023626    2.188521    2.189969    2.214259    2.215411


........................................................................
.............................. CYCLE    1 ..............................
........................................................................

 iter      E             dE          RMSdq      gap      omega  full diag
   1   -212.5056849 -0.212506E+03  0.136E-04    1.00       0.0  T
   2   -212.5056838  0.114304E-05  0.176E-03    1.00       4.8  T
   3   -212.5056849 -0.114895E-05  0.419E-05    1.00     200.8  T
   4   -212.5056849  0.348621E-09  0.488E-05    1.00     172.4  T
   5   -212.5056849 -0.788845E-09  0.730E-06    1.00    1153.2  T
     SCC iter.                  ...        0 min,  0.357 sec
     gradient                   ...        0 min,  0.066 sec
 * total energy  :  -209.2231992 Eh     change       -0.2242700E-08 Eh
   gradient norm :     0.3043849 Eh/α   predicted     0.0000000E+00 (-100.00%)
   displ. norm   :     0.6449788 α      lambda       -0.1546479E+00
   maximum displ.:     0.1475705 α      in ANC's #154, #84, #296, ...

........................................................................
.............................. CYCLE    2 ..............................
........................................................................

 iter      E             dE          RMSdq      gap      omega  full diag
   1   -212.5364849 -0.212536E+03  0.249E-01    0.99       0.0  T
   2   -212.5265603  0.992453E-02  0.257E-01    1.09       1.0  T
   3   -212.4964489  0.301114E-01  0.367E-01    0.81       1.0  T
   4   -212.5349631 -0.385142E-01  0.137E-01    1.02       1.0  T
   5   -212.5280558  0.690729E-02  0.175E-01    1.02       1.0  T
   6   -212.5379895 -0.993372E-02  0.745E-02    1.05       1.0  T
   7   -212.5400936 -0.210410E-02  0.248E-02    1.07       1.0  T
   8   -212.5403156 -0.222002E-03  0.617E-03    1.07       1.4  T
   9   -212.5403271 -0.114358E-04  0.174E-03    1.07       4.9  T
  10   -212.5403270  0.437767E-07  0.152E-03    1.07       5.6  T
  11   -212.5403272 -0.207793E-06  0.117E-03    1.07       7.2  T
  12   -212.5403276 -0.363463E-06  0.714E-04    1.07      11.8  T
  13   -212.5403278 -0.212446E-06  0.462E-05    1.07     182.1  T
     SCC iter.                  ...        0 min,  1.041 sec
     gradient                   ...        0 min,  0.066 sec
 * total energy  :  -209.3393512 Eh     change       -0.1161519E+00 Eh
   gradient norm :     0.1478022 Eh/α   predicted    -0.1095318E+00 (  -5.70%)
   displ. norm   :     0.6251624 α      lambda       -0.7236922E-01
   maximum displ.:     0.1828413 α      in ANC's #146, #84, #111, ...

........................................................................
.............................. CYCLE    3 ..............................
........................................................................

 iter      E             dE          RMSdq      gap      omega  full diag
   1   -212.5373280 -0.212537E+03  0.182E-01    1.10       0.0  T
   2   -212.5370223  0.305655E-03  0.151E-01    1.18       1.0  T
   3   -212.5143977  0.226246E-01  0.250E-01    1.02       1.0  T
   4   -212.5140145  0.383214E-03  0.243E-01    1.00       1.0  T
   5   -212.5389540 -0.249394E-01  0.283E-02    1.15       1.0  T
   6   -212.5390491 -0.951308E-04  0.115E-02    1.15       1.0  T
   7   -212.5390832 -0.341066E-04  0.435E-03    1.15       1.9  T
   8   -212.5390865 -0.327356E-05  0.190E-03    1.15       4.4  T
   9   -212.5390874 -0.947751E-06  0.675E-04    1.15      12.5  T
  10   -212.5390874 -0.257711E-07  0.368E-04    1.15      22.9  T
     SCC iter.                  ...        0 min,  0.692 sec
     gradient                   ...        0 min,  0.059 sec
 * total energy  :  -209.3914672 Eh     change       -0.5211608E-01 Eh
   gradient norm :     0.0543987 Eh/α   predicted    -0.5032658E-01 (  -3.43%)
   displ. norm   :     0.6887007 α      lambda       -0.3255389E-01
   maximum displ.:     0.2404767 α      in ANC's #84, #18, #70, ...

........................................................................
.............................. CYCLE    4 ..............................
........................................................................

 iter      E             dE          RMSdq      gap      omega  full diag
   1   -212.5493827 -0.212549E+03  0.142E-01    1.17       0.0  T
   2   -212.5493482  0.344196E-04  0.890E-02    1.19       1.0  T
   3   -212.5262985  0.230497E-01  0.227E-01    1.04       1.0  T
   4   -212.5404702 -0.141717E-01  0.144E-01    1.12       1.0  T
   5   -212.5491467 -0.867653E-02  0.321E-02    1.17       1.0  T
   6   -212.5495744 -0.427642E-03  0.429E-03    1.18       2.0  T
   7   -212.5495705  0.385647E-05  0.369E-03    1.18       2.3  T
   8   -212.5495746 -0.408078E-05  0.199E-03    1.18       4.2  T
   9   -212.5495764 -0.174870E-05  0.327E-04    1.18      25.8  T
  10   -212.5495764 -0.146236E-07  0.167E-04    1.18      50.5  T
  11   -212.5495764  0.124517E-07  0.186E-04    1.18      45.3  T
     SCC iter.                  ...        0 min,  0.767 sec
     gradient                   ...        0 min,  0.062 sec
 * total energy  :  -209.4170964 Eh     change       -0.2562916E-01 Eh
   gradient norm :     0.0344381 Eh/α   predicted    -0.2399726E-01 (  -6.37%)
   displ. norm   :     0.7245163 α      lambda       -0.2006171E-01
   maximum displ.:     0.2652333 α      in ANC's #18, #84, #70, ...

........................................................................
.............................. CYCLE    5 ..............................
........................................................................

 iter      E             dE          RMSdq      gap      omega  full diag
   1   -212.5586500 -0.212559E+03  0.129E-01    1.19       0.0  T
   2   -212.5580547  0.595253E-03  0.846E-02    1.18       1.0  T
   3   -212.5260957  0.319590E-01  0.274E-01    0.95       1.0  T
   4   -212.5566574 -0.305617E-01  0.680E-02    1.15       1.0  T
   5   -212.5585621 -0.190473E-02  0.191E-02    1.18       1.0  T
   6   -212.5587066 -0.144457E-03  0.623E-03    1.19       1.4  T
   7   -212.5587173 -0.107122E-04  0.237E-03    1.19       3.5  T
   8   -212.5587185 -0.124120E-05  0.137E-03    1.19       6.1  T
   9   -212.5587192 -0.686295E-06  0.268E-04    1.19      31.4  T
  10   -212.5587191  0.881008E-07  0.468E-04    1.19      18.0  T
     SCC iter.                  ...        0 min,  0.645 sec
     gradient                   ...        0 min,  0.074 sec
 * total energy  :  -209.4334595 Eh     change       -0.1636307E-01 Eh
   gradient norm :     0.0263177 Eh/α   predicted    -0.1529629E-01 (  -6.52%)
   displ. norm   :     0.7445607 α      lambda       -0.1352603E-01
   maximum displ.:     0.3143135 α      in ANC's #18, #29, #70, ...

........................................................................
.............................. CYCLE    6 ..............................
........................................................................

 iter      E             dE          RMSdq      gap      omega  full diag
   1   -212.5656701 -0.212566E+03  0.118E-01    1.18       0.0  T
   2   -212.5650186  0.651487E-03  0.792E-02    1.17       1.0  T
   3   -212.5339766  0.310420E-01  0.270E-01    0.96       1.0  T
   4   -212.5640645 -0.300878E-01  0.616E-02    1.16       1.0  T
   5   -212.5656938 -0.162934E-02  0.874E-03    1.18       1.0  T
   6   -212.5657202 -0.263416E-04  0.294E-03    1.18       2.9  T
   7   -212.5657215 -0.132159E-05  0.110E-03    1.18       7.6  T
   8   -212.5657216 -0.992574E-07  0.670E-04    1.18      12.6  T
   9   -212.5657217 -0.109521E-06  0.240E-04    1.18      35.0  T
     SCC iter.                  ...        0 min,  0.536 sec
     gradient                   ...        0 min,  0.062 sec
 * total energy  :  -209.4446182 Eh     change       -0.1115875E-01 Eh
   gradient norm :     0.0176423 Eh/α   predicted    -0.1051223E-01 (  -5.79%)
   displ. norm   :     0.7527408 α      lambda       -0.9357234E-02
   maximum displ.:     0.3473207 α      in ANC's #18, #29, #70, ...

........................................................................
.............................. CYCLE    7 ..............................
........................................................................

 iter      E             dE          RMSdq      gap      omega  full diag
   1   -212.5719588 -0.212572E+03  0.104E-01    1.17       0.0  T
   2   -212.5712044  0.754333E-03  0.737E-02    1.16       1.0  T
   3   -212.5417660  0.294384E-01  0.263E-01    0.98       1.0  T
   4   -212.5708386 -0.290726E-01  0.526E-02    1.15       1.0  T
   5   -212.5720012 -0.116259E-02  0.494E-03    1.17       1.7  T
   6   -212.5719983  0.292870E-05  0.439E-03    1.17       1.9  T
   7   -212.5720033 -0.498674E-05  0.283E-03    1.17       3.0  T
   8   -212.5720060 -0.273231E-05  0.131E-03    1.17       6.4  T
   9   -212.5720066 -0.644309E-06  0.521E-04    1.17      16.2  T
  10   -212.5720067 -0.857314E-07  0.193E-04    1.17      43.6  T
     SCC iter.                  ...        0 min,  0.633 sec
     gradient                   ...        0 min,  0.062 sec
 * total energy  :  -209.4524145 Eh     change       -0.7796299E-02 Eh
   gradient norm :     0.0128778 Eh/α   predicted    -0.7329608E-02 (  -5.99%)
   displ. norm   :     0.7563022 α      lambda       -0.6723303E-02
   maximum displ.:     0.3659680 α      in ANC's #18, #29, #28, ...

........................................................................
.............................. CYCLE    8 ..............................
........................................................................

 iter      E             dE          RMSdq      gap      omega  full diag
   1   -212.5775099 -0.212578E+03  0.917E-02    1.17       0.0  T
   2   -212.5768818  0.628118E-03  0.654E-02    1.16       1.0  T
   3   -212.5494872  0.273946E-01  0.252E-01    1.00       1.0  T
   4   -212.5771404 -0.276532E-01  0.335E-02    1.16       1.0  T
   5   -212.5775159 -0.375520E-03  0.948E-03    1.17       1.0  T
   6   -212.5775306 -0.146691E-04  0.697E-03    1.17       1.2  T
   7   -212.5775517 -0.210776E-04  0.201E-03    1.17       4.2  T
   8   -212.5775531 -0.144966E-05  0.624E-04    1.17      13.5  T
   9   -212.5775532 -0.109178E-06  0.191E-04    1.17      44.1  T
  10   -212.5775532  0.111346E-07  0.206E-04    1.17      40.8  T
     SCC iter.                  ...        0 min,  0.605 sec
     gradient                   ...        0 min,  0.068 sec
 * total energy  :  -209.4580438 Eh     change       -0.5629234E-02 Eh
   gradient norm :     0.0113851 Eh/α   predicted    -0.5284515E-02 (  -6.12%)
   displ. norm   :     0.7495199 α      lambda       -0.4896360E-02
   maximum displ.:     0.3657373 α      in ANC's #18, #29, #4, ...

........................................................................
.............................. CYCLE    9 ..............................
........................................................................

 iter      E             dE          RMSdq      gap      omega  full diag
   1   -212.5825842 -0.212583E+03  0.839E-02    1.16       0.0  T
   2   -212.5821262  0.458000E-03  0.582E-02    1.16       1.0  T
   3   -212.5560144  0.261118E-01  0.244E-01    1.01       1.0  T
   4   -212.5824026 -0.263881E-01  0.251E-02    1.16       1.0  T
   5   -212.5825780 -0.175397E-03  0.936E-03    1.16       1.0  T
   6   -212.5826018 -0.237902E-04  0.546E-03    1.16       1.5  T
   7   -212.5826152 -0.134408E-04  0.100E-03    1.16       8.4  T
   8   -212.5826153 -0.500898E-07  0.742E-04    1.16      11.3  T
   9   -212.5826154 -0.191346E-06  0.238E-04    1.16      35.3  T
     SCC iter.                  ...        0 min,  0.594 sec
     gradient                   ...        0 min,  0.068 sec
 * total energy  :  -209.4621043 Eh     change       -0.4060550E-02 Eh
   gradient norm :     0.0099878 Eh/α   predicted    -0.3823537E-02 (  -5.84%)
   displ. norm   :     0.7246870 α      lambda       -0.3441306E-02
   maximum displ.:     0.3438532 α      in ANC's #18, #29, #4, ...

........................................................................
.............................. CYCLE   10 ..............................
........................................................................

 iter      E             dE          RMSdq      gap      omega  full diag
   1   -212.5859990 -0.212586E+03  0.756E-02    1.16       0.0  T
   2   -212.5858062  0.192796E-03  0.489E-02    1.16       1.0  T
   3   -212.5630182  0.227880E-01  0.226E-01    1.04       1.0  T
   4   -212.5859322 -0.229139E-01  0.173E-02    1.16       1.0  T
   5   -212.5859710 -0.388493E-04  0.108E-02    1.16       1.0  T
   6   -212.5860209 -0.499118E-04  0.227E-03    1.16       3.7  T
   7   -212.5860228 -0.185513E-05  0.654E-04    1.16      12.9  T
   8   -212.5860226  0.198096E-06  0.831E-04    1.16      10.1  T
   9   -212.5860228 -0.275395E-06  0.268E-04    1.16      31.5  T
     SCC iter.                  ...        0 min,  0.587 sec
     gradient                   ...        0 min,  0.064 sec
 * total energy  :  -209.4648962 Eh     change       -0.2791845E-02 Eh
   gradient norm :     0.0082434 Eh/α   predicted    -0.2624291E-02 (  -6.00%)
   displ. norm   :     0.6838827 α      lambda       -0.2316621E-02
   maximum displ.:     0.3009734 α      in ANC's #18, #4, #29, ...

........................................................................
.............................. CYCLE   11 ..............................
........................................................................

 iter      E             dE          RMSdq      gap      omega  full diag
   1   -212.5883581 -0.212588E+03  0.704E-02    1.16       0.0  T
   2   -212.5881083  0.249840E-03  0.470E-02    1.16       1.0  T
   3   -212.5649769  0.231313E-01  0.227E-01    1.04       1.0  T
   4   -212.5883160 -0.233390E-01  0.137E-02    1.16       1.0  T
   5   -212.5883484 -0.324579E-04  0.697E-03    1.16       1.2  T
   6   -212.5883687 -0.202438E-04  0.184E-03    1.16       4.6  T
   7   -212.5883700 -0.137740E-05  0.451E-04    1.16      18.7  T
   8   -212.5883699  0.173705E-06  0.649E-04    1.16      13.0  T
   9   -212.5883700 -0.164197E-06  0.235E-04    1.16      35.9  T
     SCC iter.                  ...        0 min,  0.637 sec
     gradient                   ...        0 min,  0.058 sec
 * total energy  :  -209.4667468 Eh     change       -0.1850633E-02 Eh
   gradient norm :     0.0078839 Eh/α   predicted    -0.1700048E-02 (  -8.14%)
   displ. norm   :     0.6465114 α      lambda       -0.1644656E-02
   maximum displ.:     0.2729616 α      in ANC's #4, #18, #29, ...

........................................................................
.............................. CYCLE   12 ..............................
........................................................................

 iter      E             dE          RMSdq      gap      omega  full diag
   1   -212.5897188 -0.212590E+03  0.597E-02    1.16       0.0  T
   2   -212.5896436  0.751734E-04  0.375E-02    1.16       1.0  T
   3   -212.5736422  0.160014E-01  0.187E-01    1.09       1.0  T
   4   -212.5895180 -0.158758E-01  0.226E-02    1.16       1.0  T
   5   -212.5897187 -0.200708E-03  0.546E-03    1.16       1.5  T
   6   -212.5897314 -0.126280E-04  0.101E-03    1.16       8.3  T
   7   -212.5897316 -0.246043E-06  0.466E-04    1.16      18.1  T
   8   -212.5897316 -0.150758E-07  0.315E-04    1.16      26.7  T
     SCC iter.                  ...        0 min,  0.463 sec
     gradient                   ...        0 min,  0.063 sec
 * total energy  :  -209.4680781 Eh     change       -0.1331349E-02 Eh
   gradient norm :     0.0085991 Eh/α   predicted    -0.1166043E-02 ( -12.42%)
   displ. norm   :     0.6382873 α      lambda       -0.1378440E-02
   maximum displ.:     0.3127546 α      in ANC's #4, #18, #29, ...

........................................................................
.............................. CYCLE   13 ..............................
........................................................................

 iter      E             dE          RMSdq      gap      omega  full diag
   1   -212.5904587 -0.212590E+03  0.560E-02    1.16       0.0  T
   2   -212.5901741  0.284600E-03  0.408E-02    1.16       1.0  T
   3   -212.5710672  0.191069E-01  0.206E-01    1.07       1.0  T
   4   -212.5903987 -0.193315E-01  0.133E-02    1.16       1.0  T
   5   -212.5904579 -0.591584E-04  0.425E-03    1.16       2.0  T
   6   -212.5904652 -0.733333E-05  0.129E-03    1.16       6.5  T
   7   -212.5904658 -0.631093E-06  0.550E-04    1.16      15.3  T
   8   -212.5904658 -0.328981E-07  0.372E-04    1.16      22.7  T
     SCC iter.                  ...        0 min,  0.683 sec
     gradient                   ...        0 min,  0.064 sec
 * total energy  :  -209.4692353 Eh     change       -0.1157126E-02 Eh
   gradient norm :     0.0075007 Eh/α   predicted    -0.9700205E-03 ( -16.17%)
   displ. norm   :     0.6546174 α      lambda       -0.1324047E-02
   maximum displ.:     0.3561485 α      in ANC's #4, #7, #8, ...

........................................................................
.............................. CYCLE   14 ..............................
........................................................................

 iter      E             dE          RMSdq      gap      omega  full diag
   1   -212.5909429 -0.212591E+03  0.506E-02    1.16       0.0  T
   2   -212.5908891  0.538306E-04  0.320E-02    1.16       1.0  T
   3   -212.5760725  0.148166E-01  0.179E-01    1.09       1.0  T
   4   -212.5909371 -0.148646E-01  0.793E-03    1.16       1.1  T
   5   -212.5909491 -0.120074E-04  0.231E-03    1.16       3.6  T
   6   -212.5909506 -0.144734E-05  0.849E-04    1.16       9.9  T
   7   -212.5909507 -0.125669E-06  0.454E-04    1.16      18.6  T
   8   -212.5909507 -0.208944E-07  0.234E-04    1.16      36.0  T
     SCC iter.                  ...        0 min,  0.562 sec
     gradient                   ...        0 min,  0.068 sec
 * total energy  :  -209.4703638 Eh     change       -0.1128515E-02 Eh
   gradient norm :     0.0071348 Eh/α   predicted    -0.9457172E-03 ( -16.20%)
   displ. norm   :     0.6652489 α      lambda       -0.1219546E-02
   maximum displ.:     0.3865135 α      in ANC's #4, #7, #8, ...

........................................................................
.............................. CYCLE   15 ..............................
........................................................................

 iter      E             dE          RMSdq      gap      omega  full diag
   1   -212.5899667 -0.212590E+03  0.472E-02    1.16       0.0  T
   2   -212.5898761  0.905692E-04  0.311E-02    1.16       1.0  T
   3   -212.5748282  0.150479E-01  0.181E-01    1.09       1.0  T
   4   -212.5899553 -0.151271E-01  0.835E-03    1.16       1.0  T
   5   -212.5899733 -0.179653E-04  0.302E-03    1.16       2.8  T
   6   -212.5899759 -0.258974E-05  0.113E-03    1.16       7.5  T
   7   -212.5899762 -0.385696E-06  0.459E-04    1.16      18.3  T
   8   -212.5899763 -0.121278E-07  0.241E-04    1.16      35.0  T
     SCC iter.                  ...        0 min,  0.550 sec
     gradient                   ...        0 min,  0.063 sec
 * total energy  :  -209.4713752 Eh     change       -0.1011457E-02 Eh
   gradient norm :     0.0063324 Eh/α   predicted    -0.8796327E-03 ( -13.03%)
   displ. norm   :     0.6232506 α      lambda       -0.9367361E-03
   maximum displ.:     0.3785920 α      in ANC's #4, #7, #8, ...

........................................................................
.............................. CYCLE   16 ..............................
........................................................................

 iter      E             dE          RMSdq      gap      omega  full diag
   1   -212.5896495 -0.212590E+03  0.399E-02    1.16       0.0  T
   2   -212.5894394  0.210172E-03  0.321E-02    1.17       1.0  T
   3   -212.5773262  0.121132E-01  0.163E-01    1.10       1.0  T
   4   -212.5896483 -0.123222E-01  0.596E-03    1.16       1.4  T
   5   -212.5896554 -0.706596E-05  0.179E-03    1.16       4.7  T
   6   -212.5896561 -0.742372E-06  0.748E-04    1.16      11.3  T
   7   -212.5896562 -0.954375E-07  0.403E-04    1.16      20.9  T
     SCC iter.                  ...        0 min,  0.391 sec
     gradient                   ...        0 min,  0.064 sec
 * total energy  :  -209.4721329 Eh     change       -0.7576106E-03 Eh
   gradient norm :     0.0071683 Eh/α   predicted    -0.6503047E-03 ( -14.16%)
   displ. norm   :     0.5402269 α      lambda       -0.6834250E-03
   maximum displ.:     0.3400232 α      in ANC's #4, #8, #7, ...

........................................................................
.............................. CYCLE   17 ..............................
........................................................................

 iter      E             dE          RMSdq      gap      omega  full diag
   1   -212.5895718 -0.212590E+03  0.317E-02    1.17       0.0  T
   2   -212.5876210  0.195075E-02  0.672E-02    1.15       1.0  T
   3   -212.5879303 -0.309288E-03  0.623E-02    1.16       1.0  T
   4   -212.5895798 -0.164945E-02  0.884E-03    1.16       1.0  T
   5   -212.5895973 -0.175264E-04  0.218E-03    1.16       3.9  T
   6   -212.5895985 -0.119478E-05  0.583E-04    1.16      14.5  T
   7   -212.5895985 -0.248156E-07  0.371E-04    1.16      22.7  T
   8   -212.5895985 -0.192877E-07  0.152E-04    1.16      55.4  T
     SCC iter.                  ...        0 min,  0.472 sec
     gradient                   ...        0 min,  0.067 sec
 * total energy  :  -209.4726941 Eh     change       -0.5612171E-03 Eh
   gradient norm :     0.0061938 Eh/α   predicted    -0.4414441E-03 ( -21.34%)
   displ. norm   :     0.4951466 α      lambda       -0.5791340E-03
   maximum displ.:     0.3176229 α      in ANC's #4, #8, #7, ...

........................................................................
.............................. CYCLE   18 ..............................
........................................................................

 iter      E             dE          RMSdq      gap      omega  full diag
   1   -212.5921574 -0.212592E+03  0.279E-02    1.16       0.0  T
   2   -212.5920971  0.603007E-04  0.199E-02    1.16       1.0  T
   3   -212.5850266  0.707050E-02  0.124E-01    1.13       1.0  T
   4   -212.5921511 -0.712457E-02  0.576E-03    1.16       1.5  T
   5   -212.5921590 -0.781581E-05  0.161E-03    1.17       5.2  T
   6   -212.5921598 -0.883511E-06  0.586E-04    1.16      14.4  T
   7   -212.5921599 -0.785356E-07  0.258E-04    1.16      32.6  T
     SCC iter.                  ...        0 min,  0.546 sec
     gradient                   ...        0 min,  0.061 sec
 * total energy  :  -209.4731779 Eh     change       -0.4838769E-03 Eh
   gradient norm :     0.0057720 Eh/α   predicted    -0.3605645E-03 ( -25.48%)
   displ. norm   :     0.5114437 α      lambda       -0.5436616E-03
   maximum displ.:     0.3279754 α      in ANC's #4, #3, #8, ...

........................................................................
.............................. CYCLE   19 ..............................
........................................................................

 iter      E             dE          RMSdq      gap      omega  full diag
   1   -212.5938254 -0.212594E+03  0.303E-02    1.17       0.0  T
   2   -212.5898217  0.400371E-02  0.943E-02    1.14       1.0  T
   3   -212.5931568 -0.333512E-02  0.424E-02    1.17       1.0  T
   4   -212.5938561 -0.699301E-03  0.730E-03    1.16       1.2  T
   5   -212.5938685 -0.123964E-04  0.164E-03    1.17       5.1  T
   6   -212.5938691 -0.524852E-06  0.558E-04    1.16      15.1  T
   7   -212.5938691 -0.659133E-07  0.261E-04    1.17      32.3  T
     SCC iter.                  ...        0 min,  0.515 sec
     gradient                   ...        0 min,  0.063 sec
 * total energy  :  -209.4736437 Eh     change       -0.4657844E-03 Eh
   gradient norm :     0.0057493 Eh/α   predicted    -0.3429355E-03 ( -26.37%)
   displ. norm   :     0.5507978 α      lambda       -0.5386858E-03
   maximum displ.:     0.3508050 α      in ANC's #4, #3, #8, ...

........................................................................
.............................. CYCLE   20 ..............................
........................................................................

 iter      E             dE          RMSdq      gap      omega  full diag
   1   -212.5952121 -0.212595E+03  0.331E-02    1.17       0.0  T
   2   -212.5940394  0.117276E-02  0.534E-02    1.15       1.0  T
   3   -212.5920945  0.194481E-02  0.840E-02    1.15       1.0  T
   4   -212.5952186 -0.312401E-02  0.472E-03    1.16       1.8  T
   5   -212.5952239 -0.537530E-05  0.111E-03    1.17       7.6  T
   6   -212.5952242 -0.283777E-06  0.501E-04    1.17      16.8  T
   7   -212.5952242 -0.357998E-07  0.224E-04    1.17      37.6  T
     SCC iter.                  ...        0 min,  0.429 sec
     gradient                   ...        0 min,  0.065 sec
 * total energy  :  -209.4741127 Eh     change       -0.4689472E-03 Eh
   gradient norm :     0.0055997 Eh/α   predicted    -0.3510567E-03 ( -25.14%)
   displ. norm   :     0.5870551 α      lambda       -0.5330067E-03
   maximum displ.:     0.3730957 α      in ANC's #4, #3, #8, ...
 * RMSD in coord.:     0.8290265 α      energy gain  -0.2509135E+00 Eh

generating ANC from exact Hessian ...
Using Lindh-Hessian (1995)
 Shifting diagonal of input Hessian by    1.0100284987264582E-002
 Lowest  eigenvalues of input Hessian
    0.010000    0.000000    0.000000    0.000000    0.000000    0.000000
    0.000000    0.010120    0.010135    0.010186    0.010207    0.010364
    0.010429    0.010478    0.010501    0.010591    0.010656    0.010679
 Highest eigenvalues
    2.079514    2.080034    2.199669    2.203011    2.219605    2.222318


........................................................................
.............................. CYCLE   21 ..............................
........................................................................

 iter      E             dE          RMSdq      gap      omega  full diag
   1   -212.5958315 -0.212596E+03  0.356E-02    1.17       0.0  T
   2   -212.5944933  0.133821E-02  0.573E-02    1.15       1.0  T
   3   -212.5923693  0.212401E-02  0.886E-02    1.15       1.0  T
   4   -212.5958404 -0.347111E-02  0.448E-03    1.16       1.9  T
   5   -212.5958453 -0.487443E-05  0.120E-03    1.17       7.0  T
   6   -212.5958456 -0.336124E-06  0.483E-04    1.17      17.4  T
   7   -212.5958456 -0.147347E-07  0.255E-04    1.17      33.1  T
     SCC iter.                  ...        0 min,  0.652 sec
     gradient                   ...        0 min,  0.070 sec
 * total energy  :  -209.4745732 Eh     change       -0.4604919E-03 Eh
   gradient norm :     0.0049498 Eh/α   predicted     0.0000000E+00 (-100.00%)
   displ. norm   :     0.0970084 α      lambda       -0.1536090E-03
   maximum displ.:     0.0429595 α      in ANC's #4, #7, #10, ...

........................................................................
.............................. CYCLE   22 ..............................
........................................................................

 iter      E             dE          RMSdq      gap      omega  full diag
   1   -212.5959511 -0.212596E+03  0.112E-02    1.16       0.0  T
   2   -212.5949931  0.957938E-03  0.460E-02    1.16       1.0  T
   3   -212.5959346 -0.941487E-03  0.932E-03    1.16       1.0  T
   4   -212.5959588 -0.242202E-04  0.279E-03    1.17       3.0  T
   5   -212.5959604 -0.161338E-05  0.589E-04    1.17      14.3  T
   6   -212.5959605 -0.737246E-07  0.206E-04    1.17      41.0  T
   7   -212.5959605 -0.233385E-08  0.129E-04    1.17      65.2  T
     SCC iter.                  ...        0 min,  0.542 sec
     gradient                   ...        0 min,  0.063 sec
 * total energy  :  -209.4747074 Eh     change       -0.1342485E-03 Eh
   gradient norm :     0.0028472 Eh/α   predicted    -0.7900742E-04 ( -41.15%)
   displ. norm   :     0.3449714 α      lambda       -0.4046481E-03
   maximum displ.:     0.1561748 α      in ANC's #4, #7, #13, ...

........................................................................
.............................. CYCLE   23 ..............................
........................................................................

 iter      E             dE          RMSdq      gap      omega  full diag
   1   -212.5959933 -0.212596E+03  0.309E-02    1.16       0.0  T
   2   -212.5903944  0.559891E-02  0.112E-01    1.14       1.0  T
   3   -212.5957380 -0.534359E-02  0.304E-02    1.16       1.0  T
   4   -212.5960397 -0.301685E-03  0.765E-03    1.16       1.1  T
   5   -212.5960549 -0.152237E-04  0.164E-03    1.17       5.1  T
   6   -212.5960555 -0.622026E-06  0.572E-04    1.17      14.7  T
   7   -212.5960555 -0.367283E-07  0.320E-04    1.17      26.3  T
     SCC iter.                  ...        0 min,  0.474 sec
     gradient                   ...        0 min,  0.065 sec
 * total energy  :  -209.4749769 Eh     change       -0.2694755E-03 Eh
   gradient norm :     0.0049839 Eh/α   predicted    -0.2264133E-03 ( -15.98%)
   displ. norm   :     0.2665005 α      lambda       -0.1841616E-03
   maximum displ.:     0.1318151 α      in ANC's #4, #7, #13, ...

........................................................................
.............................. CYCLE   24 ..............................
........................................................................

 iter      E             dE          RMSdq      gap      omega  full diag
   1   -212.5957087 -0.212596E+03  0.188E-02    1.16       0.0  T
   2   -212.5944830  0.122560E-02  0.526E-02    1.16       1.0  T
   3   -212.5954479 -0.964821E-03  0.261E-02    1.16       1.0  T
   4   -212.5957168 -0.268929E-03  0.366E-03    1.17       2.3  T
   5   -212.5957206 -0.378079E-05  0.662E-04    1.17      12.7  T
   6   -212.5957207 -0.822902E-07  0.281E-04    1.17      29.9  T
   7   -212.5957207 -0.262455E-08  0.157E-04    1.17      53.8  T
     SCC iter.                  ...        0 min,  0.555 sec
     gradient                   ...        0 min,  0.063 sec
 * total energy  :  -209.4751254 Eh     change       -0.1485000E-03 Eh
   gradient norm :     0.0059071 Eh/α   predicted    -0.9862268E-04 ( -33.59%)
   displ. norm   :     0.3714792 α      lambda       -0.2639730E-03
   maximum displ.:     0.1867069 α      in ANC's #4, #7, #1, ...

........................................................................
.............................. CYCLE   25 ..............................
........................................................................

 iter      E             dE          RMSdq      gap      omega  full diag
   1   -212.5962093 -0.212596E+03  0.225E-02    1.16       0.0  T
   2   -212.5957056  0.503721E-03  0.355E-02    1.17       1.0  T
   3   -212.5948120  0.893556E-03  0.561E-02    1.15       1.0  T
   4   -212.5962113 -0.139932E-02  0.355E-03    1.17       2.4  T
   5   -212.5962146 -0.329689E-05  0.854E-04    1.17       9.9  T
   6   -212.5962148 -0.187767E-06  0.308E-04    1.17      27.3  T
   7   -212.5962148 -0.124285E-08  0.187E-04    1.17      45.1  T
     SCC iter.                  ...        0 min,  0.369 sec
     gradient                   ...        0 min,  0.059 sec
 * total energy  :  -209.4753453 Eh     change       -0.2198787E-03 Eh
   gradient norm :     0.0045481 Eh/α   predicted    -0.1502095E-03 ( -31.69%)
   displ. norm   :     0.4738753 α      lambda       -0.3024924E-03
   maximum displ.:     0.2458716 α      in ANC's #4, #7, #1, ...

........................................................................
.............................. CYCLE   26 ..............................
........................................................................

 iter      E             dE          RMSdq      gap      omega  full diag
   1   -212.5968915 -0.212597E+03  0.273E-02    1.17       0.0  T
   2   -212.5966567  0.234885E-03  0.277E-02    1.17       1.0  T
   3   -212.5922062  0.445041E-02  0.101E-01    1.14       1.0  T
   4   -212.5968909 -0.468470E-02  0.436E-03    1.17       1.9  T
   5   -212.5968949 -0.391677E-05  0.134E-03    1.17       6.3  T
   6   -212.5968955 -0.608529E-06  0.386E-04    1.17      21.8  T
   7   -212.5968955 -0.893675E-08  0.224E-04    1.17      37.6  T
     SCC iter.                  ...        0 min,  0.403 sec
     gradient                   ...        0 min,  0.062 sec
 * total energy  :  -209.4755901 Eh     change       -0.2448381E-03 Eh
   gradient norm :     0.0034486 Eh/α   predicted    -0.1852109E-03 ( -24.35%)
   displ. norm   :     0.5037225 α      lambda       -0.2533663E-03
   maximum displ.:     0.2669069 α      in ANC's #4, #7, #1, ...

........................................................................
.............................. CYCLE   27 ..............................
........................................................................

 iter      E             dE          RMSdq      gap      omega  full diag
   1   -212.5971712 -0.212597E+03  0.278E-02    1.17       0.0  T
   2   -212.5969834  0.187787E-03  0.260E-02    1.17       1.0  T
   3   -212.5916189  0.536452E-02  0.110E-01    1.13       1.0  T
   4   -212.5971689 -0.554999E-02  0.470E-03    1.17       1.8  T
   5   -212.5971741 -0.528102E-05  0.123E-03    1.17       6.8  T
   6   -212.5971746 -0.478073E-06  0.402E-04    1.17      21.0  T
   7   -212.5971746 -0.186938E-07  0.202E-04    1.17      41.7  T
     SCC iter.                  ...        0 min,  0.559 sec
     gradient                   ...        0 min,  0.066 sec
 * total energy  :  -209.4757992 Eh     change       -0.2091031E-03 Eh
   gradient norm :     0.0035815 Eh/α   predicted    -0.1588272E-03 ( -24.04%)
   displ. norm   :     0.4870609 α      lambda       -0.2212551E-03
   maximum displ.:     0.2663678 α      in ANC's #4, #7, #1, ...

........................................................................
.............................. CYCLE   28 ..............................
........................................................................

 iter      E             dE          RMSdq      gap      omega  full diag
   1   -212.5979874 -0.212598E+03  0.274E-02    1.17       0.0  T
   2   -212.5978482  0.139161E-03  0.237E-02    1.17       1.0  T
   3   -212.5919701  0.587810E-02  0.114E-01    1.13       1.0  T
   4   -212.5979821 -0.601199E-02  0.561E-03    1.17       1.5  T
   5   -212.5979904 -0.828557E-05  0.108E-03    1.17       7.8  T
   6   -212.5979907 -0.299736E-06  0.414E-04    1.17      20.3  T
   7   -212.5979907 -0.314168E-07  0.186E-04    1.17      45.2  T
     SCC iter.                  ...        0 min,  0.539 sec
     gradient                   ...        0 min,  0.064 sec
 * total energy  :  -209.4759857 Eh     change       -0.1864638E-03 Eh
   gradient norm :     0.0040150 Eh/α   predicted    -0.1368928E-03 ( -26.58%)
   displ. norm   :     0.4847685 α      lambda       -0.2108790E-03
   maximum displ.:     0.2708940 α      in ANC's #4, #7, #1, ...

........................................................................
.............................. CYCLE   29 ..............................
........................................................................

 iter      E             dE          RMSdq      gap      omega  full diag
   1   -212.5984345 -0.212598E+03  0.274E-02    1.17       0.0  T
   2   -212.5983729  0.615877E-04  0.199E-02    1.17       1.0  T
   3   -212.5913210  0.705192E-02  0.124E-01    1.13       1.0  T
   4   -212.5984255 -0.710449E-02  0.607E-03    1.17       1.4  T
   5   -212.5984368 -0.112430E-04  0.953E-04    1.17       8.8  T
   6   -212.5984370 -0.205029E-06  0.403E-04    1.17      20.9  T
   7   -212.5984370 -0.308605E-07  0.181E-04    1.17      46.6  T
     SCC iter.                  ...        0 min,  0.483 sec
     gradient                   ...        0 min,  0.064 sec
 * total energy  :  -209.4761675 Eh     change       -0.1818366E-03 Eh
   gradient norm :     0.0035965 Eh/α   predicted    -0.1302185E-03 ( -28.39%)
   displ. norm   :     0.4923279 α      lambda       -0.2182583E-03
   maximum displ.:     0.2834382 α      in ANC's #4, #7, #1, ...

........................................................................
.............................. CYCLE   30 ..............................
........................................................................

 iter      E             dE          RMSdq      gap      omega  full diag
   1   -212.5991392 -0.212599E+03  0.299E-02    1.17       0.0  T
   2   -212.5991400 -0.789856E-06  0.176E-02    1.17       1.0  T
   3   -212.5990986  0.413397E-04  0.106E-02    1.16       1.0  T
   4   -212.5986402  0.458410E-03  0.327E-02    1.16       1.0  T
   5   -212.5991412 -0.500974E-03  0.838E-04    1.17      10.0  T
   6   -212.5991413 -0.120691E-06  0.359E-04    1.17      23.5  T
   7   -212.5991413 -0.935174E-08  0.187E-04    1.17      45.0  T
     SCC iter.                  ...        0 min,  0.517 sec
     gradient                   ...        0 min,  0.139 sec
 * total energy  :  -209.4763535 Eh     change       -0.1860125E-03 Eh
   gradient norm :     0.0035965 Eh/α   predicted    -0.1355810E-03 ( -27.11%)
   displ. norm   :     0.4965144 α      lambda       -0.2064251E-03
   maximum displ.:     0.2930082 α      in ANC's #4, #7, #1, ...

........................................................................
.............................. CYCLE   31 ..............................
........................................................................

 iter      E             dE          RMSdq      gap      omega  full diag
   1   -212.5985968 -0.212599E+03  0.312E-02    1.17       0.0  T
   2   -212.5985577  0.390228E-04  0.206E-02    1.16       1.0  T
   3   -212.5902687  0.828906E-02  0.134E-01    1.13       1.0  T
   4   -212.5985909 -0.832217E-02  0.547E-03    1.16       1.5  T
   5   -212.5985983 -0.744167E-05  0.156E-03    1.17       5.4  T
   6   -212.5985992 -0.908633E-06  0.391E-04    1.17      21.5  T
   7   -212.5985992 -0.127210E-07  0.210E-04    1.17      40.1  T
     SCC iter.                  ...        0 min,  0.440 sec
     gradient                   ...        0 min,  0.062 sec
 * total energy  :  -209.4765241 Eh     change       -0.1705377E-03 Eh
   gradient norm :     0.0024845 Eh/α   predicted    -0.1286630E-03 ( -24.55%)
   displ. norm   :     0.4440952 α      lambda       -0.1577936E-03
   maximum displ.:     0.2695427 α      in ANC's #4, #7, #1, ...

........................................................................
.............................. CYCLE   32 ..............................
........................................................................

 iter      E             dE          RMSdq      gap      omega  full diag
   1   -212.5987370 -0.212599E+03  0.303E-02    1.17       0.0  T
   2   -212.5983691  0.367962E-03  0.334E-02    1.16       1.0  T
   3   -212.5939847  0.438435E-02  0.102E-01    1.14       1.0  T
   4   -212.5987359 -0.475116E-02  0.470E-03    1.17       1.8  T
   5   -212.5987410 -0.506318E-05  0.151E-03    1.17       5.6  T
   6   -212.5987418 -0.878734E-06  0.381E-04    1.17      22.1  T
   7   -212.5987418 -0.145945E-07  0.197E-04    1.17      42.7  T
     SCC iter.                  ...        0 min,  0.402 sec
     gradient                   ...        0 min,  0.063 sec
 * total energy  :  -209.4766487 Eh     change       -0.1246586E-03 Eh
   gradient norm :     0.0018492 Eh/α   predicted    -0.9445724E-04 ( -24.23%)
   displ. norm   :     0.5086835 α      lambda       -0.9228310E-04
   maximum displ.:     0.3187480 α      in ANC's #4, #1, #7, ...

........................................................................
.............................. CYCLE   33 ..............................
........................................................................

 iter      E             dE          RMSdq      gap      omega  full diag
   1   -212.5975665 -0.212598E+03  0.340E-02    1.17       0.0  T
   2   -212.5967605  0.805931E-03  0.462E-02    1.16       1.0  T
   3   -212.5935581  0.320242E-02  0.943E-02    1.15       1.0  T
   4   -212.5975707 -0.401259E-02  0.445E-03    1.17       1.9  T
   5   -212.5975746 -0.386236E-05  0.141E-03    1.17       6.0  T
   6   -212.5975753 -0.725248E-06  0.422E-04    1.17      19.9  T
   7   -212.5975753 -0.224528E-07  0.218E-04    1.17      38.7  T
     SCC iter.                  ...        0 min,  0.377 sec
     gradient                   ...        0 min,  0.064 sec
 * total energy  :  -209.4767427 Eh     change       -0.9402549E-04 Eh
   gradient norm :     0.0021384 Eh/α   predicted    -0.5144925E-04 ( -45.28%)
   displ. norm   :     0.1394341 α      lambda       -0.3595230E-04
   maximum displ.:     0.0935249 α      in ANC's #4, #2, #1, ...

........................................................................
.............................. CYCLE   34 ..............................
........................................................................

 iter      E             dE          RMSdq      gap      omega  full diag
   1   -212.5983197 -0.212598E+03  0.919E-03    1.17       0.0  T
   2   -212.5980699  0.249752E-03  0.238E-02    1.16       1.0  T
   3   -212.5982337 -0.163727E-03  0.146E-02    1.17       1.0  T
   4   -212.5983215 -0.878354E-04  0.134E-03    1.17       6.3  T
   5   -212.5983220 -0.535187E-06  0.246E-04    1.17      34.2  T
   6   -212.5983220 -0.110324E-07  0.110E-04    1.17      76.9  T
     SCC iter.                  ...        0 min,  0.317 sec
     gradient                   ...        0 min,  0.061 sec
 * total energy  :  -209.4767740 Eh     change       -0.3123596E-04 Eh
   gradient norm :     0.0014625 Eh/α   predicted    -0.1832759E-04 ( -41.33%)
   displ. norm   :     0.2213027 α      lambda       -0.4811867E-04
   maximum displ.:     0.1501762 α      in ANC's #4, #2, #1, ...

........................................................................
.............................. CYCLE   35 ..............................
........................................................................

 iter      E             dE          RMSdq      gap      omega  full diag
   1   -212.5992278 -0.212599E+03  0.156E-02    1.17       0.0  T
   2   -212.5985986  0.629255E-03  0.378E-02    1.16       1.0  T
   3   -212.5989299 -0.331325E-03  0.269E-02    1.17       1.0  T
   4   -212.5992321 -0.302196E-03  0.242E-03    1.17       3.5  T
   5   -212.5992339 -0.179957E-05  0.446E-04    1.17      18.9  T
   6   -212.5992339 -0.319197E-07  0.214E-04    1.17      39.4  T
   7   -212.5992339 -0.427826E-08  0.111E-04    1.17      76.0  T
     SCC iter.                  ...        0 min,  0.403 sec
     gradient                   ...        0 min,  0.062 sec
 * total energy  :  -209.4768291 Eh     change       -0.5511776E-04 Eh
   gradient norm :     0.0013130 Eh/α   predicted    -0.2458413E-04 ( -55.40%)
   displ. norm   :     0.1894453 α      lambda       -0.3290320E-04
   maximum displ.:     0.1327612 α      in ANC's #4, #2, #1, ...

........................................................................
.............................. CYCLE   36 ..............................
........................................................................

 iter      E             dE          RMSdq      gap      omega  full diag
   1   -212.5991540 -0.212599E+03  0.123E-02    1.17       0.0  T
   2   -212.5989442  0.209804E-03  0.224E-02    1.16       1.0  T
   3   -212.5988227  0.121564E-03  0.276E-02    1.17       1.0  T
   4   -212.5991554 -0.332708E-03  0.179E-03    1.17       4.7  T
   5   -212.5991562 -0.796717E-06  0.364E-04    1.17      23.1  T
   6   -212.5991562 -0.192272E-07  0.187E-04    1.17      45.1  T
     SCC iter.                  ...        0 min,  0.324 sec
     gradient                   ...        0 min,  0.062 sec
 * total energy  :  -209.4768703 Eh     change       -0.4122151E-04 Eh
   gradient norm :     0.0012559 Eh/α   predicted    -0.1671427E-04 ( -59.45%)
   displ. norm   :     0.1867416 α      lambda       -0.3342122E-04
   maximum displ.:     0.1294901 α      in ANC's #4, #2, #10, ...

........................................................................
.............................. CYCLE   37 ..............................
........................................................................

 iter      E             dE          RMSdq      gap      omega  full diag
   1   -212.5992812 -0.212599E+03  0.124E-02    1.17       0.0  T
   2   -212.5992809  0.262546E-06  0.738E-03    1.17       1.1  T
   3   -212.5990217  0.259202E-03  0.235E-02    1.17       1.0  T
   4   -212.5992788 -0.257053E-03  0.266E-03    1.17       3.2  T
   5   -212.5992814 -0.263411E-05  0.383E-04    1.17      22.0  T
   6   -212.5992814 -0.227274E-07  0.212E-04    1.17      39.8  T
   7   -212.5992814 -0.122094E-07  0.761E-05    1.17     110.7  T
     SCC iter.                  ...        0 min,  0.510 sec
     gradient                   ...        0 min,  0.061 sec
 * total energy  :  -209.4769139 Eh     change       -0.4353136E-04 Eh
   gradient norm :     0.0011913 Eh/α   predicted    -0.1697680E-04 ( -61.00%)
   displ. norm   :     0.2411009 α      lambda       -0.4248372E-04
   maximum displ.:     0.1596549 α      in ANC's #4, #2, #5, ...

........................................................................
.............................. CYCLE   38 ..............................
........................................................................

 iter      E             dE          RMSdq      gap      omega  full diag
   1   -212.5990704 -0.212599E+03  0.162E-02    1.17       0.0  T
   2   -212.5990518  0.186109E-04  0.114E-02    1.16       1.0  T
   3   -212.5960763  0.297553E-02  0.801E-02    1.15       1.0  T
   4   -212.5990684 -0.299210E-02  0.240E-03    1.17       3.5  T
   5   -212.5990708 -0.244343E-05  0.418E-04    1.17      20.1  T
   6   -212.5990709 -0.230790E-07  0.240E-04    1.17      35.1  T
   7   -212.5990709 -0.139245E-07  0.109E-04    1.17      77.1  T
     SCC iter.                  ...        0 min,  0.403 sec
     gradient                   ...        0 min,  0.062 sec
 * total energy  :  -209.4769675 Eh     change       -0.5362657E-04 Eh
   gradient norm :     0.0013057 Eh/α   predicted    -0.2179146E-04 ( -59.36%)
   displ. norm   :     0.3026547 α      lambda       -0.4781554E-04
   maximum displ.:     0.1969292 α      in ANC's #4, #2, #5, ...

........................................................................
.............................. CYCLE   39 ..............................
........................................................................

 iter      E             dE          RMSdq      gap      omega  full diag
   1   -212.5986684 -0.212599E+03  0.199E-02    1.17       0.0  T
   2   -212.5986627  0.571271E-05  0.123E-02    1.17       1.0  T
   3   -212.5960454  0.261732E-02  0.751E-02    1.14       1.0  T
   4   -212.5986626 -0.261715E-02  0.375E-03    1.17       2.2  T
   5   -212.5986688 -0.623323E-05  0.535E-04    1.17      15.7  T
   6   -212.5986689 -0.752657E-07  0.225E-04    1.17      37.5  T
   7   -212.5986689 -0.515800E-08  0.112E-04    1.17      75.5  T
     SCC iter.                  ...        0 min,  0.467 sec
     gradient                   ...        0 min,  0.071 sec
 * total energy  :  -209.4770262 Eh     change       -0.5871407E-04 Eh
   gradient norm :     0.0014303 Eh/α   predicted    -0.2488306E-04 ( -57.62%)
   displ. norm   :     0.3139449 α      lambda       -0.4341404E-04
   maximum displ.:     0.2018660 α      in ANC's #4, #2, #5, ...

........................................................................
.............................. CYCLE   40 ..............................
........................................................................

 iter      E             dE          RMSdq      gap      omega  full diag
   1   -212.5988683 -0.212599E+03  0.195E-02    1.17       0.0  T
   2   -212.5988607  0.761437E-05  0.121E-02    1.16       1.0  T
   3   -212.5958141  0.304655E-02  0.808E-02    1.15       1.0  T
   4   -212.5988676 -0.305350E-02  0.188E-03    1.17       4.5  T
   5   -212.5988686 -0.102268E-05  0.426E-04    1.17      19.8  T
   6   -212.5988687 -0.332093E-07  0.213E-04    1.17      39.5  T
   7   -212.5988687 -0.220166E-08  0.117E-04    1.17      72.1  T
     SCC iter.                  ...        0 min,  0.426 sec
     gradient                   ...        0 min,  0.064 sec
 * total energy  :  -209.4770813 Eh     change       -0.5510939E-04 Eh
   gradient norm :     0.0013446 Eh/α   predicted    -0.2265922E-04 ( -58.88%)
   displ. norm   :     0.3322415 α      lambda       -0.4407169E-04
   maximum displ.:     0.2153232 α      in ANC's #4, #2, #5, ...

........................................................................
.............................. CYCLE   41 ..............................
........................................................................

 iter      E             dE          RMSdq      gap      omega  full diag
   1   -212.5985733 -0.212599E+03  0.197E-02    1.17       0.0  T
   2   -212.5985715  0.182775E-05  0.117E-02    1.17       1.0  T
   3   -212.5973737  0.119781E-02  0.506E-02    1.16       1.0  T
   4   -212.5985731 -0.119939E-02  0.161E-03    1.17       5.2  T
   5   -212.5985736 -0.509017E-06  0.418E-04    1.17      20.1  T
   6   -212.5985736 -0.375637E-07  0.198E-04    1.17      42.6  T
     SCC iter.                  ...        0 min,  0.496 sec
     gradient                   ...        0 min,  0.059 sec
 * total energy  :  -209.4771384 Eh     change       -0.5705450E-04 Eh
   gradient norm :     0.0011851 Eh/α   predicted    -0.2311866E-04 ( -59.48%)
   displ. norm   :     0.3776074 α      lambda       -0.4971508E-04
   maximum displ.:     0.2455576 α      in ANC's #4, #2, #5, ...

........................................................................
.............................. CYCLE   42 ..............................
........................................................................

 iter      E             dE          RMSdq      gap      omega  full diag
   1   -212.5988343 -0.212599E+03  0.215E-02    1.17       0.0  T
   2   -212.5988297  0.459427E-05  0.131E-02    1.17       1.0  T
   3   -212.5963460  0.248379E-02  0.730E-02    1.15       1.0  T
   4   -212.5988325 -0.248659E-02  0.238E-03    1.17       3.5  T
   5   -212.5988346 -0.205770E-05  0.559E-04    1.17      15.1  T
   6   -212.5988347 -0.969344E-07  0.211E-04    1.17      40.0  T
   7   -212.5988347 -0.107565E-08  0.119E-04    1.17      71.0  T
     SCC iter.                  ...        0 min,  0.553 sec
     gradient                   ...        0 min,  0.059 sec
 * total energy  :  -209.4772012 Eh     change       -0.6288780E-04 Eh
   gradient norm :     0.0011352 Eh/α   predicted    -0.2643733E-04 ( -57.96%)
   displ. norm   :     0.4312184 α      lambda       -0.5204238E-04
   maximum displ.:     0.2827212 α      in ANC's #4, #2, #5, ...
 * RMSD in coord.:     0.5313755 α      energy gain  -0.3088569E-02 Eh

generating ANC from exact Hessian ...
Using Lindh-Hessian (1995)
 Shifting diagonal of input Hessian by    1.0132335466811802E-002
 Lowest  eigenvalues of input Hessian
    0.010000    0.000000    0.000000    0.000000    0.000000    0.000000
    0.000000    0.010155    0.010170    0.010221    0.010249    0.010399
    0.010478    0.010506    0.010527    0.010637    0.010681    0.010704
 Highest eigenvalues
    2.079274    2.079321    2.198854    2.199589    2.219328    2.219563


........................................................................
.............................. CYCLE   43 ..............................
........................................................................

 iter      E             dE          RMSdq      gap      omega  full diag
   1   -212.5987625 -0.212599E+03  0.235E-02    1.17       0.0  T
   2   -212.5987187  0.438015E-04  0.172E-02    1.17       1.0  T
   3   -212.5929500  0.576872E-02  0.112E-01    1.13       1.0  T
   4   -212.5987626 -0.581265E-02  0.185E-03    1.17       4.5  T
   5   -212.5987631 -0.424622E-06  0.768E-04    1.17      11.0  T
   6   -212.5987633 -0.212921E-06  0.243E-04    1.17      34.7  T
     SCC iter.                  ...        0 min,  0.369 sec
     gradient                   ...        0 min,  0.062 sec
 * total energy  :  -209.4772644 Eh     change       -0.6312471E-04 Eh
   gradient norm :     0.0011594 Eh/α   predicted     0.0000000E+00 (-100.00%)
   displ. norm   :     0.0403340 α      lambda       -0.1307365E-05
   maximum displ.:     0.0195832 α      in ANC's #4, #21, #2, ...

........................................................................
.............................. CYCLE   44 ..............................
........................................................................

 iter      E             dE          RMSdq      gap      omega  full diag
   1   -212.5994057 -0.212599E+03  0.493E-03    1.17       0.0  T
   2   -212.5994056  0.148422E-06  0.298E-03    1.17       2.8  T
   3   -212.5993149  0.906564E-04  0.139E-02    1.16       1.0  T
   4   -212.5994045 -0.895090E-04  0.187E-03    1.17       4.5  T
   5   -212.5994058 -0.136350E-05  0.194E-04    1.17      43.4  T
   6   -212.5994058 -0.831761E-08  0.782E-05    1.17     107.7  T
   7   -212.5994058 -0.369425E-09  0.417E-05    1.17     202.1  T
     SCC iter.                  ...        0 min,  0.513 sec
     gradient                   ...        0 min,  0.062 sec
 * total energy  :  -209.4772781 Eh     change       -0.1375148E-04 Eh
   gradient norm :     0.0005536 Eh/α   predicted    -0.5765756E-05 ( -58.07%)
   displ. norm   :     0.1319708 α      lambda       -0.2575904E-04
   maximum displ.:     0.0625454 α      in ANC's #4, #2, #21, ...

........................................................................
.............................. CYCLE   45 ..............................
........................................................................

 iter      E             dE          RMSdq      gap      omega  full diag
   1   -212.5998662 -0.212600E+03  0.129E-02    1.17       0.0  T
   2   -212.5998659  0.271179E-06  0.764E-03    1.17       1.1  T
   3   -212.5996133  0.252568E-03  0.234E-02    1.17       1.0  T
   4   -212.5998433 -0.229984E-03  0.717E-03    1.17       1.2  T
   5   -212.5998665 -0.231408E-04  0.484E-04    1.17      17.4  T
   6   -212.5998665 -0.661819E-07  0.200E-04    1.17      42.1  T
   7   -212.5998665 -0.360731E-08  0.952E-05    1.17      88.5  T
     SCC iter.                  ...        0 min,  0.631 sec
     gradient                   ...        0 min,  0.063 sec
 * total energy  :  -209.4773035 Eh     change       -0.2535805E-04 Eh
   gradient norm :     0.0012570 Eh/α   predicted    -0.1298024E-04 ( -48.81%)
   displ. norm   :     0.1060427 α      lambda       -0.1242930E-04
   maximum displ.:     0.0554562 α      in ANC's #4, #2, #21, ...

........................................................................
.............................. CYCLE   46 ..............................
........................................................................

 iter      E             dE          RMSdq      gap      omega  full diag
   1   -212.5994826 -0.212599E+03  0.890E-03    1.17       0.0  T
   2   -212.5994699  0.126751E-04  0.740E-03    1.17       1.1  T
   3   -212.5987129  0.757055E-03  0.407E-02    1.16       1.0  T
   4   -212.5994823 -0.769366E-03  0.168E-03    1.17       5.0  T
   5   -212.5994829 -0.638099E-06  0.268E-04    1.17      31.5  T
   6   -212.5994829 -0.937209E-08  0.144E-04    1.17      58.4  T
     SCC iter.                  ...        0 min,  0.460 sec
     gradient                   ...        0 min,  0.061 sec
 * total energy  :  -209.4773167 Eh     change       -0.1319818E-04 Eh
   gradient norm :     0.0010286 Eh/α   predicted    -0.6248612E-05 ( -52.66%)
   displ. norm   :     0.1094752 α      lambda       -0.1120417E-04
   maximum displ.:     0.0594696 α      in ANC's #4, #2, #10, ...

........................................................................
.............................. CYCLE   47 ..............................
........................................................................

 iter      E             dE          RMSdq      gap      omega  full diag
   1   -212.5993080 -0.212599E+03  0.845E-03    1.17       0.0  T
   2   -212.5993064  0.156043E-05  0.530E-03    1.17       1.6  T
   3   -212.5987281  0.578306E-03  0.352E-02    1.16       1.0  T
   4   -212.5993071 -0.579026E-03  0.189E-03    1.17       4.5  T
   5   -212.5993081 -0.100751E-05  0.228E-04    1.17      37.0  T
   6   -212.5993081 -0.442446E-08  0.142E-04    1.17      59.4  T
   7   -212.5993081 -0.459164E-08  0.571E-05    1.17     147.5  T
     SCC iter.                  ...        0 min,  0.509 sec
     gradient                   ...        0 min,  0.063 sec
 * total energy  :  -209.4773301 Eh     change       -0.1339742E-04 Eh
   gradient norm :     0.0006175 Eh/α   predicted    -0.5636982E-05 ( -57.92%)
   displ. norm   :     0.1485418 α      lambda       -0.1505902E-04
   maximum displ.:     0.0828043 α      in ANC's #4, #2, #10, ...

........................................................................
.............................. CYCLE   48 ..............................
........................................................................

 iter      E             dE          RMSdq      gap      omega  full diag
   1   -212.5991077 -0.212599E+03  0.107E-02    1.17       0.0  T
   2   -212.5990847  0.229613E-04  0.939E-03    1.17       1.0  T
   3   -212.5980836  0.100114E-02  0.470E-02    1.16       1.0  T
   4   -212.5991070 -0.102344E-02  0.198E-03    1.17       4.3  T
   5   -212.5991081 -0.107552E-05  0.304E-04    1.17      27.7  T
   6   -212.5991081 -0.133675E-07  0.172E-04    1.17      49.0  T
   7   -212.5991081 -0.642822E-08  0.772E-05    1.17     109.0  T
     SCC iter.                  ...        0 min,  0.410 sec
     gradient                   ...        0 min,  0.065 sec
 * total energy  :  -209.4773474 Eh     change       -0.1736879E-04 Eh
   gradient norm :     0.0006917 Eh/α   predicted    -0.7603748E-05 ( -56.22%)
   displ. norm   :     0.1608780 α      lambda       -0.1384947E-04
   maximum displ.:     0.0920726 α      in ANC's #4, #2, #10, ...

........................................................................
.............................. CYCLE   49 ..............................
........................................................................

 iter      E             dE          RMSdq      gap      omega  full diag
   1   -212.5993564 -0.212599E+03  0.116E-02    1.17       0.0  T
   2   -212.5993406  0.157758E-04  0.891E-03    1.17       1.0  T
   3   -212.5979000  0.144065E-02  0.560E-02    1.15       1.0  T
   4   -212.5993558 -0.145583E-02  0.182E-03    1.17       4.6  T
   5   -212.5993567 -0.931819E-06  0.334E-04    1.17      25.2  T
   6   -212.5993568 -0.234202E-07  0.159E-04    1.17      52.9  T
     SCC iter.                  ...        0 min,  0.332 sec
     gradient                   ...        0 min,  0.064 sec
 * total energy  :  -209.4773626 Eh     change       -0.1517281E-04 Eh
   gradient norm :     0.0009889 Eh/α   predicted    -0.7009406E-05 ( -53.80%)
   displ. norm   :     0.1324698 α      lambda       -0.1036159E-04
   maximum displ.:     0.0787481 α      in ANC's #4, #2, #10, ...

........................................................................
.............................. CYCLE   50 ..............................
........................................................................

 iter      E             dE          RMSdq      gap      omega  full diag
   1   -212.5995778 -0.212600E+03  0.840E-03    1.17       0.0  T
   2   -212.5995773  0.569730E-06  0.507E-03    1.17       1.7  T
   3   -212.5992383  0.338982E-03  0.269E-02    1.16       1.0  T
   4   -212.5995777 -0.339385E-03  0.981E-04    1.17       8.6  T
   5   -212.5995779 -0.254433E-06  0.223E-04    1.17      37.8  T
   6   -212.5995779 -0.811781E-08  0.103E-04    1.17      82.2  T
     SCC iter.                  ...        0 min,  0.379 sec
     gradient                   ...        0 min,  0.066 sec
 * total energy  :  -209.4773745 Eh     change       -0.1188732E-04 Eh
   gradient norm :     0.0008005 Eh/α   predicted    -0.5221306E-05 ( -56.08%)
   displ. norm   :     0.1172934 α      lambda       -0.1010693E-04
   maximum displ.:     0.0709974 α      in ANC's #4, #2, #16, ...

........................................................................
.............................. CYCLE   51 ..............................
........................................................................

 iter      E             dE          RMSdq      gap      omega  full diag
   1   -212.5999519 -0.212600E+03  0.688E-03    1.17       0.0  T
   2   -212.5999509  0.101432E-05  0.435E-03    1.17       1.9  T
   3   -212.5995760  0.374966E-03  0.284E-02    1.17       1.0  T
   4   -212.5999504 -0.374410E-03  0.204E-03    1.17       4.1  T
   5   -212.5999521 -0.167844E-05  0.218E-04    1.17      38.6  T
   6   -212.5999521 -0.892737E-08  0.915E-05    1.17      92.1  T
   7   -212.5999521 -0.436103E-09  0.480E-05    1.17     175.4  T
     SCC iter.                  ...        0 min,  0.561 sec
     gradient                   ...        0 min,  0.064 sec
 * total energy  :  -209.4773870 Eh     change       -0.1251006E-04 Eh
   gradient norm :     0.0005409 Eh/α   predicted    -0.5084624E-05 ( -59.36%)
   displ. norm   :     0.1503617 α      lambda       -0.1356106E-04
   maximum displ.:     0.0906864 α      in ANC's #4, #2, #16, ...

........................................................................
.............................. CYCLE   52 ..............................
........................................................................

 iter      E             dE          RMSdq      gap      omega  full diag
   1   -212.6000593 -0.212600E+03  0.812E-03    1.17       0.0  T
   2   -212.6000583  0.935269E-06  0.503E-03    1.17       1.7  T
   3   -212.5996574  0.400911E-03  0.294E-02    1.17       1.0  T
   4   -212.6000559 -0.398488E-03  0.294E-03    1.17       2.9  T
   5   -212.6000594 -0.352345E-05  0.237E-04    1.17      35.5  T
   6   -212.6000594 -0.854592E-08  0.111E-04    1.17      76.0  T
   7   -212.6000594 -0.925922E-09  0.536E-05    1.17     157.1  T
     SCC iter.                  ...        0 min,  0.492 sec
     gradient                   ...        0 min,  0.060 sec
 * total energy  :  -209.4774037 Eh     change       -0.1664105E-04 Eh
   gradient norm :     0.0005741 Eh/α   predicted    -0.6851671E-05 ( -58.83%)
   displ. norm   :     0.1849919 α      lambda       -0.1497840E-04
   maximum displ.:     0.1119595 α      in ANC's #4, #2, #16, ...

........................................................................
.............................. CYCLE   53 ..............................
........................................................................

 iter      E             dE          RMSdq      gap      omega  full diag
   1   -212.5998066 -0.212600E+03  0.970E-03    1.17       0.0  T
   2   -212.5997431  0.634600E-04  0.129E-02    1.16       1.0  T
   3   -212.5994125  0.330657E-03  0.295E-02    1.17       1.0  T
   4   -212.5998063 -0.393890E-03  0.188E-03    1.17       4.5  T
   5   -212.5998073 -0.949746E-06  0.258E-04    1.17      32.7  T
   6   -212.5998073 -0.102042E-07  0.131E-04    1.17      64.1  T
     SCC iter.                  ...        0 min,  0.372 sec
     gradient                   ...        0 min,  0.062 sec
 * total energy  :  -209.4774217 Eh     change       -0.1804231E-04 Eh
   gradient norm :     0.0009131 Eh/α   predicted    -0.7607249E-05 ( -57.84%)
   displ. norm   :     0.1998004 α      lambda       -0.1407715E-04
   maximum displ.:     0.1229901 α      in ANC's #2, #4, #16, ...

........................................................................
.............................. CYCLE   54 ..............................
........................................................................

 iter      E             dE          RMSdq      gap      omega  full diag
   1   -212.5995255 -0.212600E+03  0.989E-03    1.17       0.0  T
   2   -212.5994737  0.518484E-04  0.120E-02    1.16       1.0  T
   3   -212.5990251  0.448531E-03  0.332E-02    1.17       1.0  T
   4   -212.5995255 -0.500387E-03  0.153E-03    1.17       5.5  T
   5   -212.5995261 -0.591275E-06  0.253E-04    1.17      33.3  T
   6   -212.5995261 -0.988530E-08  0.139E-04    1.17      60.7  T
     SCC iter.                  ...        0 min,  0.382 sec
     gradient                   ...        0 min,  0.064 sec
 * total energy  :  -209.4774385 Eh     change       -0.1677708E-04 Eh
   gradient norm :     0.0009015 Eh/α   predicted    -0.7166541E-05 ( -57.28%)
   displ. norm   :     0.1980341 α      lambda       -0.1249995E-04
   maximum displ.:     0.1244101 α      in ANC's #2, #4, #9, ...

[...]
   211   6 C      233   1 H                                       1.0873529
   211   6 C      234   1 H                                       1.0868473
   214   6 C      235   1 H                                       1.0905210
   214   6 C      236   1 H                                       1.0885080
   214   6 C      237   1 H                                       1.0864233
   215   6 C      238   1 H                                       1.0905724
   215   6 C      239   1 H                                       1.0871153
   215   6 C      240   1 H                                       1.0874913
   216   6 C      241   1 H                                       1.0904587
   216   6 C      242   1 H                                       1.0862738
   216   6 C      243   1 H                                       1.0879217
   195   6 C      244   1 H                                       1.0899036
   195   6 C      245   1 H                                       1.0860387
   195   6 C      246   1 H                                       1.0873435
   196   6 C      247   1 H                                       1.0895016
   196   6 C      248   1 H                                       1.0868907
   196   6 C      249   1 H                                       1.0873076
   194   6 C      250   1 H                                       1.0895589
   194   6 C      251   1 H                                       1.0886587
   194   6 C      252   1 H                                       1.0858212
   206   6 C      253   1 H                                       1.0905033
   206   6 C      254   1 H                                       1.0883442
   206   6 C      255   1 H                                       1.0860659
   208   6 C      256   1 H                                       1.0905693
   208   6 C      257   1 H                                       1.0872945
   208   6 C      258   1 H                                       1.0874256
   207   6 C      259   1 H                                       1.0906396
   207   6 C      260   1 H                                       1.0862286
   207   6 C      261   1 H                                       1.0884370
   202   6 C      262   1 H                                       1.0901579
   202   6 C      263   1 H                                       1.0881416
   202   6 C      264   1 H                                       1.0866965
   204   6 C      265   1 H                                       1.0900649
   204   6 C      266   1 H                                       1.0870351
   204   6 C      267   1 H                                       1.0870836
   203   6 C      268   1 H                                       1.0901260
   203   6 C      269   1 H                                       1.0866570
   203   6 C      270   1 H                                       1.0880972
Note: The following floating-point exceptions are signalling: IEEE_UNDERFLOW_FLAG
normal termination of xtb
   156   6 C      271   1 H                                       1.0817092
   158   6 C      272   1 H                                       1.0790774
   146   6 C      273   1 H                                       1.0783478
   142   6 C      274   1 H                                       1.0742856
   162   6 C      275   1 H                                       1.0805670
   160   6 C      276   1 H                                       1.0745717
   183   6 C      277   1 H                                       1.0723353 (min)
   185   6 C      278   1 H                                       1.0805973
   179   6 C      279   1 H                                       1.0815095
   181   6 C      280   1 H                                       1.0797089
   170   6 C      281   1 H                                       1.0785573
   166   6 C      282   1 H                                       1.0764066

 * 4 distinct bonds (by element types)

   Z      Z             #   av. dist./Å        max./Å        min./Å
   1 H    6 C         132     1.0864298     1.0910544     1.0723353
   6 C    6 C         112     1.4427995     1.5358086     1.3757516
   5 B    8 O           4     1.4640316     1.4665465     1.4611417
   6 C    8 O          16     1.3006571     1.3709925     1.2337400


optimized geometry written to: xtbopt.mol


           -------------------------------------------------
          | TOTAL ENERGY             -418.847446770374 Eh   |
          | GRADIENT NORM               0.000431620539 Eh/α |
          | HOMO-LUMO GAP               1.131623032698 eV   |
           -------------------------------------------------
########################################################################
[WARNING] Runtime exception occurred
-3- restart_readRestart: Dimension missmatch in restart file.
-2- restart_readRestart: Multiplicity missmatch in restart file.
-1- restart_readRestart: Number of electron missmatch in restart file.
########################################################################

------------------------------------------------------------------------
 * finished run on 2024/12/10 at 15:17:56.026     
------------------------------------------------------------------------
 total:
 * wall-time:     0 d,  0 h, 18 min, 35.471 sec
 *  cpu-time:     0 d,  1 h,  9 min, 52.520 sec
 * ratio c/w:     3.759 speedup
 SCF:
 * wall-time:     0 d,  0 h,  0 min,  4.933 sec
 *  cpu-time:     0 d,  0 h,  0 min, 19.312 sec
 * ratio c/w:     3.915 speedup
 ANC optimizer:
 * wall-time:     0 d,  0 h, 18 min, 30.441 sec
 *  cpu-time:     0 d,  1 h,  9 min, 33.082 sec
 * ratio c/w:     3.758 speedup

Running optimization for loose_opt_dimer.mol
      -----------------------------------------------------------      
     |                   =====================                   |     
     |                           x T B                           |     
     |                   =====================                   |     
     |                         S. Grimme                         |     
     |          Mulliken Center for Theoretical Chemistry        |     
     |                    University of Bonn                     |     
      -----------------------------------------------------------      

   * xtb version 6.7.1 (edcfbbe) compiled by 'runner@Mac-1732539442253.local' on 2024-11-25

   xtb is free software: you can redistribute it and/or modify it under
   the terms of the GNU Lesser General Public License as published by
   the Free Software Foundation, either version 3 of the License, or
   (at your option) any later version.
   
   xtb is distributed in the hope that it will be useful,
   but WITHOUT ANY WARRANTY; without even the implied warranty of
   MERCHANTABILITY or FITNESS FOR A PARTICULAR PURPOSE.  See the
   GNU Lesser General Public License for more details.
   
   Cite this work as:
   * C. Bannwarth, E. Caldeweyher, S. Ehlert, A. Hansen, P. Pracht,
     J. Seibert, S. Spicher, S. Grimme, WIREs Comput. Mol. Sci., 2020, 11,
     e01493. DOI: 10.1002/wcms.1493
   
   for GFN2-xTB:
   * C. Bannwarth, S. Ehlert and S. Grimme., J. Chem. Theory Comput., 2019,
     15, 1652-1671. DOI: 10.1021/acs.jctc.8b01176
   for GFN1-xTB:
   * S. Grimme, C. Bannwarth, P. Shushkov, J. Chem. Theory Comput., 2017,
     13, 1989-2009. DOI: 10.1021/acs.jctc.7b00118
   for GFN0-xTB:
   * P. Pracht, E. Caldeweyher, S. Ehlert, S. Grimme, ChemRxiv, 2019, preprint.
     DOI: 10.26434/chemrxiv.8326202.v1
   for GFN-FF:
   * S. Spicher and S. Grimme, Angew. Chem. Int. Ed., 2020, 59, 15665-15673.
     DOI: 10.1002/anie.202004239
   
   for ALPB and GBSA implicit solvation:
   * S. Ehlert, M. Stahn, S. Spicher, S. Grimme, J. Chem. Theory Comput.,
     2021, 17, 4250-4261. DOI: 10.1021/acs.jctc.1c00471
   
   for ddCOSMO and CPCM-X implicit solvation:
   * M. Stahn, S. Ehlert, S. Grimme, J. Phys. Chem. A,
     2023, XX, XXXX-XXXX. DOI: 10.1021/acs.jpca.3c04382
   
   for DFT-D4:
   * E. Caldeweyher, C. Bannwarth and S. Grimme, J. Chem. Phys., 2017,
     147, 034112. DOI: 10.1063/1.4993215
   * E. Caldeweyher, S. Ehlert, A. Hansen, H. Neugebauer, S. Spicher,
     C. Bannwarth and S. Grimme, J. Chem. Phys., 2019, 150, 154122.
     DOI: 10.1063/1.5090222
   * E. Caldeweyher, J.-M. Mewes, S. Ehlert and S. Grimme, Phys. Chem. Chem. Phys.
     2020, 22, 8499-8512. DOI: 10.1039/D0CP00502A
   
   for sTDA-xTB:
   * S. Grimme and C. Bannwarth, J. Chem. Phys., 2016, 145, 054103.
     DOI: 10.1063/1.4959605
   
   in the mass-spec context:
   * V. Asgeirsson, C. Bauer and S. Grimme, Chem. Sci., 2017, 8, 4879.
     DOI: 10.1039/c7sc00601b
   * J. Koopman and S. Grimme, ACS Omega 2019, 4, 12, 15120-15133.
     DOI: 10.1021/acsomega.9b02011
   
   for metadynamics refer to:
   * S. Grimme, J. Chem. Theory Comput., 2019, 155, 2847-2862
     DOI: 10.1021/acs.jctc.9b00143
   
   for SPH calculations refer to:
   * S. Spicher and S. Grimme, J. Chem. Theory Comput., 2021, 17, 1701-1714
     DOI: 10.1021/acs.jctc.0c01306
   
   for ONIOM refer to:
   * C. Plett, A. Katbashev, S. Ehlert, S. Grimme, M. Bursch,
     Phys. Chem. Chem. Phys., 2023, 25, 17860-17868. DOI: 10.1039/D3CP02178E
   
   for DIPRO refer to:
   * J. Kohn, N. Gildemeister, S. Grimme, D. Fazzi, A. Hansen,
     J. Chem. Phys., 2023, just accepted.
   
   for PTB refer to:
   * S. Grimme, M. Mueller, A. Hansen, J. Chem. Phys., 2023, 158, 124111.
     DOI: 10.1063/5.0137838
   
   with help from (in alphabetical order)
   P. Atkinson, C. Bannwarth, F. Bohle, G. Brandenburg, E. Caldeweyher
   M. Checinski, S. Dohm, S. Ehlert, S. Ehrlich, I. Gerasimov, C. Hölzer
   A. Katbashev, J. Kohn, J. Koopman, C. Lavigne, S. Lehtola, F. März, M. Müller,
   F. Musil, H. Neugebauer, J. Pisarek, C. Plett, P. Pracht, F. Pultar,
   J. Seibert, P. Shushkov, S. Spicher, M. Stahn, M. Steiner, T. Strunk,
   J. Stückrath, T. Rose, and J. Unsleber
   
 * started run on 2024/12/10 at 15:17:56.174     
   ID    Z sym.   atoms
    1    6 C      1-21, 25-44, 47, 52-75, 142-162, 166-185, 188, 193-216
    2    8 O      22, 23, 45, 46, 48-51, 163, 164, 186, 187, 189-192
    3    5 B      24, 165
    4    1 H      76-141, 217-282

           -------------------------------------------------
          |                Calculation Setup                |
           -------------------------------------------------

          program call               : xtb opt_dimer.mol --dipro 0.3 --gfn 2 --chrg -4 --uhf 2
          coordinate file            : opt_dimer.mol
          omp threads                :                     8


molecular fragmentation (1/2 indicates fragments):
111111111111111111111111111111111111111111111111111111111111111111111111
111111111111111111111111111111111111111111111111111111111111111111111222
222222222222222222222222222222222222222222222222222222222222222222222222
222222222222222222222222222222222222222222222222222222222222222222
# atoms in fragment 1/2:   141   141
 fragment masses (1/2) :      998.04      998.04
CMA distance (Bohr)    :  34.173
constraining FC (au)   :  0.0500
########################################################################
[WARNING] Please study the warnings concerning your input carefully
-1- prog_main: Charge in sdf/mol input was overwritten
########################################################################

           -------------------------------------------------
          |                 G F N 2 - x T B                 |
           -------------------------------------------------

        Reference                      10.1021/acs.jctc.8b01176
      * Hamiltonian:
        H0-scaling (s, p, d)           1.850000    2.230000    2.230000
        zeta-weighting                 0.500000
      * Dispersion:
        s8                             2.700000
        a1                             0.520000
        a2                             5.000000
        s9                             5.000000
      * Repulsion:
        kExp                           1.500000    1.000000
        rExp                           1.000000
      * Coulomb:
        alpha                          2.000000
        third order                    shell-resolved
        anisotropic                    true
        a3                             3.000000
        a5                             4.000000
        cn-shift                       1.200000
        cn-exp                         4.000000
        max-rad                        5.000000

q/qsh data taken from xtbrestart
CAMM data taken from xtbrestart
           -------------------------------------------------
          |                    D I P R O                    |
           -------------------------------------------------
Calculation for dimer 
--------------------- 
  
charge of dimer :  -4.
unpaired e- of dimer :  2
repulsion energy          6.2397280889994E+00 Eh
dispersion energy         7.6117031230491E-03 Eh
number of electrons       7.6600000000000E+02 e
integral cutoff           1.9311100799991E+01 bohr

------------------------------------------------------------
  cycle        total energy    energy error   density error
------------------------------------------------------------
      1     -417.1044207553  -4.2335176E+02   1.4937561E-01
      2     -418.5581987757  -1.4537780E+00   7.1672720E-02
      3     -417.6100608624   9.4813791E-01   4.3325701E-02
      4     -411.1327923273   6.4772685E+00   6.0495290E-02
      5     -418.2367400952  -7.1039478E+00   2.5177200E-02
      6     -418.7308029897  -4.9406289E-01   1.4070698E-02
      7     -418.8018177313  -7.1014742E-02   9.2215844E-03
      8     -418.7425407896   5.9276942E-02   9.0801984E-03
      9     -418.7950389202  -5.2498131E-02   8.7560601E-03
     10     -418.8296006314  -3.4561711E-02   5.5371134E-03
     11     -418.7852550418   4.4345590E-02   9.1181391E-03
     12     -418.8020779885  -1.6822947E-02   7.7462383E-03
     13     -418.8304491288  -2.8371140E-02   4.3993808E-03
     14     -418.7928021393   3.7646989E-02   6.0128646E-03
     15     -418.8420490279  -4.9246889E-02   2.2172025E-03
     16     -418.8398223252   2.2267028E-03   2.1898150E-03
     17     -418.8454017776  -5.5794524E-03   1.1051116E-03
     18     -418.8471392775  -1.7374999E-03   3.4437091E-04
     19     -418.8472645234  -1.2524591E-04   1.6515523E-04
     20     -418.8472796296  -1.5106283E-05   1.0779803E-04
     21     -418.8472930809  -1.3451208E-05   2.3663521E-05
     22     -418.8472932980  -2.1714050E-07   1.8456251E-05
------------------------------------------------------------

electronic energy        -4.2509463309011E+02 Eh
total energy             -4.1884729329799E+02 Eh

 total:                                   5.137 sec
 - repulsion                              0.000 sec (  0%)
 - dispersion                             0.017 sec (  0%)
 - coulomb                                0.007 sec (  0%)
 - hamiltonian                            0.014 sec (  0%)
 - scc                                    5.098 sec ( 99%)

Found 2 fragments!
Fragment 1:  1-141
Fragment 2:  142-282

[Info] Fragment spin read from .UHFfrag
[Info] Fragment charge read from .CHRGfrag
Calculation for fragment 1
 ------------------------------
   
charge of fragment :  -2.
unpaired e- of fragment :  1
------------------------------------------------------------
  cycle        total energy    energy error   density error
------------------------------------------------------------
      1     -208.6082129038  -2.1173126E+02   1.4887564E-01
      2     -209.3552977743  -7.4708487E-01   7.1020484E-02
      3     -209.3164296758   3.8868098E-02   3.8675426E-02
      4     -209.3644067874  -4.7977112E-02   2.2609952E-02
      5     -209.4210725260  -5.6665739E-02   1.3815088E-02
      6     -209.4378943482  -1.6821822E-02   1.0005044E-02
      7     -209.4620538604  -2.4159512E-02   6.1194064E-03
      8     -209.4647100909  -2.6562304E-03   5.4211369E-03
      9     -209.4755217315  -1.0811641E-02   2.0608974E-03
     10     -209.4769315560  -1.4098244E-03   1.0627512E-03
     11     -209.4773824911  -4.5093519E-04   2.4364057E-04
     12     -209.4773548325   2.7658599E-05   3.3045345E-04
     13     -209.4774024258  -4.7593287E-05   9.1706755E-05
     14     -209.4774058109  -3.3850541E-06   2.7062069E-05
     15     -209.4774056551   1.5574935E-07   2.9449297E-05
     16     -209.4774060747  -4.1959402E-07   3.4409203E-06
------------------------------------------------------------

 total:                                   1.030 sec
Calculation for fragment 2
 ------------------------------
   
charge of fragment :  -2.
unpaired e- of fragment :  1
------------------------------------------------------------
  cycle        total energy    energy error   density error
------------------------------------------------------------
      1     -208.6052348502  -2.1172956E+02   1.4987490E-01
      2     -209.3296489717  -7.2441412E-01   7.2331682E-02
      3     -208.9254119051   4.0423707E-01   4.6477051E-02
      4     -208.7826889063   1.4272300E-01   3.8141638E-02
      5     -209.3889334638  -6.0624456E-01   2.0332032E-02
      6     -209.4530683505  -6.4134887E-02   1.0878250E-02
      7     -209.4466121844   6.4561661E-03   9.9223333E-03
      8     -209.4730083982  -2.6396214E-02   4.4302682E-03
      9     -209.4734853848  -4.7698658E-04   3.3981130E-03
     10     -209.4769410374  -3.4556526E-03   1.5288545E-03
     11     -209.4774512036  -5.1016621E-04   1.1353970E-03
     12     -209.4780203713  -5.6916773E-04   1.3207833E-04
     13     -209.4780140292   6.3421482E-06   1.5608511E-04
     14     -209.4780238852  -9.8560629E-06   3.5455483E-05
     15     -209.4780241675  -2.8225139E-07   1.5206788E-05
------------------------------------------------------------

 total:                                   0.850 sec
   
   ::::::::::::::::::::::::::::::::::::::::::::::
   ::     D I P R O      C O U P L I N G S     ::
   ::::::::::::::::::::::::::::::::::::::::::::::
   
energy threshhold for near-degenerate orbitals near HOMO and LUMO considered for DIPRO:  0.300 eV
no. of orbitals within energy window of frag 1         2
no. of orbitals within energy window of frag 2         2
   
  Fragment 1 SOMO   Fragment 2 SOMO 
--------------------------------------
E_mon(orb) frag1 frag2              -2.807    -2.809 eV
J(AB):                0.000 eV
S(AB):            -0.00000000 Eh
|J(AB,eff)|:            0.000 eV
   
  Fragment 1 SOMO   Fragment 2 LUMO 
--------------------------------------
E_mon(orb) frag1 frag2              -2.807    -2.782 eV
J(AB):                0.000 eV
S(AB):            -0.00000000 Eh
|J(AB,eff)|:            0.000 eV
   
  Fragment 1 LUMO   Fragment 2 SOMO 
--------------------------------------
E_mon(orb) frag1 frag2              -2.782    -2.809 eV
J(AB):                0.000 eV
S(AB):            -0.00000000 Eh
|J(AB,eff)|:            0.000 eV
   
  Fragment 1 LUMO   Fragment 2 LUMO 
--------------------------------------
E_mon(orb) frag1 frag2              -2.782    -2.782 eV
J(AB):                0.000 eV
S(AB):            -0.00000000 Eh
|J(AB,eff)|:            0.000 eV
   
..............................................................................
:  total |J(AB,eff)| for hole transport (occ. MOs) :               0.000 eV  :
:  total |J(AB,eff)| for charge transport (unocc. MOs) :           0.000 eV  :
:  total |J(AB,eff)| for charge transfer (CT) :                    0.000 eV  :
..............................................................................
  
 Please remember, DIPRO is not available for restart!
   
normal termination of dipro
----------------------------------------------------------
 * finished run on 2024/12/10 at 15:18:03.235     
----------------------------------------------------------
 dipro:
 * wall-time:     0 d,  0 h,  0 min,  7.044 sec
 *  cpu-time:     0 d,  0 h,  0 min, 27.148 sec
 * ratio c/w:     3.854 speedup
