      -----------------------------------------------------------      
     |                   =====================                   |     
     |                           x T B                           |     
     |                   =====================                   |     
     |                         S. Grimme                         |     
     |          Mulliken Center for Theoretical Chemistry        |     
     |                    University of Bonn                     |     
      -----------------------------------------------------------      

   * xtb version 6.6.1 (8d0f1dd) compiled by 'runner@Mac-1690902418499.local' on 2023-08-01

   xtb is free software: you can redistribute it and/or modify it under
   the terms of the GNU Lesser General Public License as published by
   the Free Software Foundation, either version 3 of the License, or
   (at your option) any later version.
   
   xtb is distributed in the hope that it will be useful,
   but WITHOUT ANY WARRANTY; without even the implied warranty of
   MERCHANTABILITY or FITNESS FOR A PARTICULAR PURPOSE.  See the
   GNU Lesser General Public License for more details.
   
   Cite this work as:
   * C. Bannwarth, E. Caldeweyher, S. Ehlert, A. Hansen, P. Pracht,
     J. Seibert, S. Spicher, S. Grimme, WIREs Comput. Mol. Sci., 2020, 11,
     e01493. DOI: 10.1002/wcms.1493
   
   for GFN2-xTB:
   * C. Bannwarth, S. Ehlert and S. Grimme., J. Chem. Theory Comput., 2019,
     15, 1652-1671. DOI: 10.1021/acs.jctc.8b01176
   for GFN1-xTB:
   * S. Grimme, C. Bannwarth, P. Shushkov, J. Chem. Theory Comput., 2017,
     13, 1989-2009. DOI: 10.1021/acs.jctc.7b00118
   for GFN0-xTB:
   * P. Pracht, E. Caldeweyher, S. Ehlert, S. Grimme, ChemRxiv, 2019, preprint.
     DOI: 10.26434/chemrxiv.8326202.v1
   for GFN-FF:
   * S. Spicher and S. Grimme, Angew. Chem. Int. Ed., 2020, 59, 15665-15673.
     DOI: 10.1002/anie.202004239
   
   for ALPB and GBSA implicit solvation:
   * S. Ehlert, M. Stahn, S. Spicher, S. Grimme, J. Chem. Theory Comput.,
     2021, 17, 4250-4261. DOI: 10.1021/acs.jctc.1c00471
   
   for DFT-D4:
   * E. Caldeweyher, C. Bannwarth and S. Grimme, J. Chem. Phys., 2017,
     147, 034112. DOI: 10.1063/1.4993215
   * E. Caldeweyher, S. Ehlert, A. Hansen, H. Neugebauer, S. Spicher,
     C. Bannwarth and S. Grimme, J. Chem. Phys., 2019, 150, 154122.
     DOI: 10.1063/1.5090222
   * E. Caldeweyher, J.-M. Mewes, S. Ehlert and S. Grimme, Phys. Chem. Chem. Phys.
     2020, 22, 8499-8512. DOI: 10.1039/D0CP00502A
   
   for sTDA-xTB:
   * S. Grimme and C. Bannwarth, J. Chem. Phys., 2016, 145, 054103.
     DOI: 10.1063/1.4959605
   
   in the mass-spec context:
   * V. Asgeirsson, C. Bauer and S. Grimme, Chem. Sci., 2017, 8, 4879.
     DOI: 10.1039/c7sc00601b
   * J. Koopman and S. Grimme, ACS Omega 2019, 4, 12, 15120-15133.
     DOI: 10.1021/acsomega.9b02011
   
   for metadynamics refer to:
   * S. Grimme, J. Chem. Theory Comput., 2019, 155, 2847-2862
     DOI: 10.1021/acs.jctc.9b00143
   
   for SPH calculations refer to:
   * S. Spicher and S. Grimme, J. Chem. Theory Comput., 2021, 17, 1701-1714
     DOI: 10.1021/acs.jctc.0c01306
   
   with help from (in alphabetical order)
   P. Atkinson, C. Bannwarth, F. Bohle, G. Brandenburg, E. Caldeweyher
   M. Checinski, S. Dohm, S. Ehlert, S. Ehrlich, I. Gerasimov, C. Hölzer
   A. Katbashev, J. Koopman, C. Lavigne, S. Lehtola, F. März, M. Müller,
   F. Musil, H. Neugebauer, J. Pisarek, C. Plett, P. Pracht, F. Pultar,
   J. Seibert, P. Shushkov, S. Spicher, M. Stahn, M. Steiner, T. Strunk,
   J. Stückrath, T. Rose, and J. Unsleber
   
 * started run on 2024/11/12 at 11:18:38.019     

           -------------------------------------------------
          |                Calculation Setup                |
           -------------------------------------------------

          program call               : xtb Katherine2.mol --opt --gfn2 --chrg -2 --uhf 1 --tight
          coordinate file            : Katherine2.mol
          omp threads                :                     8

   ID    Z sym.   atoms
    1    6 C      1-21, 25-44, 47, 52-75
    2    8 O      22, 23, 45, 46, 48-51
    3    5 B      24
    4    1 H      76-141
########################################################################
[WARNING] Please study the warnings concerning your input carefully
-2- prog_main: Charge in sdf/mol input was overwritten
-1- prog_main_parseArguments: Unknown option '--tight' provided
########################################################################

           -------------------------------------------------
          |                 G F N 2 - x T B                 |
           -------------------------------------------------

        Reference                      10.1021/acs.jctc.8b01176
      * Hamiltonian:
        H0-scaling (s, p, d)           1.850000    2.230000    2.230000
        zeta-weighting                 0.500000
      * Dispersion:
        s8                             2.700000
        a1                             0.520000
        a2                             5.000000
        s9                             5.000000
      * Repulsion:
        kExp                           1.500000    1.000000
        rExp                           1.000000
      * Coulomb:
        alpha                          2.000000
        third order                    shell-resolved
        anisotropic                    true
        a3                             3.000000
        a5                             4.000000
        cn-shift                       1.200000
        cn-exp                         4.000000
        max-rad                        5.000000


          ...................................................
          :                      SETUP                      :
          :.................................................:
          :  # basis functions                 366          :
          :  # atomic orbitals                 366          :
          :  # shells                          216          :
          :  # electrons                       383          :
          :  max. iterations                   250          :
          :  Hamiltonian                  GFN2-xTB          :
          :  restarted?                      false          :
          :  GBSA solvation                  false          :
          :  PC potential                    false          :
          :  electronic temp.          300.0000000     K    :
          :  accuracy                    1.0000000          :
          :  -> integral cutoff          0.2500000E+02      :
          :  -> integral neglect         0.1000000E-07      :
          :  -> SCF convergence          0.1000000E-05 Eh   :
          :  -> wf. convergence          0.1000000E-03 e    :
          :  Broyden damping             0.4000000          :
          ...................................................

 iter      E             dE          RMSdq      gap      omega  full diag
   1   -212.0015757 -0.212002E+03  0.412E+00    1.39       0.0  T
   2   -212.3607010 -0.359125E+00  0.237E+00    0.58       1.0  T
   3   -211.8725060  0.488195E+00  0.165E+00    0.11       1.0  T
   4   -211.8013759  0.711300E-01  0.144E+00    0.56       1.0  T
   5   -212.4261274 -0.624751E+00  0.609E-01    0.77       1.0  T
   6   -212.4995608 -0.734334E-01  0.210E-01    0.94       1.0  T
   7   -212.4890069  0.105539E-01  0.234E-01    0.93       1.0  T
   8   -212.4683916  0.206152E-01  0.345E-01    0.82       1.0  T
   9   -212.4910329 -0.226412E-01  0.209E-01    0.97       1.0  T
  10   -212.5002426 -0.920969E-02  0.119E-01    0.96       1.0  T
  11   -212.5056252 -0.538266E-02  0.163E-02    1.00       1.0  T
  12   -212.5056506 -0.253202E-04  0.107E-02    1.00       1.0  T
  13   -212.5056844 -0.338780E-04  0.218E-03    1.00       3.9  T
  14   -212.5056831  0.131530E-05  0.232E-03    1.00       3.6  T
  15   -212.5056843 -0.116909E-05  0.139E-03    1.00       6.1  T
  16   -212.5056849 -0.586563E-06  0.391E-04    1.00      21.5  T
  17   -212.5056849 -0.371937E-07  0.831E-05    1.00     101.3  T

   *** convergence criteria satisfied after 17 iterations ***

         #    Occupation            Energy/Eh            Energy/eV
      -------------------------------------------------------------
         1        2.0000           -0.5127746             -13.9533
       ...           ...                  ...                  ...
       186        2.0000           -0.1976486              -5.3783
       187        2.0000           -0.1939178              -5.2768
       188        2.0000           -0.1923879              -5.2351
       189        2.0000           -0.1898795              -5.1669
       190        2.0000           -0.1890734              -5.1449
       191        1.5813           -0.1509338              -4.1071
       192        1.4187           -0.1503102              -4.0901 (HOMO)
       193                         -0.1135217              -3.0891 (LUMO)
       194                         -0.1130707              -3.0768
       195                         -0.0765823              -2.0839
       196                         -0.0756039              -2.0573
       197                         -0.0577139              -1.5705
       ...                                ...                  ...
       366                          1.1930871              32.4656
      -------------------------------------------------------------
                  HL-Gap            0.0367885 Eh            1.0011 eV
             Fermi-level           -0.1412846 Eh           -3.8446 eV

 SCC (total)                   0 d,  0 h,  0 min,  1.345 sec
 SCC setup                      ...        0 min,  0.001 sec (  0.070%)
 Dispersion                     ...        0 min,  0.005 sec (  0.385%)
 classical contributions        ...        0 min,  0.001 sec (  0.084%)
 integral evaluation            ...        0 min,  0.018 sec (  1.311%)
 iterations                     ...        0 min,  1.248 sec ( 92.717%)
 molecular gradient             ...        0 min,  0.061 sec (  4.557%)
 printout                       ...        0 min,  0.012 sec (  0.874%)

         :::::::::::::::::::::::::::::::::::::::::::::::::::::
         ::                     SUMMARY                     ::
         :::::::::::::::::::::::::::::::::::::::::::::::::::::
         :: total energy            -209.223199223175 Eh    ::
         :: gradient norm              0.304385410974 Eh/a0 ::
         :: HOMO-LUMO gap              1.001066107712 eV    ::
         ::.................................................::
         :: SCC energy              -212.505684917638 Eh    ::
         :: -> isotropic ES            0.503453851032 Eh    ::
         :: -> anisotropic ES          0.028809083495 Eh    ::
         :: -> anisotropic XC          0.066078442959 Eh    ::
         :: -> dispersion             -0.209569353652 Eh    ::
         :: repulsion energy           3.279566034305 Eh    ::
         :: add. restraining           0.000000000000 Eh    ::
         :: total charge              -2.000000000400 e     ::
         :::::::::::::::::::::::::::::::::::::::::::::::::::::

      ----------------------------------------------------------- 
     |                   =====================                   |
     |                        A N C O P T                        |
     |                   =====================                   |
     |               Approximate Normal Coordinate               |
     |                Rational Function Optimizer                |
      ----------------------------------------------------------- 

          ...................................................
          :                      SETUP                      :
          :.................................................:
          :   optimization level            normal          :
          :   max. optcycles                   423          :
          :   ANC micro-cycles                  20          :
          :   degrees of freedom               417          :
          :.................................................:
          :   RF solver                   davidson          :
          :   write xtbopt.log                true          :
          :   linear?                        false          :
          :   energy convergence         0.5000000E-05 Eh   :
          :   grad. convergence          0.1000000E-02 Eh/α :
          :   maxmium RF displ.          1.0000000          :
          :   Hlow (freq-cutoff)         0.1000000E-01      :
          :   Hmax (freq-cutoff)         5.0000000          :
          :   S6 in model hess.         20.0000000          :
          ...................................................

generating ANC from model Hessian ...
Using Lindh-Hessian (1995)
 Shifting diagonal of input Hessian by    9.9710332750351446E-003
 Lowest  eigenvalues of input Hessian
    0.000000    0.000000    0.000000    0.000000    0.000000    0.000000
    0.010000    0.010040    0.010062    0.010233    0.010269    0.010384
    0.010389    0.010428    0.010703    0.010729    0.010781    0.010975
 Highest eigenvalues
    2.018941    2.023626    2.188521    2.189969    2.214259    2.215411


........................................................................
.............................. CYCLE    1 ..............................
........................................................................

 iter      E             dE          RMSdq      gap      omega  full diag
   1   -212.5056849 -0.212506E+03  0.136E-04    1.00       0.0  T
   2   -212.5056838  0.114304E-05  0.176E-03    1.00       4.8  T
   3   -212.5056849 -0.114895E-05  0.419E-05    1.00     200.8  T
   4   -212.5056849  0.348734E-09  0.488E-05    1.00     172.4  T
   5   -212.5056849 -0.788845E-09  0.730E-06    1.00    1153.2  T
     SCC iter.                  ...        0 min,  0.349 sec
     gradient                   ...        0 min,  0.078 sec
 * total energy  :  -209.2231992 Eh     change       -0.2242786E-08 Eh
   gradient norm :     0.3043850 Eh/α   predicted     0.0000000E+00 (-100.00%)
   displ. norm   :     0.6449794 α      lambda       -0.1546481E+00
   maximum displ.:     0.1475701 α      in ANC's #154, #84, #296, ...

........................................................................
.............................. CYCLE    2 ..............................
........................................................................

 iter      E             dE          RMSdq      gap      omega  full diag
   1   -212.5364853 -0.212536E+03  0.249E-01    0.99       0.0  T
   2   -212.5265632  0.992209E-02  0.257E-01    1.09       1.0  T
   3   -212.4964496  0.301136E-01  0.367E-01    0.81       1.0  T
   4   -212.5349609 -0.385113E-01  0.137E-01    1.02       1.0  T
   5   -212.5280524  0.690842E-02  0.175E-01    1.02       1.0  T
   6   -212.5379912 -0.993880E-02  0.745E-02    1.05       1.0  T
   7   -212.5400940 -0.210278E-02  0.248E-02    1.07       1.0  T
   8   -212.5403160 -0.221943E-03  0.617E-03    1.07       1.4  T
   9   -212.5403274 -0.114379E-04  0.173E-03    1.07       4.9  T
  10   -212.5403274  0.446977E-07  0.152E-03    1.07       5.5  T
  11   -212.5403276 -0.208016E-06  0.117E-03    1.07       7.2  T
  12   -212.5403279 -0.363456E-06  0.714E-04    1.07      11.8  T
  13   -212.5403281 -0.212526E-06  0.462E-05    1.07     182.2  T
     SCC iter.                  ...        0 min,  1.310 sec
     gradient                   ...        0 min,  0.060 sec
 * total energy  :  -209.3393513 Eh     change       -0.1161521E+00 Eh
   gradient norm :     0.1478024 Eh/α   predicted    -0.1095320E+00 (  -5.70%)
   displ. norm   :     0.6251630 α      lambda       -0.7236937E-01
   maximum displ.:     0.1828410 α      in ANC's #146, #84, #111, ...

........................................................................
.............................. CYCLE    3 ..............................
........................................................................

 iter      E             dE          RMSdq      gap      omega  full diag
   1   -212.5373286 -0.212537E+03  0.182E-01    1.10       0.0  T
   2   -212.5370251  0.303456E-03  0.151E-01    1.18       1.0  T
   3   -212.5144212  0.226039E-01  0.249E-01    1.02       1.0  T
   4   -212.5139989  0.422347E-03  0.243E-01    1.00       1.0  T
   5   -212.5389534 -0.249545E-01  0.283E-02    1.15       1.0  T
   6   -212.5390497 -0.963430E-04  0.115E-02    1.15       1.0  T
   7   -212.5390838 -0.340714E-04  0.435E-03    1.15       1.9  T
   8   -212.5390870 -0.327071E-05  0.191E-03    1.15       4.4  T
   9   -212.5390880 -0.967603E-06  0.675E-04    1.15      12.5  T
  10   -212.5390880 -0.264673E-07  0.367E-04    1.15      22.9  T
     SCC iter.                  ...        0 min,  0.744 sec
     gradient                   ...        0 min,  0.065 sec
 * total energy  :  -209.3914675 Eh     change       -0.5211624E-01 Eh
   gradient norm :     0.0543988 Eh/α   predicted    -0.5032671E-01 (  -3.43%)
   displ. norm   :     0.6887045 α      lambda       -0.3255415E-01
   maximum displ.:     0.2404670 α      in ANC's #84, #18, #70, ...

........................................................................
.............................. CYCLE    4 ..............................
........................................................................

 iter      E             dE          RMSdq      gap      omega  full diag
   1   -212.5493842 -0.212549E+03  0.142E-01    1.17       0.0  T
   2   -212.5493475  0.367728E-04  0.890E-02    1.19       1.0  T
   3   -212.5261560  0.231914E-01  0.228E-01    1.04       1.0  T
   4   -212.5405861 -0.144300E-01  0.143E-01    1.12       1.0  T
   5   -212.5491343 -0.854826E-02  0.326E-02    1.17       1.0  T
   6   -212.5495760 -0.441656E-03  0.429E-03    1.18       2.0  T
   7   -212.5495719  0.404287E-05  0.374E-03    1.18       2.3  T
   8   -212.5495761 -0.420034E-05  0.203E-03    1.18       4.2  T
   9   -212.5495779 -0.181298E-05  0.329E-04    1.18      25.6  T
  10   -212.5495780 -0.150024E-07  0.169E-04    1.18      49.9  T
  11   -212.5495779  0.126282E-07  0.188E-04    1.18      44.8  T
     SCC iter.                  ...        0 min,  0.889 sec
     gradient                   ...        0 min,  0.074 sec
 * total energy  :  -209.4170969 Eh     change       -0.2562938E-01 Eh
   gradient norm :     0.0344377 Eh/α   predicted    -0.2399753E-01 (  -6.37%)
   displ. norm   :     0.7245185 α      lambda       -0.2006179E-01
   maximum displ.:     0.2652309 α      in ANC's #18, #84, #70, ...

........................................................................
.............................. CYCLE    5 ..............................
........................................................................

 iter      E             dE          RMSdq      gap      omega  full diag
   1   -212.5586516 -0.212559E+03  0.129E-01    1.19       0.0  T
   2   -212.5580564  0.595223E-03  0.846E-02    1.18       1.0  T
   3   -212.5260983  0.319581E-01  0.274E-01    0.95       1.0  T
   4   -212.5566595 -0.305612E-01  0.680E-02    1.15       1.0  T
   5   -212.5585638 -0.190429E-02  0.191E-02    1.18       1.0  T
   6   -212.5587082 -0.144428E-03  0.623E-03    1.19       1.4  T
   7   -212.5587189 -0.107103E-04  0.237E-03    1.19       3.5  T
   8   -212.5587202 -0.124123E-05  0.137E-03    1.19       6.1  T
   9   -212.5587209 -0.686072E-06  0.268E-04    1.19      31.4  T
  10   -212.5587208  0.880777E-07  0.468E-04    1.19      18.0  T
     SCC iter.                  ...        0 min,  0.764 sec
     gradient                   ...        0 min,  0.061 sec
 * total energy  :  -209.4334601 Eh     change       -0.1636313E-01 Eh
   gradient norm :     0.0263174 Eh/α   predicted    -0.1529640E-01 (  -6.52%)
   displ. norm   :     0.7445599 α      lambda       -0.1352599E-01
   maximum displ.:     0.3143001 α      in ANC's #18, #29, #70, ...

........................................................................
.............................. CYCLE    6 ..............................
........................................................................

 iter      E             dE          RMSdq      gap      omega  full diag
   1   -212.5656717 -0.212566E+03  0.118E-01    1.18       0.0  T
   2   -212.5650225  0.649260E-03  0.792E-02    1.17       1.0  T
   3   -212.5339840  0.310385E-01  0.270E-01    0.96       1.0  T
   4   -212.5640759 -0.300920E-01  0.614E-02    1.16       1.0  T
   5   -212.5656956 -0.161971E-02  0.871E-03    1.18       1.0  T
   6   -212.5657218 -0.261769E-04  0.293E-03    1.18       2.9  T
   7   -212.5657231 -0.130658E-05  0.110E-03    1.18       7.7  T
   8   -212.5657232 -0.976586E-07  0.663E-04    1.18      12.7  T
   9   -212.5657233 -0.105703E-06  0.241E-04    1.18      34.9  T
     SCC iter.                  ...        0 min,  0.798 sec
     gradient                   ...        0 min,  0.064 sec
 * total energy  :  -209.4446188 Eh     change       -0.1115871E-01 Eh
   gradient norm :     0.0176426 Eh/α   predicted    -0.1051219E-01 (  -5.79%)
   displ. norm   :     0.7527380 α      lambda       -0.9357193E-02
   maximum displ.:     0.3472959 α      in ANC's #18, #29, #70, ...

........................................................................
.............................. CYCLE    7 ..............................
........................................................................

 iter      E             dE          RMSdq      gap      omega  full diag
   1   -212.5719603 -0.212572E+03  0.104E-01    1.17       0.0  T
   2   -212.5712108  0.749555E-03  0.736E-02    1.16       1.0  T
   3   -212.5417716  0.294392E-01  0.263E-01    0.98       1.0  T
   4   -212.5708516 -0.290800E-01  0.523E-02    1.15       1.0  T
   5   -212.5720027 -0.115104E-02  0.495E-03    1.17       1.7  T
   6   -212.5719997  0.297772E-05  0.441E-03    1.17       1.9  T
   7   -212.5720047 -0.504094E-05  0.285E-03    1.17       3.0  T
   8   -212.5720075 -0.278453E-05  0.130E-03    1.17       6.5  T
   9   -212.5720082 -0.637817E-06  0.516E-04    1.17      16.3  T
  10   -212.5720082 -0.830517E-07  0.194E-04    1.17      43.4  T
     SCC iter.                  ...        0 min,  0.618 sec
     gradient                   ...        0 min,  0.062 sec
 * total energy  :  -209.4524150 Eh     change       -0.7796266E-02 Eh
   gradient norm :     0.0128779 Eh/α   predicted    -0.7329560E-02 (  -5.99%)
   displ. norm   :     0.7563008 α      lambda       -0.6723317E-02
   maximum displ.:     0.3659368 α      in ANC's #18, #29, #28, ...

........................................................................
.............................. CYCLE    8 ..............................
........................................................................

 iter      E             dE          RMSdq      gap      omega  full diag
   1   -212.5775111 -0.212578E+03  0.917E-02    1.17       0.0  T
   2   -212.5768874  0.623724E-03  0.653E-02    1.16       1.0  T
   3   -212.5494919  0.273956E-01  0.252E-01    1.00       1.0  T
   4   -212.5771471 -0.276552E-01  0.333E-02    1.16       1.0  T
   5   -212.5775169 -0.369820E-03  0.951E-03    1.17       1.0  T
   6   -212.5775317 -0.147968E-04  0.699E-03    1.17       1.2  T
   7   -212.5775529 -0.212013E-04  0.200E-03    1.17       4.2  T
   8   -212.5775544 -0.142947E-05  0.628E-04    1.17      13.4  T
   9   -212.5775545 -0.111419E-06  0.192E-04    1.17      43.9  T
  10   -212.5775545  0.109369E-07  0.206E-04    1.17      40.8  T
     SCC iter.                  ...        0 min,  0.924 sec
     gradient                   ...        0 min,  0.066 sec
 * total energy  :  -209.4580443 Eh     change       -0.5629262E-02 Eh
   gradient norm :     0.0113848 Eh/α   predicted    -0.5284520E-02 (  -6.12%)
   displ. norm   :     0.7495246 α      lambda       -0.4896459E-02
   maximum displ.:     0.3657051 α      in ANC's #18, #29, #4, ...

........................................................................
.............................. CYCLE    9 ..............................
........................................................................

 iter      E             dE          RMSdq      gap      omega  full diag
   1   -212.5825854 -0.212583E+03  0.840E-02    1.16       0.0  T
   2   -212.5821332  0.452175E-03  0.581E-02    1.16       1.0  T
   3   -212.5560260  0.261072E-01  0.244E-01    1.01       1.0  T
   4   -212.5824092 -0.263832E-01  0.248E-02    1.16       1.0  T
   5   -212.5825788 -0.169589E-03  0.939E-03    1.16       1.0  T
   6   -212.5826028 -0.240563E-04  0.546E-03    1.16       1.5  T
   7   -212.5826163 -0.134710E-04  0.991E-04    1.16       8.5  T
   8   -212.5826163 -0.365875E-07  0.747E-04    1.16      11.3  T
   9   -212.5826165 -0.194247E-06  0.240E-04    1.16      35.0  T
     SCC iter.                  ...        0 min,  0.615 sec
     gradient                   ...        0 min,  0.061 sec
 * total energy  :  -209.4621049 Eh     change       -0.4060642E-02 Eh
   gradient norm :     0.0099865 Eh/α   predicted    -0.3823632E-02 (  -5.84%)
   displ. norm   :     0.7247102 α      lambda       -0.3441469E-02
   maximum displ.:     0.3438171 α      in ANC's #18, #29, #4, ...

........................................................................
.............................. CYCLE   10 ..............................
........................................................................

 iter      E             dE          RMSdq      gap      omega  full diag
   1   -212.5859997 -0.212586E+03  0.756E-02    1.16       0.0  T
   2   -212.5858096  0.190122E-03  0.488E-02    1.16       1.0  T
   3   -212.5630647  0.227450E-01  0.225E-01    1.05       1.0  T
   4   -212.5859303 -0.228656E-01  0.175E-02    1.16       1.0  T
   5   -212.5859717 -0.413961E-04  0.108E-02    1.16       1.0  T
   6   -212.5860217 -0.499571E-04  0.224E-03    1.16       3.8  T
   7   -212.5860235 -0.179602E-05  0.658E-04    1.16      12.8  T
   8   -212.5860233  0.194921E-06  0.830E-04    1.16      10.1  T
   9   -212.5860235 -0.275666E-06  0.266E-04    1.16      31.6  T
     SCC iter.                  ...        0 min,  0.620 sec
     gradient                   ...        0 min,  0.062 sec
 * total energy  :  -209.4648969 Eh     change       -0.2791977E-02 Eh
   gradient norm :     0.0082427 Eh/α   predicted    -0.2624474E-02 (  -6.00%)
   displ. norm   :     0.6839250 α      lambda       -0.2316804E-02
   maximum displ.:     0.3009338 α      in ANC's #18, #4, #29, ...

........................................................................
.............................. CYCLE   11 ..............................
........................................................................

 iter      E             dE          RMSdq      gap      omega  full diag
   1   -212.5883580 -0.212588E+03  0.704E-02    1.16       0.0  T
   2   -212.5881131  0.244874E-03  0.469E-02    1.16       1.0  T
   3   -212.5650072  0.231059E-01  0.227E-01    1.04       1.0  T
   4   -212.5883182 -0.233110E-01  0.135E-02    1.16       1.0  T
   5   -212.5883482 -0.300122E-04  0.697E-03    1.16       1.2  T
   6   -212.5883685 -0.202578E-04  0.183E-03    1.16       4.6  T
   7   -212.5883698 -0.135652E-05  0.450E-04    1.16      18.7  T
   8   -212.5883697  0.175319E-06  0.652E-04    1.16      12.9  T
   9   -212.5883698 -0.166100E-06  0.235E-04    1.16      35.8  T
     SCC iter.                  ...        0 min,  0.651 sec
     gradient                   ...        0 min,  0.066 sec
 * total energy  :  -209.4667477 Eh     change       -0.1850765E-02 Eh
   gradient norm :     0.0078843 Eh/α   predicted    -0.1700250E-02 (  -8.13%)
   displ. norm   :     0.6466121 α      lambda       -0.1644930E-02
   maximum displ.:     0.2723767 α      in ANC's #4, #18, #29, ...

........................................................................
.............................. CYCLE   12 ..............................
........................................................................

 iter      E             dE          RMSdq      gap      omega  full diag
   1   -212.5897180 -0.212590E+03  0.597E-02    1.16       0.0  T
   2   -212.5896427  0.752841E-04  0.375E-02    1.16       1.0  T
   3   -212.5736241  0.160186E-01  0.188E-01    1.09       1.0  T
   4   -212.5895174 -0.158933E-01  0.226E-02    1.16       1.0  T
   5   -212.5897179 -0.200485E-03  0.546E-03    1.16       1.5  T
   6   -212.5897305 -0.126580E-04  0.101E-03    1.16       8.3  T
   7   -212.5897308 -0.245620E-06  0.465E-04    1.16      18.1  T
   8   -212.5897308 -0.150202E-07  0.315E-04    1.16      26.7  T
     SCC iter.                  ...        0 min,  0.701 sec
     gradient                   ...        0 min,  0.064 sec
 * total energy  :  -209.4680792 Eh     change       -0.1331531E-02 Eh
   gradient norm :     0.0086004 Eh/α   predicted    -0.1166345E-02 ( -12.41%)
   displ. norm   :     0.6385402 α      lambda       -0.1378867E-02
   maximum displ.:     0.3122065 α      in ANC's #4, #18, #29, ...

........................................................................
.............................. CYCLE   13 ..............................
........................................................................

 iter      E             dE          RMSdq      gap      omega  full diag
   1   -212.5904577 -0.212590E+03  0.561E-02    1.16       0.0  T
   2   -212.5901796  0.278116E-03  0.406E-02    1.16       1.0  T
   3   -212.5710233  0.191563E-01  0.206E-01    1.07       1.0  T
   4   -212.5903992 -0.193758E-01  0.132E-02    1.16       1.0  T
   5   -212.5904569 -0.577529E-04  0.423E-03    1.16       2.0  T
   6   -212.5904641 -0.723165E-05  0.129E-03    1.16       6.5  T
   7   -212.5904648 -0.635976E-06  0.548E-04    1.16      15.4  T
   8   -212.5904648 -0.318049E-07  0.372E-04    1.16      22.6  T
     SCC iter.                  ...        0 min,  0.536 sec
     gradient                   ...        0 min,  0.065 sec
 * total energy  :  -209.4692366 Eh     change       -0.1157418E-02 Eh
   gradient norm :     0.0075010 Eh/α   predicted    -0.9705436E-03 ( -16.15%)
   displ. norm   :     0.6553883 α      lambda       -0.1325161E-02
   maximum displ.:     0.3557710 α      in ANC's #4, #7, #8, ...

........................................................................
.............................. CYCLE   14 ..............................
........................................................................

 iter      E             dE          RMSdq      gap      omega  full diag
   1   -212.5909368 -0.212591E+03  0.507E-02    1.16       0.0  T
   2   -212.5908856  0.512364E-04  0.320E-02    1.16       1.0  T
   3   -212.5762874  0.145982E-01  0.178E-01    1.09       1.0  T
   4   -212.5909305 -0.146431E-01  0.801E-03    1.16       1.1  T
   5   -212.5909430 -0.125409E-04  0.230E-03    1.16       3.7  T
   6   -212.5909445 -0.142868E-05  0.842E-04    1.16      10.0  T
   7   -212.5909446 -0.119978E-06  0.452E-04    1.16      18.6  T
   8   -212.5909446 -0.203184E-07  0.233E-04    1.16      36.1  T
     SCC iter.                  ...        0 min,  0.611 sec
     gradient                   ...        0 min,  0.066 sec
 * total energy  :  -209.4703659 Eh     change       -0.1129323E-02 Eh
   gradient norm :     0.0071363 Eh/α   predicted    -0.9471814E-03 ( -16.13%)
   displ. norm   :     0.6653885 α      lambda       -0.1219494E-02
   maximum displ.:     0.3858713 α      in ANC's #4, #8, #7, ...

........................................................................
.............................. CYCLE   15 ..............................
........................................................................

 iter      E             dE          RMSdq      gap      omega  full diag
   1   -212.5899701 -0.212590E+03  0.472E-02    1.16       0.0  T
   2   -212.5898821  0.880076E-04  0.311E-02    1.16       1.0  T
   3   -212.5748929  0.149892E-01  0.181E-01    1.09       1.0  T
   4   -212.5899595 -0.150666E-01  0.825E-03    1.16       1.0  T
   5   -212.5899767 -0.171487E-04  0.301E-03    1.16       2.8  T
   6   -212.5899793 -0.258543E-05  0.112E-03    1.16       7.5  T
   7   -212.5899796 -0.377615E-06  0.457E-04    1.16      18.4  T
   8   -212.5899796 -0.116401E-07  0.240E-04    1.16      35.1  T
     SCC iter.                  ...        0 min,  0.633 sec
     gradient                   ...        0 min,  0.064 sec
 * total energy  :  -209.4713774 Eh     change       -0.1011438E-02 Eh
   gradient norm :     0.0063360 Eh/α   predicted    -0.8797085E-03 ( -13.02%)
   displ. norm   :     0.6235426 α      lambda       -0.9370796E-03
   maximum displ.:     0.3781246 α      in ANC's #4, #8, #7, ...

........................................................................
.............................. CYCLE   16 ..............................
........................................................................

 iter      E             dE          RMSdq      gap      omega  full diag
   1   -212.5896496 -0.212590E+03  0.399E-02    1.16       0.0  T
   2   -212.5894527  0.196839E-03  0.317E-02    1.17       1.0  T
   3   -212.5771267  0.123260E-01  0.164E-01    1.10       1.0  T
   4   -212.5896484 -0.125217E-01  0.592E-03    1.16       1.4  T
   5   -212.5896553 -0.686896E-05  0.178E-03    1.16       4.7  T
   6   -212.5896560 -0.739834E-06  0.748E-04    1.16      11.3  T
   7   -212.5896561 -0.959739E-07  0.403E-04    1.16      20.9  T
     SCC iter.                  ...        0 min,  0.537 sec
     gradient                   ...        0 min,  0.064 sec
 * total energy  :  -209.4721353 Eh     change       -0.7579095E-03 Eh
   gradient norm :     0.0071639 Eh/α   predicted    -0.6507137E-03 ( -14.14%)
   displ. norm   :     0.5406472 α      lambda       -0.6838421E-03
   maximum displ.:     0.3398130 α      in ANC's #4, #8, #7, ...

........................................................................
.............................. CYCLE   17 ..............................
........................................................................

 iter      E             dE          RMSdq      gap      omega  full diag
   1   -212.5895798 -0.212590E+03  0.317E-02    1.17       0.0  T
   2   -212.5876500  0.192976E-02  0.669E-02    1.15       1.0  T
   3   -212.5879187 -0.268651E-03  0.626E-02    1.16       1.0  T
   4   -212.5895875 -0.166885E-02  0.883E-03    1.16       1.0  T
   5   -212.5896050 -0.175137E-04  0.218E-03    1.16       3.9  T
   6   -212.5896062 -0.120070E-05  0.581E-04    1.16      14.5  T
   7   -212.5896063 -0.238997E-07  0.370E-04    1.16      22.7  T
   8   -212.5896063 -0.192486E-07  0.152E-04    1.16      55.4  T
     SCC iter.                  ...        0 min,  0.540 sec
     gradient                   ...        0 min,  0.062 sec
 * total energy  :  -209.4726969 Eh     change       -0.5616198E-03 Eh
   gradient norm :     0.0061935 Eh/α   predicted    -0.4418690E-03 ( -21.32%)
   displ. norm   :     0.4956783 α      lambda       -0.5795271E-03
   maximum displ.:     0.3175840 α      in ANC's #4, #8, #7, ...

........................................................................
.............................. CYCLE   18 ..............................
........................................................................

 iter      E             dE          RMSdq      gap      omega  full diag
   1   -212.5921632 -0.212592E+03  0.279E-02    1.16       0.0  T
   2   -212.5920960  0.671946E-04  0.203E-02    1.16       1.0  T
   3   -212.5850274  0.706867E-02  0.124E-01    1.13       1.0  T
   4   -212.5921577 -0.713035E-02  0.565E-03    1.16       1.5  T
   5   -212.5921648 -0.711875E-05  0.162E-03    1.17       5.2  T
   6   -212.5921657 -0.910411E-06  0.588E-04    1.16      14.3  T
   7   -212.5921658 -0.795036E-07  0.258E-04    1.16      32.6  T
     SCC iter.                  ...        0 min,  0.469 sec
     gradient                   ...        0 min,  0.059 sec
 * total energy  :  -209.4731811 Eh     change       -0.4842252E-03 Eh
   gradient norm :     0.0057676 Eh/α   predicted    -0.3609622E-03 ( -25.46%)
   displ. norm   :     0.5119295 α      lambda       -0.5438556E-03
   maximum displ.:     0.3279655 α      in ANC's #4, #3, #8, ...

........................................................................
.............................. CYCLE   19 ..............................
........................................................................

 iter      E             dE          RMSdq      gap      omega  full diag
   1   -212.5938317 -0.212594E+03  0.303E-02    1.17       0.0  T
   2   -212.5898338  0.399786E-02  0.943E-02    1.14       1.0  T
   3   -212.5931614 -0.332754E-02  0.425E-02    1.17       1.0  T
   4   -212.5938623 -0.700975E-03  0.730E-03    1.16       1.2  T
   5   -212.5938747 -0.123904E-04  0.163E-03    1.17       5.2  T
   6   -212.5938752 -0.522874E-06  0.558E-04    1.16      15.1  T
   7   -212.5938753 -0.659365E-07  0.261E-04    1.17      32.2  T
     SCC iter.                  ...        0 min,  0.552 sec
     gradient                   ...        0 min,  0.059 sec
 * total energy  :  -209.4736470 Eh     change       -0.4658557E-03 Eh
   gradient norm :     0.0057506 Eh/α   predicted    -0.3431931E-03 ( -26.33%)
   displ. norm   :     0.5510426 α      lambda       -0.5384857E-03
   maximum displ.:     0.3506499 α      in ANC's #4, #3, #8, ...

........................................................................
.............................. CYCLE   20 ..............................
........................................................................

 iter      E             dE          RMSdq      gap      omega  full diag
   1   -212.5952185 -0.212595E+03  0.331E-02    1.17       0.0  T
   2   -212.5940567  0.116185E-02  0.532E-02    1.15       1.0  T
   3   -212.5920838  0.197290E-02  0.842E-02    1.15       1.0  T
   4   -212.5952249 -0.314108E-02  0.472E-03    1.16       1.8  T
   5   -212.5952303 -0.538151E-05  0.111E-03    1.17       7.6  T
   6   -212.5952305 -0.285407E-06  0.503E-04    1.17      16.7  T
   7   -212.5952306 -0.364698E-07  0.224E-04    1.17      37.5  T
     SCC iter.                  ...        0 min,  0.460 sec
     gradient                   ...        0 min,  0.062 sec
 * total energy  :  -209.4741157 Eh     change       -0.4686610E-03 Eh
   gradient norm :     0.0055975 Eh/α   predicted    -0.3509988E-03 ( -25.11%)
   displ. norm   :     0.5869693 α      lambda       -0.5324557E-03
   maximum displ.:     0.3727790 α      in ANC's #4, #3, #8, ...
 * RMSD in coord.:     0.8292903 α      energy gain  -0.2509164E+00 Eh

generating ANC from model Hessian ...
Using Lindh-Hessian (1995)
 Shifting diagonal of input Hessian by    1.0097436021216833E-002
 Lowest  eigenvalues of input Hessian
    0.010000    0.000000    0.000000    0.000000    0.000000    0.000000
    0.000000    0.010117    0.010129    0.010183    0.010204    0.010360
    0.010426    0.010472    0.010498    0.010588    0.010652    0.010676
 Highest eigenvalues
    2.079515    2.080026    2.199663    2.203003    2.219601    2.222309


........................................................................
.............................. CYCLE   21 ..............................
........................................................................

 iter      E             dE          RMSdq      gap      omega  full diag
   1   -212.5958390 -0.212596E+03  0.355E-02    1.17       0.0  T
   2   -212.5945108  0.132816E-02  0.571E-02    1.15       1.0  T
   3   -212.5923722  0.213865E-02  0.887E-02    1.15       1.0  T
   4   -212.5958478 -0.347562E-02  0.448E-03    1.16       1.9  T
   5   -212.5958527 -0.486100E-05  0.120E-03    1.17       7.0  T
   6   -212.5958530 -0.338794E-06  0.482E-04    1.17      17.5  T
   7   -212.5958530 -0.146428E-07  0.255E-04    1.17      33.1  T
     SCC iter.                  ...        0 min,  0.454 sec
     gradient                   ...        0 min,  0.066 sec
 * total energy  :  -209.4745756 Eh     change       -0.4599576E-03 Eh
   gradient norm :     0.0049497 Eh/α   predicted     0.0000000E+00 (-100.00%)
   displ. norm   :     0.0970761 α      lambda       -0.1538045E-03
   maximum displ.:     0.0431939 α      in ANC's #4, #7, #10, ...

........................................................................
.............................. CYCLE   22 ..............................
........................................................................

 iter      E             dE          RMSdq      gap      omega  full diag
   1   -212.5959562 -0.212596E+03  0.112E-02    1.16       0.0  T
   2   -212.5949944  0.961827E-03  0.461E-02    1.16       1.0  T
   3   -212.5959398 -0.945488E-03  0.931E-03    1.16       1.0  T
   4   -212.5959640 -0.241574E-04  0.278E-03    1.17       3.0  T
   5   -212.5959656 -0.160192E-05  0.590E-04    1.17      14.3  T
   6   -212.5959657 -0.739533E-07  0.205E-04    1.17      41.0  T
   7   -212.5959657 -0.230571E-08  0.129E-04    1.17      65.1  T
     SCC iter.                  ...        0 min,  0.355 sec
     gradient                   ...        0 min,  0.061 sec
 * total energy  :  -209.4747101 Eh     change       -0.1344457E-03 Eh
   gradient norm :     0.0028456 Eh/α   predicted    -0.7909110E-04 ( -41.17%)
   displ. norm   :     0.3453396 α      lambda       -0.4053571E-03
   maximum displ.:     0.1571160 α      in ANC's #4, #7, #13, ...

........................................................................
.............................. CYCLE   23 ..............................
........................................................................

 iter      E             dE          RMSdq      gap      omega  full diag
   1   -212.5959897 -0.212596E+03  0.309E-02    1.16       0.0  T
   2   -212.5903531  0.563664E-02  0.112E-01    1.14       1.0  T
   3   -212.5957364 -0.538334E-02  0.303E-02    1.16       1.0  T
   4   -212.5960365 -0.300147E-03  0.764E-03    1.16       1.1  T
   5   -212.5960517 -0.151977E-04  0.164E-03    1.17       5.1  T
   6   -212.5960524 -0.625676E-06  0.572E-04    1.17      14.7  T
   7   -212.5960524 -0.367821E-07  0.320E-04    1.17      26.3  T
     SCC iter.                  ...        0 min,  0.440 sec
     gradient                   ...        0 min,  0.062 sec
 * total energy  :  -209.4749801 Eh     change       -0.2700744E-03 Eh
   gradient norm :     0.0049892 Eh/α   predicted    -0.2268617E-03 ( -16.00%)
   displ. norm   :     0.2668523 α      lambda       -0.1846484E-03
   maximum displ.:     0.1325960 α      in ANC's #4, #7, #13, ...

........................................................................
.............................. CYCLE   24 ..............................
........................................................................

 iter      E             dE          RMSdq      gap      omega  full diag
   1   -212.5957030 -0.212596E+03  0.188E-02    1.16       0.0  T
   2   -212.5944553  0.124767E-02  0.531E-02    1.16       1.0  T
   3   -212.5954471 -0.991736E-03  0.259E-02    1.16       1.0  T
   4   -212.5957113 -0.264225E-03  0.368E-03    1.17       2.3  T
   5   -212.5957151 -0.384598E-05  0.663E-04    1.17      12.7  T
   6   -212.5957152 -0.823530E-07  0.282E-04    1.17      29.9  T
   7   -212.5957152 -0.265686E-08  0.157E-04    1.17      53.6  T
     SCC iter.                  ...        0 min,  0.460 sec
     gradient                   ...        0 min,  0.065 sec
 * total energy  :  -209.4751290 Eh     change       -0.1488323E-03 Eh
   gradient norm :     0.0059160 Eh/α   predicted    -0.9890069E-04 ( -33.55%)
   displ. norm   :     0.3702326 α      lambda       -0.2635671E-03
   maximum displ.:     0.1869029 α      in ANC's #4, #7, #1, ...

........................................................................
.............................. CYCLE   25 ..............................
........................................................................

 iter      E             dE          RMSdq      gap      omega  full diag
   1   -212.5962138 -0.212596E+03  0.223E-02    1.16       0.0  T
   2   -212.5956994  0.514385E-03  0.358E-02    1.17       1.0  T
   3   -212.5948777  0.821675E-03  0.549E-02    1.15       1.0  T
   4   -212.5962159 -0.133817E-02  0.356E-03    1.17       2.4  T
   5   -212.5962192 -0.334016E-05  0.843E-04    1.17      10.0  T
   6   -212.5962194 -0.178898E-06  0.307E-04    1.17      27.4  T
   7   -212.5962194 -0.124783E-08  0.186E-04    1.17      45.2  T
     SCC iter.                  ...        0 min,  0.366 sec
     gradient                   ...        0 min,  0.063 sec
 * total energy  :  -209.4753486 Eh     change       -0.2196770E-03 Eh
   gradient norm :     0.0045474 Eh/α   predicted    -0.1498562E-03 ( -31.78%)
   displ. norm   :     0.4728028 α      lambda       -0.3025550E-03
   maximum displ.:     0.2463735 α      in ANC's #4, #7, #1, ...

........................................................................
.............................. CYCLE   26 ..............................
........................................................................

 iter      E             dE          RMSdq      gap      omega  full diag
   1   -212.5969073 -0.212597E+03  0.271E-02    1.17       0.0  T
   2   -212.5966616  0.245701E-03  0.280E-02    1.17       1.0  T
   3   -212.5924361  0.422541E-02  0.987E-02    1.14       1.0  T
   4   -212.5969067 -0.447060E-02  0.437E-03    1.17       1.9  T
   5   -212.5969107 -0.396631E-05  0.131E-03    1.17       6.4  T
   6   -212.5969113 -0.571961E-06  0.386E-04    1.17      21.8  T
   7   -212.5969113 -0.919289E-08  0.224E-04    1.17      37.6  T
     SCC iter.                  ...        0 min,  0.458 sec
     gradient                   ...        0 min,  0.065 sec
 * total energy  :  -209.4755936 Eh     change       -0.2449479E-03 Eh
   gradient norm :     0.0034345 Eh/α   predicted    -0.1850955E-03 ( -24.43%)
   displ. norm   :     0.5028925 α      lambda       -0.2532773E-03
   maximum displ.:     0.2674436 α      in ANC's #4, #7, #1, ...

........................................................................
.............................. CYCLE   27 ..............................
........................................................................

 iter      E             dE          RMSdq      gap      omega  full diag
   1   -212.5971817 -0.212597E+03  0.276E-02    1.17       0.0  T
   2   -212.5969845  0.197153E-03  0.263E-02    1.17       1.0  T
   3   -212.5918673  0.511719E-02  0.107E-01    1.13       1.0  T
   4   -212.5971795 -0.531217E-02  0.470E-03    1.17       1.8  T
   5   -212.5971847 -0.526438E-05  0.120E-03    1.17       7.0  T
   6   -212.5971852 -0.446885E-06  0.403E-04    1.17      20.9  T
   7   -212.5971852 -0.191053E-07  0.202E-04    1.17      41.7  T
     SCC iter.                  ...        0 min,  0.403 sec
     gradient                   ...        0 min,  0.069 sec
 * total energy  :  -209.4758026 Eh     change       -0.2090441E-03 Eh
   gradient norm :     0.0035627 Eh/α   predicted    -0.1586655E-03 ( -24.10%)
   displ. norm   :     0.4857565 α      lambda       -0.2206575E-03
   maximum displ.:     0.2665992 α      in ANC's #4, #7, #1, ...

........................................................................
.............................. CYCLE   28 ..............................
........................................................................

 iter      E             dE          RMSdq      gap      omega  full diag
   1   -212.5979878 -0.212598E+03  0.272E-02    1.17       0.0  T
   2   -212.5978399  0.147933E-03  0.240E-02    1.17       1.0  T
   3   -212.5922128  0.562710E-02  0.112E-01    1.13       1.0  T
   4   -212.5979827 -0.576988E-02  0.560E-03    1.17       1.5  T
   5   -212.5979909 -0.827571E-05  0.105E-03    1.17       8.0  T
   6   -212.5979912 -0.279114E-06  0.413E-04    1.17      20.4  T
   7   -212.5979913 -0.313972E-07  0.186E-04    1.17      45.3  T
     SCC iter.                  ...        0 min,  0.545 sec
     gradient                   ...        0 min,  0.074 sec
 * total energy  :  -209.4759886 Eh     change       -0.1859621E-03 Eh
   gradient norm :     0.0039970 Eh/α   predicted    -0.1363821E-03 ( -26.66%)
   displ. norm   :     0.4824377 α      lambda       -0.2096680E-03
   maximum displ.:     0.2704518 α      in ANC's #4, #7, #1, ...

........................................................................
.............................. CYCLE   29 ..............................
........................................................................

 iter      E             dE          RMSdq      gap      omega  full diag
   1   -212.5984298 -0.212598E+03  0.271E-02    1.17       0.0  T
   2   -212.5983622  0.676245E-04  0.201E-02    1.17       1.0  T
   3   -212.5914827  0.687953E-02  0.122E-01    1.13       1.0  T
   4   -212.5984213 -0.693862E-02  0.598E-03    1.17       1.4  T
   5   -212.5984321 -0.108018E-04  0.946E-04    1.17       8.9  T
   6   -212.5984323 -0.200009E-06  0.404E-04    1.17      20.9  T
   7   -212.5984323 -0.312617E-07  0.180E-04    1.17      46.8  T
     SCC iter.                  ...        0 min,  0.595 sec
     gradient                   ...        0 min,  0.059 sec
 * total energy  :  -209.4761694 Eh     change       -0.1808237E-03 Eh
   gradient norm :     0.0035750 Eh/α   predicted    -0.1292343E-03 ( -28.53%)
   displ. norm   :     0.4897367 α      lambda       -0.2167789E-03
   maximum displ.:     0.2828284 α      in ANC's #4, #7, #1, ...

........................................................................
.............................. CYCLE   30 ..............................
........................................................................

 iter      E             dE          RMSdq      gap      omega  full diag
   1   -212.5991301 -0.212599E+03  0.296E-02    1.17       0.0  T
   2   -212.5991306 -0.443075E-06  0.175E-02    1.17       1.0  T
   3   -212.5988885  0.242010E-03  0.233E-02    1.16       1.0  T
   4   -212.5986684  0.220138E-03  0.315E-02    1.16       1.0  T
   5   -212.5991321 -0.463698E-03  0.827E-04    1.17      10.2  T
   6   -212.5991322 -0.119347E-06  0.361E-04    1.17      23.4  T
   7   -212.5991322 -0.102803E-07  0.188E-04    1.17      44.8  T
     SCC iter.                  ...        0 min,  0.739 sec
     gradient                   ...        0 min,  0.065 sec
 * total energy  :  -209.4763542 Eh     change       -0.1848062E-03 Eh
   gradient norm :     0.0035735 Eh/α   predicted    -0.1343859E-03 ( -27.28%)
   displ. norm   :     0.4935804 α      lambda       -0.2049718E-03
   maximum displ.:     0.2921903 α      in ANC's #4, #7, #1, ...

........................................................................
.............................. CYCLE   31 ..............................
........................................................................

 iter      E             dE          RMSdq      gap      omega  full diag
   1   -212.5986081 -0.212599E+03  0.310E-02    1.17       0.0  T
   2   -212.5985731  0.349648E-04  0.203E-02    1.16       1.0  T
   3   -212.5905686  0.800449E-02  0.131E-01    1.13       1.0  T
   4   -212.5986018 -0.803317E-02  0.551E-03    1.16       1.5  T
   5   -212.5986096 -0.781967E-05  0.150E-03    1.17       5.6  T
   6   -212.5986105 -0.833234E-06  0.389E-04    1.17      21.7  T
   7   -212.5986105 -0.125311E-07  0.208E-04    1.17      40.4  T
     SCC iter.                  ...        0 min,  0.513 sec
     gradient                   ...        0 min,  0.065 sec
 * total energy  :  -209.4765237 Eh     change       -0.1694363E-03 Eh
   gradient norm :     0.0024654 Eh/α   predicted    -0.1274589E-03 ( -24.77%)
   displ. norm   :     0.4413195 α      lambda       -0.1568011E-03
   maximum displ.:     0.2687146 α      in ANC's #4, #7, #1, ...

........................................................................
.............................. CYCLE   32 ..............................
........................................................................

 iter      E             dE          RMSdq      gap      omega  full diag
   1   -212.5987556 -0.212599E+03  0.300E-02    1.17       0.0  T
   2   -212.5984003  0.355266E-03  0.329E-02    1.16       1.0  T
   3   -212.5940255  0.437480E-02  0.102E-01    1.14       1.0  T
   4   -212.5987545 -0.472893E-02  0.465E-03    1.17       1.8  T
   5   -212.5987594 -0.494077E-05  0.149E-03    1.17       5.7  T
   6   -212.5987603 -0.852861E-06  0.379E-04    1.17      22.2  T
   7   -212.5987603 -0.143621E-07  0.196E-04    1.17      43.1  T
     SCC iter.                  ...        0 min,  0.456 sec
     gradient                   ...        0 min,  0.060 sec
 * total energy  :  -209.4766477 Eh     change       -0.1240093E-03 Eh
   gradient norm :     0.0018377 Eh/α   predicted    -0.9367026E-04 ( -24.47%)
   displ. norm   :     0.5050399 α      lambda       -0.9193317E-04
   maximum displ.:     0.3176456 α      in ANC's #4, #1, #7, ...

........................................................................
.............................. CYCLE   33 ..............................
........................................................................

 iter      E             dE          RMSdq      gap      omega  full diag
   1   -212.5976181 -0.212598E+03  0.337E-02    1.17       0.0  T
   2   -212.5968189  0.799213E-03  0.460E-02    1.16       1.0  T
   3   -212.5936941  0.312486E-02  0.933E-02    1.15       1.0  T
   4   -212.5976224 -0.392831E-02  0.441E-03    1.17       1.9  T
   5   -212.5976262 -0.381386E-05  0.139E-03    1.17       6.1  T
   6   -212.5976269 -0.692870E-06  0.419E-04    1.17      20.1  T
   7   -212.5976269 -0.221376E-07  0.216E-04    1.17      39.0  T
     SCC iter.                  ...        0 min,  0.410 sec
     gradient                   ...        0 min,  0.067 sec
 * total energy  :  -209.4767415 Eh     change       -0.9382928E-04 Eh
   gradient norm :     0.0021249 Eh/α   predicted    -0.5117854E-04 ( -45.46%)
   displ. norm   :     0.1387713 α      lambda       -0.3582049E-04
   maximum displ.:     0.0933892 α      in ANC's #4, #2, #1, ...

........................................................................
.............................. CYCLE   34 ..............................
........................................................................

 iter      E             dE          RMSdq      gap      omega  full diag
   1   -212.5983501 -0.212598E+03  0.913E-03    1.17       0.0  T
   2   -212.5980970  0.253076E-03  0.239E-02    1.16       1.0  T
   3   -212.5982688 -0.171847E-03  0.142E-02    1.17       1.0  T
   4   -212.5983519 -0.830740E-04  0.133E-03    1.17       6.3  T
   5   -212.5983524 -0.529362E-06  0.245E-04    1.17      34.4  T
   6   -212.5983524 -0.109063E-07  0.109E-04    1.17      77.1  T
     SCC iter.                  ...        0 min,  0.316 sec
     gradient                   ...        0 min,  0.065 sec
 * total energy  :  -209.4767726 Eh     change       -0.3114724E-04 Eh
   gradient norm :     0.0014534 Eh/α   predicted    -0.1825702E-04 ( -41.38%)
   displ. norm   :     0.2194606 α      lambda       -0.4788670E-04
   maximum displ.:     0.1495962 α      in ANC's #4, #2, #1, ...

........................................................................
.............................. CYCLE   35 ..............................
........................................................................

 iter      E             dE          RMSdq      gap      omega  full diag
   1   -212.5992498 -0.212599E+03  0.154E-02    1.17       0.0  T
   2   -212.5986063  0.643526E-03  0.382E-02    1.16       1.0  T
   3   -212.5989736 -0.367352E-03  0.260E-02    1.17       1.0  T
   4   -212.5992542 -0.280599E-03  0.241E-03    1.17       3.5  T
   5   -212.5992560 -0.176643E-05  0.442E-04    1.17      19.1  T
   6   -212.5992560 -0.312053E-07  0.212E-04    1.17      39.8  T
   7   -212.5992560 -0.416358E-08  0.110E-04    1.17      76.4  T
     SCC iter.                  ...        0 min,  0.439 sec
     gradient                   ...        0 min,  0.062 sec
 * total energy  :  -209.4768278 Eh     change       -0.5514472E-04 Eh
   gradient norm :     0.0012970 Eh/α   predicted    -0.2446063E-04 ( -55.64%)
   displ. norm   :     0.1893302 α      lambda       -0.3325410E-04
   maximum displ.:     0.1327226 α      in ANC's #4, #2, #1, ...

........................................................................
.............................. CYCLE   36 ..............................
........................................................................

 iter      E             dE          RMSdq      gap      omega  full diag
   1   -212.5991211 -0.212599E+03  0.122E-02    1.17       0.0  T
   2   -212.5988993  0.221866E-03  0.229E-02    1.16       1.0  T
   3   -212.5988188  0.804110E-04  0.264E-02    1.17       1.0  T
   4   -212.5991226 -0.303756E-03  0.177E-03    1.17       4.8  T
   5   -212.5991234 -0.763220E-06  0.365E-04    1.17      23.1  T
   6   -212.5991234 -0.194597E-07  0.186E-04    1.17      45.2  T
     SCC iter.                  ...        0 min,  0.389 sec
     gradient                   ...        0 min,  0.063 sec
 * total energy  :  -209.4768694 Eh     change       -0.4162334E-04 Eh
   gradient norm :     0.0012464 Eh/α   predicted    -0.1689220E-04 ( -59.42%)
   displ. norm   :     0.1887684 α      lambda       -0.3387657E-04
   maximum displ.:     0.1307063 α      in ANC's #4, #2, #10, ...

........................................................................
.............................. CYCLE   37 ..............................
........................................................................

 iter      E             dE          RMSdq      gap      omega  full diag
   1   -212.5992944 -0.212599E+03  0.123E-02    1.17       0.0  T
   2   -212.5992936  0.740975E-06  0.740E-03    1.17       1.1  T
   3   -212.5987854  0.508233E-03  0.330E-02    1.17       1.0  T
   4   -212.5992934 -0.508035E-03  0.196E-03    1.17       4.3  T
   5   -212.5992946 -0.116966E-05  0.385E-04    1.17      21.9  T
   6   -212.5992946 -0.223357E-07  0.211E-04    1.17      39.8  T
   7   -212.5992946 -0.121457E-07  0.763E-05    1.17     110.3  T
     SCC iter.                  ...        0 min,  0.402 sec
     gradient                   ...        0 min,  0.062 sec
 * total energy  :  -209.4769134 Eh     change       -0.4401346E-04 Eh
   gradient norm :     0.0012001 Eh/α   predicted    -0.1721357E-04 ( -60.89%)
   displ. norm   :     0.2441827 α      lambda       -0.4307530E-04
   maximum displ.:     0.1614098 α      in ANC's #4, #2, #5, ...

........................................................................
.............................. CYCLE   38 ..............................
........................................................................

 iter      E             dE          RMSdq      gap      omega  full diag
   1   -212.5990245 -0.212599E+03  0.161E-02    1.17       0.0  T
   2   -212.5990051  0.194552E-04  0.114E-02    1.16       1.0  T
   3   -212.5960842  0.292090E-02  0.794E-02    1.15       1.0  T
   4   -212.5990226 -0.293839E-02  0.237E-03    1.17       3.6  T
   5   -212.5990249 -0.237956E-05  0.422E-04    1.17      20.0  T
   6   -212.5990250 -0.243558E-07  0.239E-04    1.17      35.2  T
   7   -212.5990250 -0.141335E-07  0.109E-04    1.17      77.3  T
     SCC iter.                  ...        0 min,  0.356 sec
     gradient                   ...        0 min,  0.064 sec
 * total energy  :  -209.4769678 Eh     change       -0.5432456E-04 Eh
   gradient norm :     0.0013034 Eh/α   predicted    -0.2210937E-04 ( -59.30%)
   displ. norm   :     0.3075290 α      lambda       -0.4871061E-04
   maximum displ.:     0.1996711 α      in ANC's #4, #2, #5, ...

........................................................................
.............................. CYCLE   39 ..............................
........................................................................

 iter      E             dE          RMSdq      gap      omega  full diag
   1   -212.5986722 -0.212599E+03  0.197E-02    1.17       0.0  T
   2   -212.5986675  0.468125E-05  0.121E-02    1.17       1.0  T
   3   -212.5963580  0.230947E-02  0.705E-02    1.15       1.0  T
   4   -212.5986660 -0.230799E-02  0.382E-03    1.17       2.2  T
   5   -212.5986725 -0.650546E-05  0.530E-04    1.16      15.9  T
   6   -212.5986726 -0.729948E-07  0.222E-04    1.17      37.9  T
   7   -212.5986726 -0.505079E-08  0.110E-04    1.17      76.3  T
     SCC iter.                  ...        0 min,  0.387 sec
     gradient                   ...        0 min,  0.063 sec
 * total energy  :  -209.4770278 Eh     change       -0.6006894E-04 Eh
   gradient norm :     0.0014333 Eh/α   predicted    -0.2538097E-04 ( -57.75%)
   displ. norm   :     0.3228439 α      lambda       -0.4487994E-04
   maximum displ.:     0.2072936 α      in ANC's #4, #2, #5, ...

........................................................................
.............................. CYCLE   40 ..............................
........................................................................

 iter      E             dE          RMSdq      gap      omega  full diag
   1   -212.5988692 -0.212599E+03  0.196E-02    1.17       0.0  T
   2   -212.5988643  0.496608E-05  0.119E-02    1.16       1.0  T
   3   -212.5964506  0.241364E-02  0.718E-02    1.15       1.0  T
   4   -212.5988688 -0.241820E-02  0.174E-03    1.17       4.8  T
   5   -212.5988696 -0.743630E-06  0.430E-04    1.17      19.6  T
   6   -212.5988696 -0.350404E-07  0.213E-04    1.17      39.6  T
     SCC iter.                  ...        0 min,  0.328 sec
     gradient                   ...        0 min,  0.064 sec
 * total energy  :  -209.4770849 Eh     change       -0.5707523E-04 Eh
   gradient norm :     0.0013515 Eh/α   predicted    -0.2348079E-04 ( -58.86%)
   displ. norm   :     0.3432867 α      lambda       -0.4573863E-04
   maximum displ.:     0.2221872 α      in ANC's #4, #2, #5, ...

........................................................................
.............................. CYCLE   41 ..............................
........................................................................

 iter      E             dE          RMSdq      gap      omega  full diag
   1   -212.5985278 -0.212599E+03  0.199E-02    1.17       0.0  T
   2   -212.5985273  0.556100E-06  0.117E-02    1.17       1.0  T
   3   -212.5980342  0.493045E-03  0.324E-02    1.17       1.0  T
   4   -212.5985268 -0.492519E-03  0.217E-03    1.17       3.9  T
   5   -212.5985281 -0.134268E-05  0.415E-04    1.17      20.3  T
   6   -212.5985281 -0.361300E-07  0.197E-04    1.17      42.8  T
   7   -212.5985281 -0.133272E-08  0.101E-04    1.17      83.7  T
     SCC iter.                  ...        0 min,  0.375 sec
     gradient                   ...        0 min,  0.065 sec
 * total energy  :  -209.4771439 Eh     change       -0.5905124E-04 Eh
   gradient norm :     0.0011996 Eh/α   predicted    -0.2406937E-04 ( -59.24%)
   displ. norm   :     0.3925969 α      lambda       -0.5142952E-04
   maximum displ.:     0.2550311 α      in ANC's #4, #2, #5, ...

........................................................................
.............................. CYCLE   42 ..............................
........................................................................

 iter      E             dE          RMSdq      gap      omega  full diag
   1   -212.5988303 -0.212599E+03  0.219E-02    1.17       0.0  T
   2   -212.5988258  0.453344E-05  0.134E-02    1.17       1.0  T
   3   -212.5963317  0.249408E-02  0.732E-02    1.15       1.0  T
   4   -212.5988286 -0.249698E-02  0.234E-03    1.17       3.6  T
   5   -212.5988306 -0.191855E-05  0.565E-04    1.17      14.9  T
   6   -212.5988307 -0.973711E-07  0.214E-04    1.17      39.4  T
   7   -212.5988307 -0.685759E-09  0.122E-04    1.17      69.1  T
     SCC iter.                  ...        0 min,  0.351 sec
     gradient                   ...        0 min,  0.061 sec
 * total energy  :  -209.4772086 Eh     change       -0.6467341E-04 Eh
   gradient norm :     0.0011514 Eh/α   predicted    -0.2748128E-04 ( -57.51%)
   displ. norm   :     0.4396974 α      lambda       -0.5243877E-04
   maximum displ.:     0.2884037 α      in ANC's #4, #2, #5, ...
 * RMSD in coord.:     0.5344902 α      energy gain  -0.3092968E-02 Eh

generating ANC from model Hessian ...
Using Lindh-Hessian (1995)
 Shifting diagonal of input Hessian by    1.0131091525547075E-002
 Lowest  eigenvalues of input Hessian
    0.010000    0.000000    0.000000    0.000000    0.000000    0.000000
    0.000000    0.010153    0.010167    0.010219    0.010246    0.010398
    0.010476    0.010501    0.010525    0.010635    0.010678    0.010703
 Highest eigenvalues
    2.079261    2.079311    2.198857    2.199577    2.219337    2.219552


........................................................................
.............................. CYCLE   43 ..............................
........................................................................

 iter      E             dE          RMSdq      gap      omega  full diag
   1   -212.5987059 -0.212599E+03  0.236E-02    1.17       0.0  T
   2   -212.5986614  0.445334E-04  0.173E-02    1.17       1.0  T
   3   -212.5928426  0.581875E-02  0.112E-01    1.13       1.0  T
   4   -212.5987060 -0.586339E-02  0.189E-03    1.17       4.5  T
   5   -212.5987065 -0.454655E-06  0.763E-04    1.17      11.0  T
   6   -212.5987067 -0.208534E-06  0.243E-04    1.17      34.6  T
     SCC iter.                  ...        0 min,  0.309 sec
     gradient                   ...        0 min,  0.065 sec
 * total energy  :  -209.4772720 Eh     change       -0.6340611E-04 Eh
   gradient norm :     0.0011852 Eh/α   predicted     0.0000000E+00 (-100.00%)
   displ. norm   :     0.0407198 α      lambda       -0.1369081E-05
   maximum displ.:     0.0193515 α      in ANC's #4, #21, #2, ...

........................................................................
.............................. CYCLE   44 ..............................
........................................................................

 iter      E             dE          RMSdq      gap      omega  full diag
   1   -212.5994207 -0.212599E+03  0.503E-03    1.17       0.0  T
   2   -212.5994204  0.257544E-06  0.307E-03    1.17       2.7  T
   3   -212.5992895  0.130980E-03  0.167E-02    1.16       1.0  T
   4   -212.5994198 -0.130352E-03  0.161E-03    1.17       5.2  T
   5   -212.5994208 -0.956814E-06  0.195E-04    1.17      43.1  T
   6   -212.5994208 -0.819577E-08  0.806E-05    1.17     104.5  T
     SCC iter.                  ...        0 min,  0.326 sec
     gradient                   ...        0 min,  0.064 sec
 * total energy  :  -209.4772860 Eh     change       -0.1399650E-04 Eh
   gradient norm :     0.0005691 Eh/α   predicted    -0.5936423E-05 ( -57.59%)
   displ. norm   :     0.1295443 α      lambda       -0.2551567E-04
   maximum displ.:     0.0602714 α      in ANC's #4, #2, #21, ...

........................................................................
.............................. CYCLE   45 ..............................
........................................................................

 iter      E             dE          RMSdq      gap      omega  full diag
   1   -212.5999611 -0.212600E+03  0.128E-02    1.17       0.0  T
   2   -212.5999606  0.493219E-06  0.760E-03    1.17       1.1  T
   3   -212.5996021  0.358462E-03  0.279E-02    1.17       1.0  T
   4   -212.5999450 -0.342889E-03  0.609E-03    1.17       1.4  T
   5   -212.5999614 -0.163494E-04  0.470E-04    1.17      17.9  T
   6   -212.5999614 -0.608614E-07  0.198E-04    1.17      42.4  T
   7   -212.5999614 -0.356840E-08  0.942E-05    1.17      89.4  T
     SCC iter.                  ...        0 min,  0.366 sec
     gradient                   ...        0 min,  0.061 sec
 * total energy  :  -209.4773110 Eh     change       -0.2499068E-04 Eh
   gradient norm :     0.0012732 Eh/α   predicted    -0.1285415E-04 ( -48.56%)
   displ. norm   :     0.1042496 α      lambda       -0.1231853E-04
   maximum displ.:     0.0539267 α      in ANC's #4, #2, #21, ...

........................................................................
.............................. CYCLE   46 ..............................
........................................................................

 iter      E             dE          RMSdq      gap      omega  full diag
   1   -212.5995123 -0.212600E+03  0.880E-03    1.17       0.0  T
   2   -212.5994968  0.154677E-04  0.776E-03    1.17       1.1  T
   3   -212.5988267  0.670135E-03  0.385E-02    1.16       1.0  T
   4   -212.5995119 -0.685290E-03  0.165E-03    1.17       5.1  T
   5   -212.5995126 -0.611316E-06  0.271E-04    1.17      31.1  T
   6   -212.5995126 -0.991562E-08  0.145E-04    1.17      58.2  T
     SCC iter.                  ...        0 min,  0.313 sec
     gradient                   ...        0 min,  0.065 sec
 * total energy  :  -209.4773240 Eh     change       -0.1302935E-04 Eh
   gradient norm :     0.0010189 Eh/α   predicted    -0.6196694E-05 ( -52.44%)
   displ. norm   :     0.1073850 α      lambda       -0.1099836E-04
   maximum displ.:     0.0577193 α      in ANC's #4, #2, #10, ...

........................................................................
.............................. CYCLE   47 ..............................
........................................................................

 iter      E             dE          RMSdq      gap      omega  full diag
   1   -212.5993004 -0.212599E+03  0.833E-03    1.17       0.0  T
   2   -212.5992986  0.177993E-05  0.528E-03    1.17       1.6  T
   3   -212.5986917  0.606871E-03  0.361E-02    1.16       1.0  T
   4   -212.5992996 -0.607876E-03  0.184E-03    1.17       4.6  T
   5   -212.5993005 -0.942522E-06  0.226E-04    1.17      37.2  T
   6   -212.5993005 -0.460051E-08  0.139E-04    1.17      60.6  T
     SCC iter.                  ...        0 min,  0.384 sec
     gradient                   ...        0 min,  0.065 sec
 * total energy  :  -209.4773372 Eh     change       -0.1312878E-04 Eh
   gradient norm :     0.0006166 Eh/α   predicted    -0.5532178E-05 ( -57.86%)
   displ. norm   :     0.1478468 α      lambda       -0.1491614E-04
   maximum displ.:     0.0816792 α      in ANC's #4, #2, #10, ...

........................................................................
.............................. CYCLE   48 ..............................
........................................................................

 iter      E             dE          RMSdq      gap      omega  full diag
   1   -212.5990526 -0.212599E+03  0.106E-02    1.17       0.0  T
   2   -212.5990363  0.163113E-04  0.858E-03    1.17       1.0  T
   3   -212.5978977  0.113858E-02  0.499E-02    1.16       1.0  T
   4   -212.5990519 -0.115418E-02  0.199E-03    1.17       4.2  T
   5   -212.5990529 -0.107110E-05  0.302E-04    1.17      27.9  T
   6   -212.5990530 -0.131179E-07  0.172E-04    1.17      49.1  T
   7   -212.5990530 -0.627290E-08  0.789E-05    1.17     106.7  T
     SCC iter.                  ...        0 min,  0.424 sec
     gradient                   ...        0 min,  0.060 sec
 * total energy  :  -209.4773543 Eh     change       -0.1711608E-04 Eh
   gradient norm :     0.0007135 Eh/α   predicted    -0.7531119E-05 ( -56.00%)
   displ. norm   :     0.1613740 α      lambda       -0.1383728E-04
   maximum displ.:     0.0914976 α      in ANC's #4, #2, #10, ...

........................................................................
.............................. CYCLE   49 ..............................
........................................................................

 iter      E             dE          RMSdq      gap      omega  full diag
   1   -212.5993021 -0.212599E+03  0.117E-02    1.17       0.0  T
   2   -212.5992793  0.227968E-04  0.978E-03    1.17       1.0  T
   3   -212.5979603  0.131902E-02  0.538E-02    1.15       1.0  T
   4   -212.5993015 -0.134118E-02  0.188E-03    1.17       4.5  T
   5   -212.5993025 -0.103297E-05  0.332E-04    1.17      25.3  T
   6   -212.5993025 -0.225506E-07  0.162E-04    1.17      52.1  T
   7   -212.5993025 -0.442120E-08  0.748E-05    1.17     112.6  T
     SCC iter.                  ...        0 min,  0.525 sec
     gradient                   ...        0 min,  0.065 sec
 * total energy  :  -209.4773692 Eh     change       -0.1494462E-04 Eh
   gradient norm :     0.0010215 Eh/α   predicted    -0.7003466E-05 ( -53.14%)
   displ. norm   :     0.1319733 α      lambda       -0.1033451E-04
   maximum displ.:     0.0778161 α      in ANC's #4, #2, #10, ...

........................................................................
.............................. CYCLE   50 ..............................
........................................................................

 iter      E             dE          RMSdq      gap      omega  full diag
   1   -212.5995664 -0.212600E+03  0.845E-03    1.17       0.0  T
   2   -212.5995608  0.556420E-05  0.605E-03    1.17       1.4  T
   3   -212.5987194  0.841388E-03  0.426E-02    1.16       1.0  T
   4   -212.5995663 -0.846850E-03  0.902E-04    1.17       9.3  T
   5   -212.5995665 -0.228337E-06  0.233E-04    1.17      36.2  T
   6   -212.5995665 -0.974254E-08  0.100E-04    1.17      83.9  T
     SCC iter.                  ...        0 min,  0.577 sec
     gradient                   ...        0 min,  0.065 sec
 * total energy  :  -209.4773810 Eh     change       -0.1173474E-04 Eh
   gradient norm :     0.0008155 Eh/α   predicted    -0.5207537E-05 ( -55.62%)
   displ. norm   :     0.1149586 α      lambda       -0.9923355E-05
   maximum displ.:     0.0691163 α      in ANC's #4, #2, #16, ...

........................................................................
.............................. CYCLE   51 ..............................
........................................................................

 iter      E             dE          RMSdq      gap      omega  full diag
   1   -212.5999675 -0.212600E+03  0.679E-03    1.17       0.0  T
   2   -212.5999652  0.231123E-05  0.461E-03    1.17       1.8  T
   3   -212.5994731  0.492061E-03  0.326E-02    1.17       1.0  T
   4   -212.5999666 -0.493502E-03  0.164E-03    1.17       5.1  T
   5   -212.5999676 -0.984599E-06  0.217E-04    1.17      38.7  T
   6   -212.5999676 -0.912024E-08  0.892E-05    1.17      94.5  T
     SCC iter.                  ...        0 min,  0.398 sec
     gradient                   ...        0 min,  0.063 sec
 * total energy  :  -209.4773933 Eh     change       -0.1232181E-04 Eh
   gradient norm :     0.0005360 Eh/α   predicted    -0.4991078E-05 ( -59.49%)
   displ. norm   :     0.1493782 α      lambda       -0.1351294E-04
   maximum displ.:     0.0893733 α      in ANC's #4, #2, #16, ...

........................................................................
.............................. CYCLE   52 ..............................
........................................................................

 iter      E             dE          RMSdq      gap      omega  full diag
   1   -212.6001199 -0.212600E+03  0.811E-03    1.17       0.0  T
   2   -212.6001182  0.175870E-05  0.519E-03    1.17       1.6  T
   3   -212.5995587  0.559477E-03  0.347E-02    1.17       1.0  T
   4   -212.6001177 -0.558998E-03  0.252E-03    1.17       3.3  T
   5   -212.6001201 -0.241192E-05  0.241E-04    1.17      34.9  T
   6   -212.6001201 -0.920616E-08  0.113E-04    1.17      74.7  T
   7   -212.6001201 -0.104689E-08  0.543E-05    1.17     155.1  T
     SCC iter.                  ...        0 min,  0.560 sec
     gradient                   ...        0 min,  0.064 sec
 * total energy  :  -209.4774099 Eh     change       -0.1657972E-04 Eh
   gradient norm :     0.0006006 Eh/α   predicted    -0.6826722E-05 ( -58.82%)
   displ. norm   :     0.1849619 α      lambda       -0.1489010E-04
   maximum displ.:     0.1111354 α      in ANC's #4, #2, #16, ...

........................................................................
.............................. CYCLE   53 ..............................
........................................................................

 iter      E             dE          RMSdq      gap      omega  full diag
   1   -212.5998816 -0.212600E+03  0.976E-03    1.17       0.0  T
   2   -212.5998244  0.572670E-04  0.124E-02    1.16       1.0  T
   3   -212.5994448  0.379542E-03  0.310E-02    1.17       1.0  T
   4   -212.5998813 -0.436514E-03  0.188E-03    1.17       4.5  T
   5   -212.5998823 -0.961203E-06  0.254E-04    1.17      33.2  T
   6   -212.5998823 -0.940156E-08  0.131E-04    1.17      64.4  T
     SCC iter.                  ...        0 min,  0.397 sec
     gradient                   ...        0 min,  0.066 sec
 * total energy  :  -209.4774277 Eh     change       -0.1787777E-04 Eh
   gradient norm :     0.0009546 Eh/α   predicted    -0.7561744E-05 ( -57.70%)
   displ. norm   :     0.1992639 α      lambda       -0.1391518E-04
   maximum displ.:     0.1220006 α      in ANC's #2, #4, #16, ...

........................................................................
.............................. CYCLE   54 ..............................
........................................................................

 iter      E             dE          RMSdq      gap      omega  full diag
   1   -212.5995848 -0.212600E+03  0.995E-03    1.17       0.0  T
   2   -212.5995298  0.550083E-04  0.123E-02    1.16       1.0  T
   3   -212.5990961  0.433679E-03  0.328E-02    1.17       1.0  T
   4   -212.5995849 -0.488729E-03  0.152E-03    1.17       5.5  T
   5   -212.5995854 -0.583177E-06  0.251E-04    1.17      33.5  T
   6   -212.5995855 -0.970800E-08  0.138E-04    1.17      61.0  T
     SCC iter.                  ...        0 min,  0.385 sec
     gradient                   ...        0 min,  0.064 sec
 * total energy  :  -209.4774443 Eh     change       -0.1655240E-04 Eh
   gradient norm :     0.0009262 Eh/α   predicted    -0.7084139E-05 ( -57.20%)
   displ. norm   :     0.1976444 α      lambda       -0.1240755E-04
   maximum displ.:     0.1235027 α      in ANC's #2, #4, #9, ...

........................................................................
.............................. CYCLE   55 ..............................
........................................................................

 iter      E             dE          RMSdq      gap      omega  full diag
   1   -212.5992180 -0.212599E+03  0.997E-03    1.17       0.0  T
   2   -212.5991313  0.866467E-04  0.147E-02    1.16       1.0  T
   3   -212.5988575  0.273828E-03  0.283E-02    1.17       1.0  T
   4   -212.5992182 -0.360763E-03  0.146E-03    1.17       5.8  T
   5   -212.5992189 -0.608181E-06  0.236E-04    1.17      35.6  T
   6   -212.5992189 -0.636456E-08  0.130E-04    1.17      65.0  T
     SCC iter.                  ...        0 min,  0.473 sec
     gradient                   ...        0 min,  0.064 sec
 * total energy  :  -209.4774591 Eh     change       -0.1480194E-04 Eh
   gradient norm :     0.0006334 Eh/α   predicted    -0.6312022E-05 ( -57.36%)
   displ. norm   :     0.1984947 α      lambda       -0.1130806E-04
   maximum displ.:     0.1263359 α      in ANC's #2, #4, #9, ...

........................................................................
.............................. CYCLE   56 ..............................
........................................................................

[...]
    36   6 C    3.928 --    48 O    1.631    35 C    1.086    37 C    1.078
    37   6 C    3.965 --    38 C    1.410    32 C    1.246    36 C    1.078
    38   6 C    3.985 --    37 C    1.410    39 C    1.396   138 H    0.960
    39   6 C    3.955 --    40 C    1.409    38 C    1.396    72 C    0.979
    40   6 C    3.984 --    39 C    1.409    33 C    1.402   139 H    0.960
    41   6 C    3.914 --    42 C    1.400    34 C    1.253    45 O    1.074
    42   6 C    3.966 --    41 C    1.400    43 C    1.386   136 H    0.946
    43   6 C    3.951 --    44 C    1.426    42 C    1.386    68 C    0.979
    44   6 C    3.971 --    43 C    1.426    35 C    1.371   137 H    0.958
    45   8 O    2.033 --    41 C    1.074    24 B    0.740
    46   8 O    2.116 --    26 C    1.082    24 B    0.820
    47   6 C    3.927 --    49 O    1.619    28 C    1.099    33 C    1.076
    48   8 O    1.904 --    36 C    1.631
    49   8 O    1.893 --    47 C    1.619
    50   8 O    1.903 --    10 C    1.629
    51   8 O    1.894 --    13 C    1.619
    52   6 C    3.990 --    53 C    1.000    55 C    0.988    54 C    0.988
                             6 C    0.979
    53   6 C    3.996 --    52 C    1.000   109 H    0.985   111 H    0.984
                           110 H    0.982
    54   6 C    3.995 --    52 C    0.988   104 H    0.987   103 H    0.986
                           105 H    0.984
    55   6 C    3.995 --    52 C    0.988   108 H    0.987   106 H    0.986
                           107 H    0.984
    56   6 C    3.990 --    59 C    1.000    57 C    0.989    58 C    0.988
                            20 C    0.979
    57   6 C    3.995 --    56 C    0.989    82 H    0.986    84 H    0.986
                            83 H    0.984
    58   6 C    3.995 --    56 C    0.988    77 H    0.987    76 H    0.986
                            78 H    0.984
    59   6 C    3.996 --    56 C    1.000    79 H    0.985    81 H    0.984
                            80 H    0.983
    60   6 C    3.989 --    62 C    1.000    63 C    0.989    61 C    0.989
                            16 C    0.979
    61   6 C    3.995 --    60 C    0.989   123 H    0.987   121 H    0.986
                           122 H    0.984
    62   6 C    3.997 --    60 C    1.000   127 H    0.986   128 H    0.985
                           129 H    0.985
    63   6 C    3.995 --    60 C    0.989   125 H    0.987   124 H    0.986
                           126 H    0.984
    64   6 C    3.990 --    67 C    0.999    65 C    0.989    66 C    0.989
                            30 C    0.979
    65   6 C    3.995 --    64 C    0.989   112 H    0.986   113 H    0.985
                           114 H    0.982
    66   6 C    3.994 --    64 C    0.989   120 H    0.987   118 H    0.985
                           119 H    0.982
    67   6 C    3.997 --    64 C    0.999   115 H    0.986   116 H    0.985
                           117 H    0.985
    68   6 C    3.990 --    71 C    1.000    69 C    0.989    70 C    0.988
                            43 C    0.979
    69   6 C    3.996 --    68 C    0.989    90 H    0.988    88 H    0.986
                            89 H    0.983
    70   6 C    3.995 --    68 C    0.988    92 H    0.987    91 H    0.986
                            93 H    0.984
    71   6 C    3.997 --    68 C    1.000    85 H    0.985    86 H    0.983
                            87 H    0.983
    72   6 C    3.989 --    74 C    1.000    75 C    0.989    73 C    0.989
                            39 C    0.979
    73   6 C    3.995 --    72 C    0.989    95 H    0.987    94 H    0.986
                            96 H    0.984
    74   6 C    3.997 --    72 C    1.000    97 H    0.986    98 H    0.985
                            99 H    0.985
    75   6 C    3.995 --    72 C    0.989   102 H    0.987   100 H    0.986
                           101 H    0.984
    76   1 H    0.999 --    58 C    0.986
    77   1 H    0.999 --    58 C    0.987
    78   1 H    0.999 --    58 C    0.984
    79   1 H    0.999 --    59 C    0.985
    80   1 H    0.999 --    59 C    0.983
    81   1 H    0.998 --    59 C    0.984
    82   1 H    0.999 --    57 C    0.986
    83   1 H    0.999 --    57 C    0.984
    84   1 H    0.999 --    57 C    0.986
    85   1 H    0.999 --    71 C    0.985
    86   1 H    0.999 --    71 C    0.983
    87   1 H    0.998 --    71 C    0.983
    88   1 H    0.999 --    69 C    0.986
    89   1 H    0.999 --    69 C    0.983
    90   1 H    0.999 --    69 C    0.988
    91   1 H    0.999 --    70 C    0.986
    92   1 H    0.998 --    70 C    0.987
    93   1 H    0.999 --    70 C    0.984
    94   1 H    0.999 --    73 C    0.986
    95   1 H    0.999 --    73 C    0.987
    96   1 H    0.999 --    73 C    0.984
    97   1 H    0.999 --    74 C    0.986
    98   1 H    0.999 --    74 C    0.985
    99   1 H    0.999 --    74 C    0.985
   100   1 H    0.999 --    75 C    0.986
   101   1 H    0.998 --    75 C    0.984
   102   1 H    0.999 --    75 C    0.987
   103   1 H    0.999 --    54 C    0.986
   104   1 H    0.998 --    54 C    0.987
   105   1 H    0.999 --    54 C    0.984
   106   1 H    0.999 --    55 C    0.986
   107   1 H    0.999 --    55 C    0.984
   108   1 H    0.999 --    55 C    0.987
   109   1 H    0.999 --    53 C    0.985
   110   1 H    0.999 --    53 C    0.982
   111   1 H    0.998 --    53 C    0.984
   112   1 H    0.999 --    65 C    0.986
   113   1 H    0.999 --    65 C    0.985
   114   1 H    0.998 --    65 C    0.982
   115   1 H    0.999 --    67 C    0.986
   116   1 H    0.999 --    67 C    0.985
   117   1 H    0.999 --    67 C    0.985
   118   1 H    0.999 --    66 C    0.985
   119   1 H    0.998 --    66 C    0.982
   120   1 H    0.999 --    66 C    0.987
   121   1 H    0.999 --    61 C    0.986
   122   1 H    0.998 --    61 C    0.984
   123   1 H    0.999 --    61 C    0.987
   124   1 H    0.999 --    63 C    0.986
   125   1 H    0.999 --    63 C    0.987
   126   1 H    0.999 --    63 C    0.984
   127   1 H    0.999 --    62 C    0.986
   128   1 H    0.999 --    62 C    0.985
   129   1 H    0.999 --    62 C    0.985
   130   1 H    0.997 --    15 C    0.960
   131   1 H    0.998 --    17 C    0.959
   132   1 H    0.998 --     5 C    0.958
   133   1 H    0.996 --     1 C    0.947
   134   1 H    0.998 --    21 C    0.960
   135   1 H    0.994 --    19 C    0.941
   136   1 H    0.996 --    42 C    0.946
   137   1 H    0.998 --    44 C    0.958
   138   1 H    0.998 --    38 C    0.960
   139   1 H    0.997 --    40 C    0.960
   140   1 H    0.997 --    29 C    0.961
   141   1 H    0.995 --    25 C    0.943
 ---------------------------------------------------------------------------

Topologies differ in bond orders
Writing corrected topology to xtbtopo.mol

molecular dipole:
                 x           y           z       tot (Debye)
 q only:       -0.057      -0.781       2.297
   full:       -0.067      -0.803       2.411       6.462
molecular quadrupole (traceless):
                xx          xy          yy          xz          yz          zz
 q only:     -136.696      27.254      62.058       2.510      -3.662      74.638
  q+dip:     -134.890      25.491      61.952       1.738      -2.872      72.938
   full:     -139.985      29.947      62.603       3.043      -4.248      77.381

           -------------------------------------------------
          |                Geometry Summary                 |
           -------------------------------------------------

      molecular mass/u    :      998.0389263
   center of mass at/Å    :        0.0130169       0.1368917      -0.3149862
  moments of inertia/u·Å² :        0.1231100E+05   0.2747134E+05   0.3118854E+05
rotational constants/cm⁻¹ :        0.1369315E-02   0.6136443E-03   0.5405072E-03

 * 134 selected distances

     #   Z          #   Z                                           value/Å
     1   6 C        2   6 C                                       1.3945520
     2   6 C        3   6 C                                       1.4336309
     3   6 C        4   6 C                                       1.4239453
     4   6 C        5   6 C                                       1.3918053
     1   6 C        6   6 C                                       1.3872591
     5   6 C        6   6 C                                       1.3769059
     7   6 C        8   6 C                                       1.4186689
     8   6 C        9   6 C                                       1.4139338
     7   6 C       11   6 C                                       1.4290028
    11   6 C       12   6 C                                       1.4176911
     8   6 C       14   6 C                                       1.4178112
    14   6 C       15   6 C                                       1.3902029
    15   6 C       16   6 C                                       1.3861818
     9   6 C       17   6 C                                       1.3866137
    16   6 C       17   6 C                                       1.3894562
    11   6 C       18   6 C                                       1.4174123
    18   6 C       19   6 C                                       1.3944211
    19   6 C       20   6 C                                       1.3909806
    12   6 C       21   6 C                                       1.3928532
    20   6 C       21   6 C                                       1.3815753
     2   6 C       22   8 O                                       1.3697544
    18   6 C       23   8 O                                       1.3585531
    23   8 O       24   5 B                                       1.4707396
    25   6 C       26   6 C                                       1.3906082
    26   6 C       27   6 C                                       1.4167587
    27   6 C       28   6 C                                       1.4153740
    28   6 C       29   6 C                                       1.3963623
    25   6 C       30   6 C                                       1.3957176
    29   6 C       30   6 C                                       1.3786448
    27   6 C       31   6 C                                       1.4277932
    31   6 C       32   6 C                                       1.4175772
    32   6 C       33   6 C                                       1.4177601
    34   6 C       35   6 C                                       1.4237753
    32   6 C       37   6 C                                       1.4134365
    37   6 C       38   6 C                                       1.3866321
    38   6 C       39   6 C                                       1.3896305
    33   6 C       40   6 C                                       1.3900321
    39   6 C       40   6 C                                       1.3866051
    34   6 C       41   6 C                                       1.4350658
    41   6 C       42   6 C                                       1.3937297
    42   6 C       43   6 C                                       1.3871729
    35   6 C       44   6 C                                       1.3920180
    43   6 C       44   6 C                                       1.3768501
    41   6 C       45   8 O                                       1.3696795
    24   5 B       46   8 O                                       1.4689056
    26   6 C       46   8 O                                       1.3596835
    36   6 C       48   8 O                                       1.2385686
    47   6 C       49   8 O                                       1.2398510
    10   6 C       50   8 O                                       1.2388424
    13   6 C       51   8 O                                       1.2399229
    52   6 C       53   6 C                                       1.5302094
    52   6 C       54   6 C                                       1.5349581
    52   6 C       55   6 C                                       1.5354405
    56   6 C       57   6 C                                       1.5356443
    56   6 C       58   6 C                                       1.5353866
    56   6 C       59   6 C                                       1.5306829
    60   6 C       61   6 C                                       1.5350567
    60   6 C       62   6 C                                       1.5311235
    60   6 C       63   6 C                                       1.5351047
    64   6 C       65   6 C                                       1.5343688
    64   6 C       66   6 C                                       1.5348306
    64   6 C       67   6 C                                       1.5318438
    68   6 C       69   6 C                                       1.5357310 (max)
    68   6 C       70   6 C                                       1.5345543
    68   6 C       71   6 C                                       1.5308631
    72   6 C       73   6 C                                       1.5352422
    72   6 C       74   6 C                                       1.5311099
    72   6 C       75   6 C                                       1.5350850
    58   6 C       76   1 H                                       1.0903577
    58   6 C       77   1 H                                       1.0877768
    58   6 C       78   1 H                                       1.0866655
    59   6 C       79   1 H                                       1.0906649
    59   6 C       80   1 H                                       1.0871506
    59   6 C       81   1 H                                       1.0867760
    57   6 C       82   1 H                                       1.0902241
    57   6 C       83   1 H                                       1.0864688
    57   6 C       84   1 H                                       1.0877273
    71   6 C       85   1 H                                       1.0904100
    71   6 C       86   1 H                                       1.0880442
    71   6 C       87   1 H                                       1.0869708
    69   6 C       88   1 H                                       1.0900873
    69   6 C       89   1 H                                       1.0862894
    69   6 C       90   1 H                                       1.0884752
    70   6 C       91   1 H                                       1.0902582
    70   6 C       92   1 H                                       1.0874947
    70   6 C       93   1 H                                       1.0868195
    73   6 C       94   1 H                                       1.0901740
    73   6 C       95   1 H                                       1.0883093
    73   6 C       96   1 H                                       1.0863805
    74   6 C       97   1 H                                       1.0903288
    74   6 C       98   1 H                                       1.0873167
    74   6 C       99   1 H                                       1.0873426
    75   6 C      100   1 H                                       1.0902063
    75   6 C      101   1 H                                       1.0863195
    75   6 C      102   1 H                                       1.0881741
    54   6 C      103   1 H                                       1.0901923
    54   6 C      104   1 H                                       1.0874076
    54   6 C      105   1 H                                       1.0865877
    55   6 C      106   1 H                                       1.0900279
    55   6 C      107   1 H                                       1.0866983
    55   6 C      108   1 H                                       1.0884439
    53   6 C      109   1 H                                       1.0903116
    53   6 C      110   1 H                                       1.0866809
    53   6 C      111   1 H                                       1.0869085
    65   6 C      112   1 H                                       1.0903705
    65   6 C      113   1 H                                       1.0887262
    65   6 C      114   1 H                                       1.0861998
    67   6 C      115   1 H                                       1.0903340
    67   6 C      116   1 H                                       1.0871553
    67   6 C      117   1 H                                       1.0874767
    66   6 C      118   1 H                                       1.0903877
    66   6 C      119   1 H                                       1.0859842
    66   6 C      120   1 H                                       1.0881687
    61   6 C      121   1 H                                       1.0901566
    61   6 C      122   1 H                                       1.0863608
    61   6 C      123   1 H                                       1.0881655
    63   6 C      124   1 H                                       1.0901637
    63   6 C      125   1 H                                       1.0882751
    63   6 C      126   1 H                                       1.0863518
    62   6 C      127   1 H                                       1.0902915
    62   6 C      128   1 H                                       1.0872604
    62   6 C      129   1 H                                       1.0873215
    15   6 C      130   1 H                                       1.0796776
    17   6 C      131   1 H                                       1.0813638
     5   6 C      132   1 H                                       1.0805667
     1   6 C      133   1 H                                       1.0721989
    21   6 C      134   1 H                                       1.0803146
    19   6 C      135   1 H                                       1.0740590
    42   6 C      136   1 H                                       1.0719243 (min)
    44   6 C      137   1 H                                       1.0805079
    38   6 C      138   1 H                                       1.0813488
    40   6 C      139   1 H                                       1.0796437
Note: The following floating-point exceptions are signalling: IEEE_UNDERFLOW_FLAG
normal termination of xtb
    29   6 C      140   1 H                                       1.0785984
    25   6 C      141   1 H                                       1.0762635

 * 4 distinct bonds (by element types)

   Z      Z             #   av. dist./Å        max./Å        min./Å
   1 H    6 C          66     1.0863953     1.0906649     1.0719243
   6 C    6 C          58     1.4426497     1.5357310     1.3768501
   5 B    8 O           2     1.4698226     1.4707396     1.4689056
   6 C    8 O           8     1.3018569     1.3697544     1.2385686


optimized geometry written to: xtbopt.mol


           -------------------------------------------------
          | TOTAL ENERGY             -209.477580867999 Eh   |
          | GRADIENT NORM               0.000316624521 Eh/α |
          | HOMO-LUMO GAP               1.167272295774 eV   |
           -------------------------------------------------
########################################################################
[WARNING] Runtime exception occurred
-3- restart_readRestart: Dimension missmatch in restart file.
-2- restart_readRestart: Multiplicity missmatch in restart file.
-1- restart_readRestart: Number of electron missmatch in restart file.
########################################################################

------------------------------------------------------------------------
 * finished run on 2024/11/12 at 11:19:18.066     
------------------------------------------------------------------------
 total:
 * wall-time:     0 d,  0 h,  0 min, 40.045 sec
 *  cpu-time:     0 d,  0 h,  2 min, 17.712 sec
 * ratio c/w:     3.439 speedup
 SCF:
 * wall-time:     0 d,  0 h,  0 min,  1.347 sec
 *  cpu-time:     0 d,  0 h,  0 min,  4.687 sec
 * ratio c/w:     3.481 speedup
 ANC optimizer:
 * wall-time:     0 d,  0 h,  0 min, 38.642 sec
 *  cpu-time:     0 d,  0 h,  2 min, 12.972 sec
 * ratio c/w:     3.441 speedup

