      -----------------------------------------------------------      
     |                   =====================                   |     
     |                           x T B                           |     
     |                   =====================                   |     
     |                         S. Grimme                         |     
     |          Mulliken Center for Theoretical Chemistry        |     
     |                    University of Bonn                     |     
      -----------------------------------------------------------      

   * xtb version 6.6.1 (8d0f1dd) compiled by 'runner@Mac-1690902418499.local' on 2023-08-01

   xtb is free software: you can redistribute it and/or modify it under
   the terms of the GNU Lesser General Public License as published by
   the Free Software Foundation, either version 3 of the License, or
   (at your option) any later version.
   
   xtb is distributed in the hope that it will be useful,
   but WITHOUT ANY WARRANTY; without even the implied warranty of
   MERCHANTABILITY or FITNESS FOR A PARTICULAR PURPOSE.  See the
   GNU Lesser General Public License for more details.
   
   Cite this work as:
   * C. Bannwarth, E. Caldeweyher, S. Ehlert, A. Hansen, P. Pracht,
     J. Seibert, S. Spicher, S. Grimme, WIREs Comput. Mol. Sci., 2020, 11,
     e01493. DOI: 10.1002/wcms.1493
   
   for GFN2-xTB:
   * C. Bannwarth, S. Ehlert and S. Grimme., J. Chem. Theory Comput., 2019,
     15, 1652-1671. DOI: 10.1021/acs.jctc.8b01176
   for GFN1-xTB:
   * S. Grimme, C. Bannwarth, P. Shushkov, J. Chem. Theory Comput., 2017,
     13, 1989-2009. DOI: 10.1021/acs.jctc.7b00118
   for GFN0-xTB:
   * P. Pracht, E. Caldeweyher, S. Ehlert, S. Grimme, ChemRxiv, 2019, preprint.
     DOI: 10.26434/chemrxiv.8326202.v1
   for GFN-FF:
   * S. Spicher and S. Grimme, Angew. Chem. Int. Ed., 2020, 59, 15665-15673.
     DOI: 10.1002/anie.202004239
   
   for ALPB and GBSA implicit solvation:
   * S. Ehlert, M. Stahn, S. Spicher, S. Grimme, J. Chem. Theory Comput.,
     2021, 17, 4250-4261. DOI: 10.1021/acs.jctc.1c00471
   
   for DFT-D4:
   * E. Caldeweyher, C. Bannwarth and S. Grimme, J. Chem. Phys., 2017,
     147, 034112. DOI: 10.1063/1.4993215
   * E. Caldeweyher, S. Ehlert, A. Hansen, H. Neugebauer, S. Spicher,
     C. Bannwarth and S. Grimme, J. Chem. Phys., 2019, 150, 154122.
     DOI: 10.1063/1.5090222
   * E. Caldeweyher, J.-M. Mewes, S. Ehlert and S. Grimme, Phys. Chem. Chem. Phys.
     2020, 22, 8499-8512. DOI: 10.1039/D0CP00502A
   
   for sTDA-xTB:
   * S. Grimme and C. Bannwarth, J. Chem. Phys., 2016, 145, 054103.
     DOI: 10.1063/1.4959605
   
   in the mass-spec context:
   * V. Asgeirsson, C. Bauer and S. Grimme, Chem. Sci., 2017, 8, 4879.
     DOI: 10.1039/c7sc00601b
   * J. Koopman and S. Grimme, ACS Omega 2019, 4, 12, 15120-15133.
     DOI: 10.1021/acsomega.9b02011
   
   for metadynamics refer to:
   * S. Grimme, J. Chem. Theory Comput., 2019, 155, 2847-2862
     DOI: 10.1021/acs.jctc.9b00143
   
   for SPH calculations refer to:
   * S. Spicher and S. Grimme, J. Chem. Theory Comput., 2021, 17, 1701-1714
     DOI: 10.1021/acs.jctc.0c01306
   
   with help from (in alphabetical order)
   P. Atkinson, C. Bannwarth, F. Bohle, G. Brandenburg, E. Caldeweyher
   M. Checinski, S. Dohm, S. Ehlert, S. Ehrlich, I. Gerasimov, C. Hölzer
   A. Katbashev, J. Koopman, C. Lavigne, S. Lehtola, F. März, M. Müller,
   F. Musil, H. Neugebauer, J. Pisarek, C. Plett, P. Pracht, F. Pultar,
   J. Seibert, P. Shushkov, S. Spicher, M. Stahn, M. Steiner, T. Strunk,
   J. Stückrath, T. Rose, and J. Unsleber
   
 * started run on 2025/03/14 at 13:00:03.573     

           -------------------------------------------------
          |                Calculation Setup                |
           -------------------------------------------------

          program call               : xtb scoord.19 --md --gfnff --input md_settings.inp
          coordinate file            : scoord.19
          omp threads                :                     8

   ID    Z sym.   atoms
    1    6 C      1-9, 11, 12, 14-21, 24, 25, 34, 35, 38, 41-43, 59-67, 69,
                  70, 72-79, 82, 83, 92, 93, 96, 99-101
    2    7 N      10, 13, 68, 71
    3    8 O      22, 23, 32, 33, 36, 37, 39, 40, 80, 81, 90, 91, 94, 95, 97,
                  98
    4    1 H      26-31, 44-58, 84-89, 102-116

molecular fragmentation (1/2 indicates fragments):
111111111111111111111111111111111111111111111111111111111122222222222222
22222222222222222222222222222222222222222222
# atoms in fragment 1/2:    58    58
 fragment masses (1/2) :      501.47      501.47
CMA distance (Bohr)    :   9.083
constraining FC (au)   :  0.0500
          GFN-FF topology read from file successfully!
           ------------------------------------------------- 
          |                   G F N - F F                   |
          |          A general generic force-field          |
          |                  Version 1.0.3                  | 
           ------------------------------------------------- 
          Number of HB bonds (bound hydrogen)     18832
          Number of HB bonds (unbound hydrogen)   508
          Number of XB bonds                      0

 E+G (total)                   0 d,  0 h,  0 min,  0.002 sec
 distance/D3 list               ...        0 min,  0.000 sec (  0.993%)
 non bonded repulsion           ...        0 min,  0.000 sec (  3.850%)
 dCN                            ...        0 min,  0.000 sec (  7.485%)
 EEQ energy and q               ...        0 min,  0.000 sec ( 12.587%)
 D3                             ...        0 min,  0.000 sec ( 20.366%)
 EEQ gradient                   ...        0 min,  0.000 sec (  1.851%)
 bonds                          ...        0 min,  0.000 sec (  3.782%)
 bend and torsion               ...        0 min,  0.000 sec (  2.134%)
 bonded ATM                     ...        0 min,  0.000 sec (  1.287%)
 HB/XB (incl list setup)        ...        0 min,  0.001 sec ( 45.484%)

         :::::::::::::::::::::::::::::::::::::::::::::::::::::
         ::                     SUMMARY                     ::
         :::::::::::::::::::::::::::::::::::::::::::::::::::::
         :: total energy             -22.923748356567 Eh    ::
         :: gradient norm              0.321390914305 Eh/a0 ::
         ::.................................................::
         :: bond energy              -23.533629673262 Eh    ::
         :: angle energy               0.109275993081 Eh    ::
         :: torsion energy             0.070976762401 Eh    ::
         :: repulsion energy           1.571782057226 Eh    ::
         :: electrostat energy        -0.949575016043 Eh    ::
         :: dispersion energy         -0.154872197959 Eh    ::
         :: HB energy                 -0.008856146796 Eh    ::
         :: XB energy                  0.000000000000 Eh    ::
         :: bonded atm energy         -0.028850135213 Eh    ::
         :: external energy            0.000000000000 Eh    ::
         :: add. restraining           0.000000000000 Eh    ::
         :: total charge              -0.000000000000 e     ::
         :::::::::::::::::::::::::::::::::::::::::::::::::::::

           -------------------------------------------------
          |                Property Printout                |
           -------------------------------------------------

           -------------------------------------------------
          | TOTAL ENERGY              -22.923748356567 Eh   |
          | GRADIENT NORM               0.321390914305 Eh/α |
           -------------------------------------------------
           ------------------------------------------------- 
          |               Molecular Dynamics                |
           ------------------------------------------------- 
 trajectories on xtb.trj or xtb.trj.<n>

 MD time /ps        :   20.00
 dt /fs             :    2.00
 SCC accuracy       :    2.00
 temperature /K     :  361.00
 max steps          : 10000
 block length (av.) :  2500
 dumpstep(trj) /fs  :  500.00   250
 dumpstep(coords)/fs: 1000.00   500
 H atoms mass (amu) :     4
 # deg. of freedom  :   348
 SHAKE off
 Berendsen THERMOSTAT on
         time (ps)    <Epot>      Ekin   <T>   T     Etot
      0    0.00      0.00000   0.4150    0.    0.   -22.50876
est. speed in wall clock h for 100 ps :  0.02
    200    0.40    -22.70590   0.2391  507.  434.   -22.58591
    400    0.80    -22.77562   0.2367  483.  430.   -22.62316
    600    1.20    -22.80552   0.2199  465.  399.   -22.63341
    800    1.60    -22.82318   0.2087  450.  379.   -22.67349
   1000    2.00    -22.83571   0.1938  438.  352.   -22.67641
   1200    2.40    -22.84549   0.2232  429.  405.   -22.67950
   1400    2.80    -22.85279   0.2154  421.  391.   -22.68589
   1600    3.20    -22.85887   0.2022  415.  367.   -22.68935
   1800    3.60    -22.86409   0.1962  410.  356.   -22.69552
   2000    4.00    -22.86829   0.2006  406.  364.   -22.70575
   2200    4.40    -22.87136   0.2132  402.  387.   -22.70164
   2400    4.80    -22.87402   0.1953  398.  354.   -22.71350
block <Epot> / <T> :     -22.88441  397.     drift:  0.99D+02   Tbath : 361.
   2600    5.20    -22.87645   0.2083  396.  378.   -22.71028
   2800    5.60    -22.87833   0.1882  393.  342.   -22.70388
   3000    6.00    -22.87994   0.1989  391.  361.   -22.70454
   3200    6.40    -22.88143   0.1906  389.  346.   -22.71046
   3400    6.80    -22.88268   0.2026  387.  368.   -22.69774
   3600    7.20    -22.88376   0.1918  386.  348.   -22.70542
   3800    7.60    -22.88463   0.2052  384.  372.   -22.69679
   4000    8.00    -22.88550   0.2214  383.  402.   -22.69493
   4200    8.40    -22.88635   0.2164  382.  393.   -22.69206
   4400    8.80    -22.88720   0.1974  381.  358.   -22.70821
   4600    9.20    -22.88782   0.1958  380.  355.   -22.69149
   4800    9.60    -22.88837   0.2058  380.  373.   -22.70706
   5000   10.00    -22.88904   0.2041  379.  370.   -22.71584
block <Epot> / <T> :     -22.90284  361.     drift:  0.99D+02   Tbath : 361.
   5200   10.40    -22.88960   0.2125  378.  386.   -22.70483
   5400   10.80    -22.89008   0.1962  378.  356.   -22.70536
   5600   11.20    -22.89053   0.1927  377.  350.   -22.69963
   5800   11.60    -22.89093   0.1977  376.  359.   -22.70287
   6000   12.00    -22.89128   0.2040  376.  370.   -22.69764
   6200   12.40    -22.89165   0.2040  375.  370.   -22.70945
   6400   12.80    -22.89216   0.2145  375.  389.   -22.71081
   6600   13.20    -22.89273   0.1858  375.  337.   -22.70310
   6800   13.60    -22.89330   0.2054  375.  373.   -22.71600
   7000   14.00    -22.89374   0.1894  374.  344.   -22.71930
   7200   14.40    -22.89419   0.1980  374.  359.   -22.71024
   7400   14.80    -22.89448   0.2082  373.  378.   -22.70795
block <Epot> / <T> :     -22.90596  362.     drift:  0.99D+02   Tbath : 361.
   7600   15.20    -22.89491   0.2164  373.  393.   -22.70873
   7800   15.60    -22.89526   0.1916  373.  348.   -22.70641
   8000   16.00    -22.89563   0.1913  373.  347.   -22.70650
   8200   16.40    -22.89593   0.2060  372.  374.   -22.70360
   8400   16.80    -22.89621   0.2095  372.  380.   -22.71439
   8600   17.20    -22.89649   0.2008  372.  364.   -22.69641
   8800   17.60    -22.89673   0.1947  371.  353.   -22.70718
   9000   18.00    -22.89696   0.1790  371.  325.   -22.69975
   9200   18.40    -22.89714   0.1954  371.  355.   -22.70006
   9400   18.80    -22.89727   0.1854  371.  337.   -22.69873
   9600   19.20    -22.89733   0.2002  370.  363.   -22.71558
   9800   19.60    -22.89744   0.2060  370.  374.   -22.68818
 average properties 
 Epot               :  -22.897449493970594     
 Epot (accurate SCC):  -22.899515939363166     
 Ekin               :  0.20377884201714055     
 Etot               :  -22.693670651953457     
 T                  :   369.81798588896527     
 thermostating problem
 normal exit of md()

------------------------------------------------------------------------
 * finished run on 2025/03/14 at 13:00:19.542     
------------------------------------------------------------------------
 total:
 * wall-time:     0 d,  0 h,  0 min, 15.968 sec
 *  cpu-time:     0 d,  0 h,  0 min, 31.224 sec
 * ratio c/w:     1.955 speedup
 SCF:
 * wall-time:     0 d,  0 h,  0 min,  0.003 sec
 *  cpu-time:     0 d,  0 h,  0 min,  0.004 sec
Note: The following floating-point exceptions are signalling: IEEE_UNDERFLOW_FLAG
normal termination of xtb
 * ratio c/w:     1.291 speedup
 MD:
 * wall-time:     0 d,  0 h,  0 min, 15.959 sec
 *  cpu-time:     0 d,  0 h,  0 min, 31.215 sec
 * ratio c/w:     1.956 speedup

