Optimization of monomers started
      -----------------------------------------------------------      
     |                   =====================                   |     
     |                           x T B                           |     
     |                   =====================                   |     
     |                         S. Grimme                         |     
     |          Mulliken Center for Theoretical Chemistry        |     
     |                    University of Bonn                     |     
      -----------------------------------------------------------      

   * xtb version 6.7.1 (edcfbbe) compiled by 'runner@Mac-1732539442253.local' on 2024-11-25

   xtb is free software: you can redistribute it and/or modify it under
   the terms of the GNU Lesser General Public License as published by
   the Free Software Foundation, either version 3 of the License, or
   (at your option) any later version.
   
   xtb is distributed in the hope that it will be useful,
   but WITHOUT ANY WARRANTY; without even the implied warranty of
   MERCHANTABILITY or FITNESS FOR A PARTICULAR PURPOSE.  See the
   GNU Lesser General Public License for more details.
   
   Cite this work as:
   * C. Bannwarth, E. Caldeweyher, S. Ehlert, A. Hansen, P. Pracht,
     J. Seibert, S. Spicher, S. Grimme, WIREs Comput. Mol. Sci., 2020, 11,
     e01493. DOI: 10.1002/wcms.1493
   
   for GFN2-xTB:
   * C. Bannwarth, S. Ehlert and S. Grimme., J. Chem. Theory Comput., 2019,
     15, 1652-1671. DOI: 10.1021/acs.jctc.8b01176
   for GFN1-xTB:
   * S. Grimme, C. Bannwarth, P. Shushkov, J. Chem. Theory Comput., 2017,
     13, 1989-2009. DOI: 10.1021/acs.jctc.7b00118
   for GFN0-xTB:
   * P. Pracht, E. Caldeweyher, S. Ehlert, S. Grimme, ChemRxiv, 2019, preprint.
     DOI: 10.26434/chemrxiv.8326202.v1
   for GFN-FF:
   * S. Spicher and S. Grimme, Angew. Chem. Int. Ed., 2020, 59, 15665-15673.
     DOI: 10.1002/anie.202004239
   
   for ALPB and GBSA implicit solvation:
   * S. Ehlert, M. Stahn, S. Spicher, S. Grimme, J. Chem. Theory Comput.,
     2021, 17, 4250-4261. DOI: 10.1021/acs.jctc.1c00471
   
   for ddCOSMO and CPCM-X implicit solvation:
   * M. Stahn, S. Ehlert, S. Grimme, J. Phys. Chem. A,
     2023, XX, XXXX-XXXX. DOI: 10.1021/acs.jpca.3c04382
   
   for DFT-D4:
   * E. Caldeweyher, C. Bannwarth and S. Grimme, J. Chem. Phys., 2017,
     147, 034112. DOI: 10.1063/1.4993215
   * E. Caldeweyher, S. Ehlert, A. Hansen, H. Neugebauer, S. Spicher,
     C. Bannwarth and S. Grimme, J. Chem. Phys., 2019, 150, 154122.
     DOI: 10.1063/1.5090222
   * E. Caldeweyher, J.-M. Mewes, S. Ehlert and S. Grimme, Phys. Chem. Chem. Phys.
     2020, 22, 8499-8512. DOI: 10.1039/D0CP00502A
   
   for sTDA-xTB:
   * S. Grimme and C. Bannwarth, J. Chem. Phys., 2016, 145, 054103.
     DOI: 10.1063/1.4959605
   
   in the mass-spec context:
   * V. Asgeirsson, C. Bauer and S. Grimme, Chem. Sci., 2017, 8, 4879.
     DOI: 10.1039/c7sc00601b
   * J. Koopman and S. Grimme, ACS Omega 2019, 4, 12, 15120-15133.
     DOI: 10.1021/acsomega.9b02011
   
   for metadynamics refer to:
   * S. Grimme, J. Chem. Theory Comput., 2019, 155, 2847-2862
     DOI: 10.1021/acs.jctc.9b00143
   
   for SPH calculations refer to:
   * S. Spicher and S. Grimme, J. Chem. Theory Comput., 2021, 17, 1701-1714
     DOI: 10.1021/acs.jctc.0c01306
   
   for ONIOM refer to:
   * C. Plett, A. Katbashev, S. Ehlert, S. Grimme, M. Bursch,
     Phys. Chem. Chem. Phys., 2023, 25, 17860-17868. DOI: 10.1039/D3CP02178E
   
   for DIPRO refer to:
   * J. Kohn, N. Gildemeister, S. Grimme, D. Fazzi, A. Hansen,
     J. Chem. Phys., 2023, just accepted.
   
   for PTB refer to:
   * S. Grimme, M. Mueller, A. Hansen, J. Chem. Phys., 2023, 158, 124111.
     DOI: 10.1063/5.0137838
   
   with help from (in alphabetical order)
   P. Atkinson, C. Bannwarth, F. Bohle, G. Brandenburg, E. Caldeweyher
   M. Checinski, S. Dohm, S. Ehlert, S. Ehrlich, I. Gerasimov, C. Hölzer
   A. Katbashev, J. Kohn, J. Koopman, C. Lavigne, S. Lehtola, F. März, M. Müller,
   F. Musil, H. Neugebauer, J. Pisarek, C. Plett, P. Pracht, F. Pultar,
   J. Seibert, P. Shushkov, S. Spicher, M. Stahn, M. Steiner, T. Strunk,
   J. Stückrath, T. Rose, and J. Unsleber
   
 * started run on 2025/03/04 at 11:13:24.916     
   ID    Z sym.   atoms
    1    6 C      1-9, 11, 12, 14-21, 24-35, 42, 43
    2    7 N      10, 13
    3    8 O      22, 23
    4    1 H      36-41, 44-76

           -------------------------------------------------
          |                Calculation Setup                |
           -------------------------------------------------

          program call               : xtb Base3tBu.mol --opt tight --cycles 500 --chrg 0 --uhf 1 --spinpol --tblite
          coordinate file            : Base3tBu.mol
          omp threads                :                     8

repulsion energy          9.7623309485373E-01 Eh
dispersion energy         5.6497307361390E-04 Eh
interaction energy        0.0000000000000E+00 Eh
number of electrons       1.9300000000000E+02 e
integral cutoff           1.7347787504999E+01 bohr

------------------------------------------------------------
  cycle        total energy    energy error   density error
------------------------------------------------------------
      1     -103.0721809547  -1.0404898E+02   1.0892012E-01
      2     -103.1662067139  -9.4025759E-02   6.4790329E-02
      3     -102.9960378991   1.7016881E-01   5.6101443E-02
      4     -103.2679914571  -2.7195356E-01   2.8827988E-02
      5     -103.4177941876  -1.4980273E-01   9.0364652E-03
      6     -103.4225888928  -4.7947053E-03   5.1927968E-03
      7     -103.4251443568  -2.5554640E-03   3.3605394E-03
      8     -103.4255806917  -4.3633485E-04   2.3711213E-03
      9     -103.4261703508  -5.8965916E-04   1.2630173E-03
     10     -103.4262252762  -5.4925389E-05   8.2024475E-04
     11     -103.4262176345   7.6417256E-06   6.8817320E-04
     12     -103.4262621706  -4.4536173E-05   3.2724733E-04
     13     -103.4262676802  -5.5095915E-06   1.9641643E-04
     14     -103.4262713613  -3.6810597E-06   1.2483283E-04
     15     -103.4262730802  -1.7188980E-06   7.0476780E-05
     16     -103.4262732361  -1.5592302E-07   4.1830291E-05
     17     -103.4262733480  -1.1183556E-07   2.4157664E-05
     18     -103.4262733929  -4.4980609E-08   1.3885217E-05
------------------------------------------------------------

electronic energy        -1.0440307146086E+02 Eh
total energy             -1.0342627339293E+02 Eh

 total:                                   1.066 sec
 - repulsion                              0.000 sec (  0%)
 - dispersion                             0.006 sec (  0%)
 - coulomb                                0.002 sec (  0%)
 - hamiltonian                            0.007 sec (  0%)
 - scc                                    1.051 sec ( 98%)

      ----------------------------------------------------------- 
     |                   =====================                   |
     |                        A N C O P T                        |
     |                   =====================                   |
     |               Approximate Normal Coordinate               |
     |                Rational Function Optimizer                |
      ----------------------------------------------------------- 
      ----------------------------------------------------------- 
     |                   =====================                   |
     |                        A N C O P T                        |
     |                   =====================                   |
     |               Approximate Normal Coordinate               |
     |                Rational Function Optimizer                |
      ----------------------------------------------------------- 

          ...................................................
          :                      SETUP                      :
          :.................................................:
          :   optimization level             tight          :
          :   max. optcycles                   500          :
          :   ANC micro-cycles                  20          :
          :   degrees of freedom               222          :
          :.................................................:
          :   RF solver                   davidson          :
          :   write xtbopt.log                true          :
          :   linear?                        false          :
          :   energy convergence         0.1000000E-05 Eh   :
          :   grad. convergence          0.8000000E-03 Eh/α :
          :   maxmium RF displ.          1.0000000          :
          :   Hlow (freq-cutoff)         0.1000000E-01      :
          :   Hmax (freq-cutoff)         5.0000000          :
          :   S6 in model hess.         20.0000000          :
          ...................................................

generating ANC from exact Hessian ...
Using Lindh-Hessian (1995)
 Shifting diagonal of input Hessian by    1.0131760126574452E-002
 Lowest  eigenvalues of input Hessian
    0.010000    0.010022    0.010042    0.010077    0.010081    0.000000
    0.010094    0.000000    0.000000    0.000000    0.000000    0.000000
    0.010271    0.010381    0.010445    0.010555    0.010617    0.010783
 Highest eigenvalues
    1.169183    1.169787    1.219763    1.220655    1.407608    2.384335


........................................................................
.............................. CYCLE    1 ..............................
........................................................................
------------------------------------------------------------
  cycle        total energy    energy error   density error
------------------------------------------------------------
      1     -103.4262731891  -1.0440307E+02   3.0645094E-05
      2     -103.4262729416   2.4747082E-07   4.5408235E-05
      3     -103.4262734025  -4.6093086E-07   5.6697717E-06
------------------------------------------------------------

 total:                                   0.301 sec
 * total energy  :  -103.4262734 Eh     change       -0.9609536E-08 Eh
   gradient norm :     0.5456430 Eh/α   predicted     0.0000000E+00 (-100.00%)
   displ. norm   :     0.7928252 α      lambda       -0.3675768E+00
   maximum displ.:     0.3174331 α      in ANC's #103, #105, #143, ...

........................................................................
.............................. CYCLE    2 ..............................
........................................................................
------------------------------------------------------------
  cycle        total energy    energy error   density error
------------------------------------------------------------
      1     -103.7410788442  -1.0471418E+02   1.0028800E-02
      2     -103.7414485608  -3.6971657E-04   6.1475902E-03
      3     -103.7386383479   2.8102129E-03   4.8377896E-03
      4     -103.7418893208  -3.2509729E-03   9.9524932E-04
      5     -103.7419806416  -9.1320844E-05   6.3166093E-04
      6     -103.7420231126  -4.2471024E-05   2.7129900E-04
      7     -103.7420283651  -5.2524854E-06   1.7804231E-04
      8     -103.7420302831  -1.9179381E-06   9.2141187E-05
      9     -103.7420310709  -7.8785935E-07   5.1974556E-05
     10     -103.7420311710  -1.0005601E-07   3.4330253E-05
     11     -103.7420312197  -4.8760214E-08   2.2817971E-05
     12     -103.7420312604  -4.0635669E-08   1.2466534E-05
------------------------------------------------------------

 total:                                   0.580 sec
 * total energy  :  -103.7420313 Eh     change       -0.3157579E+00 Eh
   gradient norm :     0.3700606 Eh/α   predicted    -0.2993305E+00 (  -5.20%)
   displ. norm   :     0.8356381 α      lambda       -0.2836256E+00
   maximum displ.:     0.3714456 α      in ANC's #103, #105, #56, ...

........................................................................
.............................. CYCLE    3 ..............................
........................................................................
------------------------------------------------------------
  cycle        total energy    energy error   density error
------------------------------------------------------------
      1     -103.9801190295  -1.0500398E+02   9.8589797E-03
      2     -103.9802013463  -8.2316873E-05   6.1693122E-03
      3     -103.9773542889   2.8470575E-03   5.1602722E-03
      4     -103.9809533293  -3.5990404E-03   9.0593059E-04
      5     -103.9810677621  -1.1443279E-04   4.6998773E-04
      6     -103.9810904537  -2.2691667E-05   2.5077093E-04
      7     -103.9810949098  -4.4560854E-06   1.4056240E-04
      8     -103.9810951262  -2.1635174E-07   8.2670677E-05
      9     -103.9810956889  -5.6274119E-07   4.7941791E-05
     10     -103.9810957797  -9.0789158E-08   2.8868410E-05
     11     -103.9810958168  -3.7123783E-08   2.0447534E-05
     12     -103.9810958535  -3.6648103E-08   1.0219902E-05
------------------------------------------------------------

 total:                                   0.642 sec
 * total energy  :  -103.9810959 Eh     change       -0.2390646E+00 Eh
   gradient norm :     0.2380498 Eh/α   predicted    -0.2408395E+00 (   0.74%)
   displ. norm   :     0.8486631 α      lambda       -0.1924412E+00
   maximum displ.:     0.3972652 α      in ANC's #103, #105, #56, ...

........................................................................
.............................. CYCLE    4 ..............................
........................................................................
------------------------------------------------------------
  cycle        total energy    energy error   density error
------------------------------------------------------------
      1     -104.1450669779  -1.0525530E+02   8.5074065E-03
      2     -104.1449192167   1.4776115E-04   5.4008051E-03
      3     -104.1428151405   2.1040763E-03   4.6941624E-03
      4     -104.1457767978  -2.9616573E-03   7.3186662E-04
      5     -104.1458573778  -8.0580007E-05   3.2663636E-04
      6     -104.1458628665  -5.4887173E-06   1.9610273E-04
      7     -104.1458639807  -1.1142382E-06   1.1314380E-04
      8     -104.1458647140  -7.3324290E-07   6.1177630E-05
      9     -104.1458648253  -1.1130128E-07   4.1564883E-05
     10     -104.1458649398  -1.1455724E-07   2.0276242E-05
     11     -104.1458649550  -1.5115759E-08   1.2102368E-05
------------------------------------------------------------

 total:                                   0.665 sec
 * total energy  :  -104.1458650 Eh     change       -0.1647691E+00 Eh
   gradient norm :     0.1669999 Eh/α   predicted    -0.1655223E+00 (   0.46%)
   displ. norm   :     0.8482265 α      lambda       -0.1356362E+00
   maximum displ.:     0.4327189 α      in ANC's #56, #103, #105, ...

........................................................................
.............................. CYCLE    5 ..............................
........................................................................
------------------------------------------------------------
  cycle        total energy    energy error   density error
------------------------------------------------------------
      1     -104.2610262166  -1.0546638E+02   7.5609413E-03
      2     -104.2609068251   1.1939149E-04   4.8652481E-03
      3     -104.2595343479   1.3724772E-03   4.0924070E-03
      4     -104.2617276867  -2.1933388E-03   7.2825111E-04
      5     -104.2618076944  -8.0007694E-05   2.8252705E-04
      6     -104.2618106233  -2.9289087E-06   1.7621601E-04
      7     -104.2618111719  -5.4862922E-07   1.0825014E-04
      8     -104.2618120318  -8.5988280E-07   5.2577785E-05
      9     -104.2618121061  -7.4324305E-08   3.5703425E-05
     10     -104.2618122019  -9.5737008E-08   1.5926497E-05
------------------------------------------------------------

 total:                                   0.542 sec
 * total energy  :  -104.2618122 Eh     change       -0.1159472E+00 Eh
   gradient norm :     0.1198854 Eh/α   predicted    -0.1166124E+00 (   0.57%)
   displ. norm   :     0.8513681 α      lambda       -0.9574404E-01
   maximum displ.:     0.5209625 α      in ANC's #56, #103, #105, ...

........................................................................
.............................. CYCLE    6 ..............................
........................................................................
------------------------------------------------------------
  cycle        total energy    energy error   density error
------------------------------------------------------------
      1     -104.3436266841  -1.0563248E+02   6.3600772E-03
      2     -104.3436551155  -2.8431366E-05   4.0180852E-03
      3     -104.3427582429   8.9687261E-04   3.2014679E-03
      4     -104.3441032119  -1.3449690E-03   6.1628170E-04
      5     -104.3441629421  -5.9730171E-05   2.1727646E-04
      6     -104.3441647897  -1.8476172E-06   1.2977860E-04
      7     -104.3441654575  -6.6775320E-07   8.1293044E-05
      8     -104.3441658264  -3.6899407E-07   4.0995339E-05
      9     -104.3441659215  -9.5061679E-08   2.5579349E-05
     10     -104.3441659633  -4.1775650E-08   1.1286958E-05
------------------------------------------------------------

 total:                                   0.448 sec
 * total energy  :  -104.3441660 Eh     change       -0.8235376E-01 Eh
   gradient norm :     0.0884104 Eh/α   predicted    -0.8257103E-01 (   0.26%)
   displ. norm   :     0.8589280 α      lambda       -0.6945231E-01
   maximum displ.:     0.5613552 α      in ANC's #56, #17, #103, ...

........................................................................
.............................. CYCLE    7 ..............................
........................................................................
------------------------------------------------------------
  cycle        total energy    energy error   density error
------------------------------------------------------------
      1     -104.4039750090  -1.0575851E+02   5.0815520E-03
      2     -104.4040509804  -7.5971365E-05   3.0898611E-03
      3     -104.4035364396   5.1454083E-04   2.2447319E-03
      4     -104.4042004083  -6.6396870E-04   4.3173940E-04
      5     -104.4042300244  -2.9616143E-05   1.6904614E-04
      6     -104.4042316279  -1.6034455E-06   9.2178891E-05
      7     -104.4042320425  -4.1461865E-07   5.8838696E-05
      8     -104.4042322414  -1.9890904E-07   3.1003517E-05
      9     -104.4042322912  -4.9819093E-08   1.8667907E-05
------------------------------------------------------------

 total:                                   0.366 sec
 * total energy  :  -104.4042323 Eh     change       -0.6006633E-01 Eh
   gradient norm :     0.0646922 Eh/α   predicted    -0.6034579E-01 (   0.47%)
   displ. norm   :     0.8657649 α      lambda       -0.5137185E-01
   maximum displ.:     0.5406258 α      in ANC's #56, #17, #19, ...

........................................................................
.............................. CYCLE    8 ..............................
........................................................................
------------------------------------------------------------
  cycle        total energy    energy error   density error
------------------------------------------------------------
      1     -104.4482041350  -1.0585103E+02   4.4870136E-03
      2     -104.4482726197  -6.8484688E-05   2.6642243E-03
      3     -104.4480193570   2.5326265E-04   1.5680318E-03
      4     -104.4483221523  -3.0279532E-04   2.9881959E-04
      5     -104.4483321273  -9.9749758E-06   1.6386476E-04
      6     -104.4483344801  -2.3527853E-06   8.4953291E-05
      7     -104.4483348016  -3.2153206E-07   5.4675818E-05
      8     -104.4483349740  -1.7234736E-07   2.6576254E-05
      9     -104.4483350005  -2.6504608E-08   1.6571769E-05
------------------------------------------------------------

 total:                                   0.476 sec
 * total energy  :  -104.4483350 Eh     change       -0.4410271E-01 Eh
   gradient norm :     0.0531639 Eh/α   predicted    -0.4493879E-01 (   1.90%)
   displ. norm   :     0.8902196 α      lambda       -0.4125762E-01
   maximum displ.:     0.4711664 α      in ANC's #56, #17, #18, ...

........................................................................
.............................. CYCLE    9 ..............................
........................................................................
------------------------------------------------------------
  cycle        total energy    energy error   density error
------------------------------------------------------------
      1     -104.4809759579  -1.0593257E+02   4.6681610E-03
      2     -104.4810266963  -5.0738341E-05   2.7902528E-03
      3     -104.4807397804   2.8691587E-04   1.6221798E-03
      4     -104.4810849298  -3.4514944E-04   2.4592692E-04
      5     -104.4810921809  -7.2510658E-06   1.2370724E-04
      6     -104.4810932819  -1.1009754E-06   6.0510756E-05
      7     -104.4810935069  -2.2507288E-07   3.6207294E-05
      8     -104.4810935781  -7.1136398E-08   2.2455138E-05
      9     -104.4810935895  -1.1452556E-08   1.4132013E-05
------------------------------------------------------------

 total:                                   0.394 sec
 * total energy  :  -104.4810936 Eh     change       -0.3275859E-01 Eh
   gradient norm :     0.0567027 Eh/α   predicted    -0.3697696E-01 (  12.88%)
   displ. norm   :     0.8708705 α      lambda       -0.3497180E-01
   maximum displ.:     0.3851315 α      in ANC's #56, #17, #19, ...

........................................................................
.............................. CYCLE   10 ..............................
........................................................................
------------------------------------------------------------
  cycle        total energy    energy error   density error
------------------------------------------------------------
      1     -104.5086332801  -1.0599320E+02   4.7539263E-03
      2     -104.5086825165  -4.9236419E-05   2.8251041E-03
      3     -104.5085132090   1.6930750E-04   1.2132338E-03
      4     -104.5087162246  -2.0301558E-04   1.7641908E-04
      5     -104.5087177503  -1.5257579E-06   1.0094492E-04
      6     -104.5087185972  -8.4691347E-07   4.5703763E-05
      7     -104.5087187389  -1.4169079E-07   2.3771349E-05
      8     -104.5087187795  -4.0522892E-08   1.3527643E-05
------------------------------------------------------------

 total:                                   0.408 sec
 * total energy  :  -104.5087188 Eh     change       -0.2762519E-01 Eh
   gradient norm :     0.0363517 Eh/α   predicted    -0.3074748E-01 (  11.30%)
   displ. norm   :     0.8742293 α      lambda       -0.2636072E-01
   maximum displ.:     0.3862332 α      in ANC's #19, #17, #18, ...

........................................................................
.............................. CYCLE   11 ..............................
........................................................................
------------------------------------------------------------
  cycle        total energy    energy error   density error
------------------------------------------------------------
      1     -104.5290041243  -1.0604813E+02   4.2380280E-03
      2     -104.5290418368  -3.7712474E-05   2.5213757E-03
      3     -104.5288478363   1.9400043E-04   1.1922613E-03
      4     -104.5290652447  -2.1740834E-04   2.7613563E-04
      5     -104.5290772622  -1.2017542E-05   1.0521037E-04
      6     -104.5290780342  -7.7204032E-07   3.8492621E-05
      7     -104.5290781021  -6.7875547E-08   2.2188124E-05
      8     -104.5290781358  -3.3646415E-08   1.2529667E-05
------------------------------------------------------------

 total:                                   0.368 sec
 * total energy  :  -104.5290781 Eh     change       -0.2035936E-01 Eh
   gradient norm :     0.0470736 Eh/α   predicted    -0.2325383E-01 (  14.22%)
   displ. norm   :     0.8528258 α      lambda       -0.2433930E-01
   maximum displ.:     0.4110095 α      in ANC's #17, #19, #18, ...

........................................................................
.............................. CYCLE   12 ..............................
........................................................................
------------------------------------------------------------
  cycle        total energy    energy error   density error
------------------------------------------------------------
      1     -104.5469499808  -1.0610102E+02   3.9901848E-03
      2     -104.5469871846  -3.7203801E-05   2.3717549E-03
      3     -104.5468665468   1.2063776E-04   9.4430925E-04
      4     -104.5470068585  -1.4031170E-04   1.9536446E-04
      5     -104.5470113681  -4.5096115E-06   9.8833792E-05
      6     -104.5470123221  -9.5402847E-07   3.8701350E-05
      7     -104.5470124225  -1.0031705E-07   1.8224224E-05
------------------------------------------------------------

 total:                                   0.287 sec
 * total energy  :  -104.5470124 Eh     change       -0.1793429E-01 Eh
   gradient norm :     0.0331180 Eh/α   predicted    -0.2102079E-01 (  17.21%)
   displ. norm   :     0.8229641 α      lambda       -0.1684347E-01
   maximum displ.:     0.3653170 α      in ANC's #17, #19, #18, ...

........................................................................
.............................. CYCLE   13 ..............................
........................................................................
------------------------------------------------------------
  cycle        total energy    energy error   density error
------------------------------------------------------------
      1     -104.5595059938  -1.0613022E+02   3.4630305E-03
      2     -104.5595242033  -1.8209462E-05   2.0406559E-03
      3     -104.5594726562   5.1547049E-05   6.1544948E-04
      4     -104.5595312985  -5.8642229E-05   1.5954275E-04
      5     -104.5595331463  -1.8477908E-06   8.7697827E-05
      6     -104.5595341512  -1.0049265E-06   2.7332145E-05
      7     -104.5595342076  -5.6444819E-08   1.5599559E-05
------------------------------------------------------------

 total:                                   0.421 sec
 * total energy  :  -104.5595342 Eh     change       -0.1252179E-01 Eh
   gradient norm :     0.0317040 Eh/α   predicted    -0.1412552E-01 (  12.81%)
   displ. norm   :     0.8179737 α      lambda       -0.1575689E-01
   maximum displ.:     0.3784802 α      in ANC's #19, #17, #15, ...

........................................................................
.............................. CYCLE   14 ..............................
........................................................................
------------------------------------------------------------
  cycle        total energy    energy error   density error
------------------------------------------------------------
      1     -104.5688859135  -1.0615166E+02   4.1222064E-03
      2     -104.5689138799  -2.7966374E-05   2.4429151E-03
      3     -104.5688574770   5.6402904E-05   6.8682778E-04
      4     -104.5689220244  -6.4547396E-05   1.6028353E-04
      5     -104.5689244403  -2.4159866E-06   8.6422140E-05
      6     -104.5689252324  -7.9202395E-07   3.4348370E-05
      7     -104.5689253251  -9.2718238E-08   1.5150980E-05
------------------------------------------------------------

 total:                                   0.317 sec
 * total energy  :  -104.5689253 Eh     change       -0.9391117E-02 Eh
   gradient norm :     0.0379568 Eh/α   predicted    -0.1314977E-01 (  40.02%)
   displ. norm   :     0.6977759 α      lambda       -0.1079759E-01
   maximum displ.:     0.2885758 α      in ANC's #19, #15, #17, ...

........................................................................
.............................. CYCLE   15 ..............................
........................................................................
------------------------------------------------------------
  cycle        total energy    energy error   density error
------------------------------------------------------------
      1     -104.5750864860  -1.0617635E+02   3.5863010E-03
      2     -104.5751081806  -2.1694580E-05   2.1054686E-03
      3     -104.5750444177   6.3762833E-05   5.4973355E-04
      4     -104.5751154764  -7.1058672E-05   1.6761412E-04
      5     -104.5751186868  -3.2104142E-06   8.1552754E-05
      6     -104.5751191988  -5.1194093E-07   3.1115845E-05
      7     -104.5751192473  -4.8564530E-08   1.6345524E-05
------------------------------------------------------------

 total:                                   0.330 sec
 * total energy  :  -104.5751192 Eh     change       -0.6193922E-02 Eh
   gradient norm :     0.0361982 Eh/α   predicted    -0.8027420E-02 (  29.60%)
   displ. norm   :     0.6564914 α      lambda       -0.8893117E-02
   maximum displ.:     0.3057613 α      in ANC's #15, #19, #17, ...

........................................................................
.............................. CYCLE   16 ..............................
........................................................................
------------------------------------------------------------
  cycle        total energy    energy error   density error
------------------------------------------------------------
      1     -104.5792654181  -1.0618140E+02   3.5382442E-03
      2     -104.5792876088  -2.2190709E-05   2.0685776E-03
      3     -104.5791755893   1.1201951E-04   7.9405264E-04
      4     -104.5793021263  -1.2653695E-04   1.5831182E-04
      5     -104.5793040071  -1.8808752E-06   7.4717120E-05
      6     -104.5793045216  -5.1447154E-07   2.8600339E-05
      7     -104.5793046190  -9.7404026E-08   1.1313611E-05
------------------------------------------------------------

 total:                                   0.337 sec
 * total energy  :  -104.5793046 Eh     change       -0.4185372E-02 Eh
   gradient norm :     0.0256560 Eh/α   predicted    -0.6362943E-02 (  52.03%)
   displ. norm   :     0.5415458 α      lambda       -0.4860207E-02
   maximum displ.:     0.2747090 α      in ANC's #15, #19, #22, ...

........................................................................
.............................. CYCLE   17 ..............................
........................................................................
------------------------------------------------------------
  cycle        total energy    energy error   density error
------------------------------------------------------------
      1     -104.5816359611  -1.0618794E+02   3.0487792E-03
      2     -104.5816522345  -1.6273451E-05   1.7781156E-03
      3     -104.5816118627   4.0371772E-05   5.4398729E-04
      4     -104.5816596480  -4.7785248E-05   1.2723074E-04
      5     -104.5816600350  -3.8699540E-07   7.0091831E-05
      6     -104.5816607736  -7.3857872E-07   2.0690835E-05
      7     -104.5816608248  -5.1214201E-08   8.7952063E-06
------------------------------------------------------------

 total:                                   0.309 sec
 * total energy  :  -104.5816608 Eh     change       -0.2356206E-02 Eh
   gradient norm :     0.0262879 Eh/α   predicted    -0.3142786E-02 (  33.38%)
   displ. norm   :     0.5110290 α      lambda       -0.4609578E-02
   maximum displ.:     0.2353573 α      in ANC's #15, #19, #22, ...

........................................................................
.............................. CYCLE   18 ..............................
........................................................................
------------------------------------------------------------
  cycle        total energy    energy error   density error
------------------------------------------------------------
      1     -104.5827594638  -1.0620364E+02   2.9466183E-03
      2     -104.5827748194  -1.5355550E-05   1.7507885E-03
      3     -104.5827011664   7.3652981E-05   6.4678438E-04
      4     -104.5827819134  -8.0746977E-05   1.4275082E-04
      5     -104.5827846812  -2.7678285E-06   6.0485014E-05
      6     -104.5827850149  -3.3373284E-07   2.6154279E-05
      7     -104.5827850458  -3.0865365E-08   1.2191165E-05
------------------------------------------------------------

 total:                                   0.341 sec
 * total energy  :  -104.5827850 Eh     change       -0.1124221E-02 Eh
   gradient norm :     0.0320213 Eh/α   predicted    -0.2906691E-02 ( 158.55%)
   displ. norm   :     0.2773043 α      lambda       -0.2796281E-02
   maximum displ.:     0.1326085 α      in ANC's #15, #12, #19, ...

........................................................................
.............................. CYCLE   19 ..............................
........................................................................
------------------------------------------------------------
  cycle        total energy    energy error   density error
------------------------------------------------------------
      1     -104.5841841617  -1.0620437E+02   2.0092115E-03
      2     -104.5841920221  -7.8603439E-06   1.1897317E-03
      3     -104.5841759859   1.6036160E-05   3.2520095E-04
      4     -104.5841947208  -1.8734940E-05   8.5756169E-05
      5     -104.5841952565  -5.3566148E-07   4.2335372E-05
      6     -104.5841954164  -1.5988459E-07   1.8492046E-05
------------------------------------------------------------

 total:                                   0.253 sec
 * total energy  :  -104.5841954 Eh     change       -0.1410371E-02 Eh
   gradient norm :     0.0157322 Eh/α   predicted    -0.1505659E-02 (   6.76%)
   displ. norm   :     0.3231028 α      lambda       -0.1952016E-02
   maximum displ.:     0.1268812 α      in ANC's #15, #12, #7, ...

........................................................................
.............................. CYCLE   20 ..............................
........................................................................
------------------------------------------------------------
  cycle        total energy    energy error   density error
------------------------------------------------------------
      1     -104.5843096247  -1.0620193E+02   2.4762626E-03
      2     -104.5843177900  -8.1652686E-06   1.4663441E-03
      3     -104.5842207480   9.7042035E-05   6.8823152E-04
      4     -104.5843279722  -1.0722428E-04   1.0790622E-04
      5     -104.5843291020  -1.1297407E-06   4.9024323E-05
      6     -104.5843292649  -1.6286829E-07   2.3469314E-05
      7     -104.5843293346  -6.9762834E-08   1.0039269E-05
------------------------------------------------------------

 total:                                   0.277 sec
 * total energy  :  -104.5843293 Eh     change       -0.1339182E-03 Eh
   gradient norm :     0.0247555 Eh/α   predicted    -0.1077903E-02 ( 704.90%)
   displ. norm   :     0.2127658 α      lambda       -0.1755307E-02
   maximum displ.:     0.0605131 α      in ANC's #15, #59, #17, ...
 * RMSD in coord.:     1.2325078 α      energy gain  -0.1158056E+01 Eh

generating ANC from exact Hessian ...
Using Lindh-Hessian (1995)
 Shifting diagonal of input Hessian by    9.8608971612132359E-003
 Lowest  eigenvalues of input Hessian
    0.000000    0.000000    0.000000    0.000000    0.000000    0.000000
    0.010000    0.010129    0.010209    0.010325    0.010414    0.010523
    0.011096    0.011142    0.011412    0.011527    0.011667    0.012502
 Highest eigenvalues
    1.995755    2.030413    2.044084    2.100564    2.201589    2.208977


........................................................................
.............................. CYCLE   21 ..............................
........................................................................
------------------------------------------------------------
  cycle        total energy    energy error   density error
------------------------------------------------------------
      1     -104.5852040194  -1.0620497E+02   1.8896230E-03
      2     -104.5852078457  -3.8263027E-06   1.1086204E-03
      3     -104.5851265290   8.1316694E-05   6.8102165E-04
      4     -104.5852185691  -9.2040106E-05   1.0798818E-04
      5     -104.5852196621  -1.0929396E-06   5.2274948E-05
      6     -104.5852199677  -3.0560655E-07   1.3643745E-05
------------------------------------------------------------

 total:                                   0.212 sec
 * total energy  :  -104.5852200 Eh     change       -0.8906331E-03 Eh
   gradient norm :     0.0141234 Eh/α   predicted     0.0000000E+00 (-100.00%)
   displ. norm   :     0.1733946 α      lambda       -0.8020425E-03
   maximum displ.:     0.0629619 α      in ANC's #7, #18, #11, ...

........................................................................
.............................. CYCLE   22 ..............................
........................................................................
------------------------------------------------------------
  cycle        total energy    energy error   density error
------------------------------------------------------------
      1     -104.5858198179  -1.0620653E+02   1.0296010E-03
      2     -104.5858221072  -2.2893534E-06   6.0944453E-04
      3     -104.5858175253   4.5818972E-06   1.7824706E-04
      4     -104.5858227554  -5.2300743E-06   4.9620499E-05
      5     -104.5858229853  -2.2987143E-07   2.5184798E-05
      6     -104.5858230439  -5.8608933E-08   1.1059204E-05
------------------------------------------------------------

 total:                                   0.260 sec
 * total energy  :  -104.5858230 Eh     change       -0.6030762E-03 Eh
   gradient norm :     0.0054400 Eh/α   predicted    -0.4130814E-03 ( -31.50%)
   displ. norm   :     0.3369247 α      lambda       -0.7528056E-03
   maximum displ.:     0.1324363 α      in ANC's #7, #11, #6, ...

........................................................................
.............................. CYCLE   23 ..............................
........................................................................
------------------------------------------------------------
  cycle        total energy    energy error   density error
------------------------------------------------------------
      1     -104.5863553586  -1.0620630E+02   1.4034338E-03
      2     -104.5863595665  -4.2079048E-06   8.4394942E-04
      3     -104.5863299759   2.9590628E-05   4.0910195E-04
      4     -104.5863631244  -3.3148511E-05   6.9889485E-05
      5     -104.5863635190  -3.9461231E-07   3.9283522E-05
      6     -104.5863636750  -1.5600644E-07   1.7017510E-05
------------------------------------------------------------

 total:                                   0.297 sec
 * total energy  :  -104.5863637 Eh     change       -0.5406311E-03 Eh
   gradient norm :     0.0060131 Eh/α   predicted    -0.4191593E-03 ( -22.47%)
   displ. norm   :     0.3715764 α      lambda       -0.4997576E-03
   maximum displ.:     0.1527972 α      in ANC's #7, #6, #11, ...

........................................................................
.............................. CYCLE   24 ..............................
........................................................................
------------------------------------------------------------
  cycle        total energy    energy error   density error
------------------------------------------------------------
      1     -104.5867377764  -1.0620479E+02   1.2622659E-03
      2     -104.5867399901  -2.2137015E-06   7.6925009E-04
      3     -104.5867033695   3.6620634E-05   4.5541236E-04
      4     -104.5867442737  -4.0904174E-05   5.7470545E-05
      5     -104.5867445470  -2.7328635E-07   3.3297228E-05
      6     -104.5867446619  -1.1494670E-07   1.3789618E-05
------------------------------------------------------------

 total:                                   0.395 sec
 * total energy  :  -104.5867447 Eh     change       -0.3809869E-03 Eh
   gradient norm :     0.0092027 Eh/α   predicted    -0.2843798E-03 ( -25.36%)
   displ. norm   :     0.4019566 α      lambda       -0.4823993E-03
   maximum displ.:     0.1711387 α      in ANC's #6, #7, #8, ...

........................................................................
.............................. CYCLE   25 ..............................
........................................................................
------------------------------------------------------------
  cycle        total energy    energy error   density error
------------------------------------------------------------
      1     -104.5871180931  -1.0620412E+02   1.2234235E-03
      2     -104.5871194221  -1.3290097E-06   7.4124992E-04
      3     -104.5870875012   3.1920888E-05   4.2436704E-04
      4     -104.5871228833  -3.5382156E-05   5.0541722E-05
      5     -104.5871231406  -2.5722936E-07   2.7953989E-05
      6     -104.5871232108  -7.0236908E-08   1.1556517E-05
------------------------------------------------------------

 total:                                   0.296 sec
 * total energy  :  -104.5871232 Eh     change       -0.3785489E-03 Eh
   gradient norm :     0.0079710 Eh/α   predicted    -0.2801715E-03 ( -25.99%)
   displ. norm   :     0.4184384 α      lambda       -0.4407000E-03
   maximum displ.:     0.1954841 α      in ANC's #6, #7, #1, ...

........................................................................
.............................. CYCLE   26 ..............................
........................................................................
------------------------------------------------------------
  cycle        total energy    energy error   density error
------------------------------------------------------------
      1     -104.5874475850  -1.0620508E+02   1.2513864E-03
      2     -104.5874488035  -1.2184851E-06   7.4850419E-04
      3     -104.5874179284   3.0875121E-05   4.0799942E-04
      4     -104.5874519862  -3.4057846E-05   5.3627419E-05
      5     -104.5874522230  -2.3683380E-07   2.9426040E-05
      6     -104.5874523101  -8.7043375E-08   1.0544601E-05
------------------------------------------------------------

 total:                                   0.330 sec
 * total energy  :  -104.5874523 Eh     change       -0.3290993E-03 Eh
   gradient norm :     0.0042279 Eh/α   predicted    -0.2589325E-03 ( -21.32%)
   displ. norm   :     0.4364391 α      lambda       -0.2839450E-03
   maximum displ.:     0.2167351 α      in ANC's #6, #1, #7, ...

........................................................................
.............................. CYCLE   27 ..............................
........................................................................
------------------------------------------------------------
  cycle        total energy    energy error   density error
------------------------------------------------------------
      1     -104.5876599238  -1.0620551E+02   1.3062062E-03
      2     -104.5876609662  -1.0423915E-06   7.7838832E-04
      3     -104.5876347198   2.6246336E-05   3.6252232E-04
      4     -104.5876633460  -2.8626182E-05   5.2280897E-05
      5     -104.5876635006  -1.5456362E-07   2.8609841E-05
      6     -104.5876635967  -9.6141932E-08   8.9986166E-06
------------------------------------------------------------

 total:                                   0.252 sec
 * total energy  :  -104.5876636 Eh     change       -0.2112866E-03 Eh
   gradient norm :     0.0050432 Eh/α   predicted    -0.1690199E-03 ( -20.00%)
   displ. norm   :     0.3742799 α      lambda       -0.2555441E-03
   maximum displ.:     0.2022989 α      in ANC's #6, #1, #8, ...

........................................................................
.............................. CYCLE   28 ..............................
........................................................................
------------------------------------------------------------
  cycle        total energy    energy error   density error
------------------------------------------------------------
      1     -104.5878265982  -1.0620889E+02   1.0718772E-03
      2     -104.5878277528  -1.1545351E-06   6.2628419E-04
      3     -104.5878176960   1.0056774E-05   2.2725474E-04
      4     -104.5878285681  -1.0872107E-05   5.9336931E-05
      5     -104.5878288786  -3.1052903E-07   2.4033627E-05
      6     -104.5878289364  -5.7758911E-08   7.5119087E-06
------------------------------------------------------------

 total:                                   0.344 sec
 * total energy  :  -104.5878289 Eh     change       -0.1653397E-03 Eh
   gradient norm :     0.0055191 Eh/α   predicted    -0.1456728E-03 ( -11.89%)
   displ. norm   :     0.4365651 α      lambda       -0.2055321E-03
   maximum displ.:     0.2413297 α      in ANC's #6, #1, #8, ...

........................................................................
.............................. CYCLE   29 ..............................
........................................................................
------------------------------------------------------------
  cycle        total energy    energy error   density error
------------------------------------------------------------
      1     -104.5879745731  -1.0620893E+02   1.2654616E-03
      2     -104.5879754741  -9.0102402E-07   7.5199755E-04
      3     -104.5879660707   9.4034578E-06   2.1217089E-04
      4     -104.5879763726  -1.0301869E-05   4.4204009E-05
      5     -104.5879764186  -4.6047447E-08   2.2675513E-05
      6     -104.5879764955  -7.6935024E-08   8.6407337E-06
------------------------------------------------------------

 total:                                   0.272 sec
 * total energy  :  -104.5879765 Eh     change       -0.1475592E-03 Eh
   gradient norm :     0.0048682 Eh/α   predicted    -0.1223531E-03 ( -17.08%)
   displ. norm   :     0.2810132 α      lambda       -0.1550188E-03
   maximum displ.:     0.1661822 α      in ANC's #6, #1, #3, ...

........................................................................
.............................. CYCLE   30 ..............................
........................................................................
------------------------------------------------------------
  cycle        total energy    energy error   density error
------------------------------------------------------------
      1     -104.5881061784  -1.0621024E+02   7.5993405E-04
      2     -104.5881065805  -4.0209905E-07   4.5046544E-04
      3     -104.5881035216   3.0588865E-06   1.2440456E-04
      4     -104.5881068103  -3.2886945E-06   3.1456444E-05
      5     -104.5881068954  -8.5066816E-08   1.2695462E-05
------------------------------------------------------------

 total:                                   0.258 sec
 * total energy  :  -104.5881069 Eh     change       -0.1303998E-03 Eh
   gradient norm :     0.0029767 Eh/α   predicted    -0.8363057E-04 ( -35.87%)
   displ. norm   :     0.3867805 α      lambda       -0.2034329E-03
   maximum displ.:     0.2321408 α      in ANC's #6, #1, #3, ...

........................................................................
.............................. CYCLE   31 ..............................
........................................................................
------------------------------------------------------------
  cycle        total energy    energy error   density error
------------------------------------------------------------
      1     -104.5882674740  -1.0621093E+02   1.0182779E-03
      2     -104.5882685489  -1.0748739E-06   6.0419524E-04
      3     -104.5882625060   6.0429193E-06   1.7187945E-04
      4     -104.5882692466  -6.7406140E-06   3.4066469E-05
      5     -104.5882693188  -7.2247232E-08   2.3117120E-05
      6     -104.5882693724  -5.3582539E-08   8.7976630E-06
------------------------------------------------------------

 total:                                   0.225 sec
 * total energy  :  -104.5882694 Eh     change       -0.1624770E-03 Eh
   gradient norm :     0.0028743 Eh/α   predicted    -0.1169332E-03 ( -28.03%)
   displ. norm   :     0.4384285 α      lambda       -0.1759263E-03
   maximum displ.:     0.2651493 α      in ANC's #6, #1, #3, ...

........................................................................
.............................. CYCLE   32 ..............................
........................................................................
------------------------------------------------------------
  cycle        total energy    energy error   density error
------------------------------------------------------------
      1     -104.5884133984  -1.0620996E+02   1.1225176E-03
      2     -104.5884143046  -9.0616770E-07   6.6528850E-04
      3     -104.5884124957   1.8089256E-06   1.0821277E-04
      4     -104.5884145940  -2.0982895E-06   3.3116030E-05
      5     -104.5884146396  -4.5622002E-08   2.3342327E-05
      6     -104.5884147104  -7.0772401E-08   8.0235659E-06
------------------------------------------------------------

 total:                                   0.250 sec
 * total energy  :  -104.5884147 Eh     change       -0.1453380E-03 Eh
   gradient norm :     0.0038319 Eh/α   predicted    -0.1048724E-03 ( -27.84%)
   displ. norm   :     0.3911434 α      lambda       -0.1561925E-03
   maximum displ.:     0.2303862 α      in ANC's #6, #1, #3, ...

........................................................................
.............................. CYCLE   33 ..............................
........................................................................
------------------------------------------------------------
  cycle        total energy    energy error   density error
------------------------------------------------------------
      1     -104.5885457435  -1.0620914E+02   9.8339575E-04
      2     -104.5885465119  -7.6836267E-07   5.8173303E-04
      3     -104.5885448906   1.6213192E-06   1.0200127E-04
      4     -104.5885467823  -1.8917509E-06   3.2878504E-05
      5     -104.5885468459  -6.3526429E-08   1.4650394E-05
------------------------------------------------------------

 total:                                   0.184 sec
 * total energy  :  -104.5885468 Eh     change       -0.1321355E-03 Eh
   gradient norm :     0.0044419 Eh/α   predicted    -0.9004981E-04 ( -31.85%)
   displ. norm   :     0.4214795 α      lambda       -0.1656588E-03
   maximum displ.:     0.2451551 α      in ANC's #6, #1, #3, ...

........................................................................
.............................. CYCLE   34 ..............................
........................................................................
------------------------------------------------------------
  cycle        total energy    energy error   density error
------------------------------------------------------------
      1     -104.5886837741  -1.0620799E+02   1.0503575E-03
      2     -104.5886847089  -9.3477243E-07   6.2012104E-04
      3     -104.5886797062   5.0027079E-06   1.7956743E-04
      4     -104.5886852334  -5.5271615E-06   4.7067647E-05
      5     -104.5886853334  -1.0005124E-07   2.4757275E-05
      6     -104.5886854373  -1.0390582E-07   7.4554613E-06
------------------------------------------------------------

 total:                                   0.345 sec
 * total energy  :  -104.5886854 Eh     change       -0.1385915E-03 Eh
   gradient norm :     0.0036762 Eh/α   predicted    -0.9754404E-04 ( -29.62%)
   displ. norm   :     0.4502647 α      lambda       -0.1660763E-03
   maximum displ.:     0.2576806 α      in ANC's #1, #6, #3, ...

........................................................................
.............................. CYCLE   35 ..............................
........................................................................
------------------------------------------------------------
  cycle        total energy    energy error   density error
------------------------------------------------------------
      1     -104.5888099995  -1.0620730E+02   1.1676293E-03
      2     -104.5888110675  -1.0679114E-06   6.8907366E-04
      3     -104.5887940743   1.6993133E-05   2.9505057E-04
      4     -104.5888128001  -1.8725785E-05   5.3713711E-05
      5     -104.5888128740  -7.3893673E-08   2.9882534E-05
      6     -104.5888130214  -1.4744890E-07   9.4138574E-06
------------------------------------------------------------

 total:                                   0.220 sec
 * total energy  :  -104.5888130 Eh     change       -0.1275841E-03 Eh
   gradient norm :     0.0034003 Eh/α   predicted    -0.9987518E-04 ( -21.72%)
   displ. norm   :     0.3795727 α      lambda       -0.1083787E-03
   maximum displ.:     0.2258224 α      in ANC's #1, #6, #3, ...

........................................................................
.............................. CYCLE   36 ..............................
........................................................................
------------------------------------------------------------
  cycle        total energy    energy error   density error
------------------------------------------------------------
      1     -104.5888905391  -1.0620716E+02   9.6018012E-04
      2     -104.5888915078  -9.6874325E-07   5.6633540E-04
      3     -104.5888809795   1.0528319E-05   2.3705324E-04
      4     -104.5888924537  -1.1474234E-05   4.9590948E-05
      5     -104.5888926217  -1.6801627E-07   2.3296871E-05
      6     -104.5888926948  -7.3059567E-08   8.7436057E-06
------------------------------------------------------------

 total:                                   0.202 sec
 * total energy  :  -104.5888927 Eh     change       -0.7967335E-04 Eh
   gradient norm :     0.0024146 Eh/α   predicted    -0.6200073E-04 ( -22.18%)
   displ. norm   :     0.2599158 α      lambda       -0.6813776E-04
   maximum displ.:     0.1582625 α      in ANC's #1, #6, #3, ...

........................................................................
.............................. CYCLE   37 ..............................
........................................................................
------------------------------------------------------------
  cycle        total energy    energy error   density error
------------------------------------------------------------
      1     -104.5889395615  -1.0620866E+02   7.2723041E-04
      2     -104.5889399593  -3.9780308E-07   4.2872354E-04
      3     -104.5889326226   7.3366241E-06   1.9020754E-04
      4     -104.5889406357  -8.0131057E-06   3.6149246E-05
      5     -104.5889407020  -6.6221659E-08   1.6479551E-05
------------------------------------------------------------

 total:                                   0.195 sec
 * total energy  :  -104.5889407 Eh     change       -0.4800716E-04 Eh
   gradient norm :     0.0021169 Eh/α   predicted    -0.3637396E-04 ( -24.23%)
   displ. norm   :     0.2376098 α      lambda       -0.4840190E-04
   maximum displ.:     0.1504945 α      in ANC's #1, #6, #3, ...

........................................................................
.............................. CYCLE   38 ..............................
........................................................................
------------------------------------------------------------
  cycle        total energy    energy error   density error
------------------------------------------------------------
      1     -104.5889759328  -1.0620925E+02   6.0441925E-04
      2     -104.5889766267  -6.9387286E-07   3.5950678E-04
      3     -104.5889701494   6.4773111E-06   1.7748448E-04
      4     -104.5889775747  -7.4252615E-06   2.6735644E-05
      5     -104.5889776409  -6.6211456E-08   1.4918437E-05
------------------------------------------------------------

 total:                                   0.171 sec
 * total energy  :  -104.5889776 Eh     change       -0.3693893E-04 Eh
   gradient norm :     0.0015815 Eh/α   predicted    -0.2556776E-04 ( -30.78%)
   displ. norm   :     0.2641980 α      lambda       -0.4055632E-04
   maximum displ.:     0.1701677 α      in ANC's #1, #3, #6, ...

........................................................................
.............................. CYCLE   39 ..............................
........................................................................
------------------------------------------------------------
  cycle        total energy    energy error   density error
------------------------------------------------------------
      1     -104.5890207017  -1.0621085E+02   7.1015643E-04
      2     -104.5890214335  -7.3182571E-07   4.2337629E-04
      3     -104.5890160487   5.3847713E-06   1.8861019E-04
      4     -104.5890220900  -6.0413005E-06   3.5931105E-05
      5     -104.5890222329  -1.4284149E-07   1.5195459E-05
------------------------------------------------------------

 total:                                   0.181 sec
 * total energy  :  -104.5890222 Eh     change       -0.4459200E-04 Eh
   gradient norm :     0.0020570 Eh/α   predicted    -0.2091127E-04 ( -53.11%)
   displ. norm   :     0.1705415 α      lambda       -0.3720897E-04
   maximum displ.:     0.1093433 α      in ANC's #1, #3, #11, ...

........................................................................
.............................. CYCLE   40 ..............................
........................................................................
------------------------------------------------------------
  cycle        total energy    energy error   density error
------------------------------------------------------------
      1     -104.5890538960  -1.0621057E+02   4.6312633E-04
      2     -104.5890540735  -1.7747404E-07   2.7713550E-04
      3     -104.5890488486   5.2248810E-06   1.5994591E-04
      4     -104.5890546367  -5.7881632E-06   2.1577856E-05
      5     -104.5890546910  -5.4284570E-08   1.1426445E-05
------------------------------------------------------------

 total:                                   0.243 sec
 * total energy  :  -104.5890547 Eh     change       -0.3245814E-04 Eh
   gradient norm :     0.0019925 Eh/α   predicted    -0.1914993E-04 ( -41.00%)
   displ. norm   :     0.3947532 α      lambda       -0.6790624E-04
   maximum displ.:     0.2449360 α      in ANC's #1, #11, #3, ...

........................................................................
.............................. CYCLE   41 ..............................
........................................................................
------------------------------------------------------------
  cycle        total energy    energy error   density error
------------------------------------------------------------
      1     -104.5891263048  -1.0621111E+02   1.1026899E-03
      2     -104.5891270282  -7.2348675E-07   6.5870516E-04
      3     -104.5891189848   8.0434306E-06   1.9512880E-04
      4     -104.5891278593  -8.8744730E-06   3.5312882E-05
      5     -104.5891278825  -2.3180775E-08   2.1617663E-05
      6     -104.5891279525  -7.0041850E-08   7.5747533E-06
------------------------------------------------------------

 total:                                   0.264 sec
 * total energy  :  -104.5891280 Eh     change       -0.7326148E-04 Eh
   gradient norm :     0.0028590 Eh/α   predicted    -0.3630720E-04 ( -50.44%)
   displ. norm   :     0.2573612 α      lambda       -0.5644302E-04
   maximum displ.:     0.1585379 α      in ANC's #1, #11, #3, ...

........................................................................
.............................. CYCLE   42 ..............................
........................................................................
------------------------------------------------------------
  cycle        total energy    energy error   density error
------------------------------------------------------------
      1     -104.5891752361  -1.0621015E+02   7.1896621E-04
      2     -104.5891755923  -3.5620658E-07   4.3131668E-04
      3     -104.5891712112   4.3810161E-06   1.4603210E-04
      4     -104.5891759994  -4.7881183E-06   2.7199241E-05
      5     -104.5891760417  -4.2335671E-08   1.4260366E-05
------------------------------------------------------------

 total:                                   0.251 sec
 * total energy  :  -104.5891760 Eh     change       -0.4808920E-04 Eh
   gradient norm :     0.0029788 Eh/α   predicted    -0.3009417E-04 ( -37.42%)
   displ. norm   :     0.4390668 α      lambda       -0.1073150E-03
   maximum displ.:     0.2620548 α      in ANC's #1, #11, #2, ...
 * RMSD in coord.:     0.7249728 α      energy gain  -0.4846707E-02 Eh

generating ANC from exact Hessian ...
Using Lindh-Hessian (1995)
 Shifting diagonal of input Hessian by    9.8518062175914529E-003
 Lowest  eigenvalues of input Hessian
    0.000000    0.000000    0.000000    0.000000    0.000000    0.000000
    0.010000    0.010118    0.010192    0.010314    0.010413    0.010530
    0.010964    0.011145    0.011366    0.011567    0.011610    0.012644
 Highest eigenvalues
    1.994971    2.029371    2.052236    2.110842    2.201963    2.208725


........................................................................
.............................. CYCLE   43 ..............................
........................................................................
------------------------------------------------------------
  cycle        total energy    energy error   density error
------------------------------------------------------------
      1     -104.5892592370  -1.0620945E+02   1.2243591E-03
      2     -104.5892604911  -1.2540371E-06   7.3751894E-04
      3     -104.5892402389   2.0252127E-05   3.2539005E-04
      4     -104.5892626002  -2.2361248E-05   4.4448510E-05
      5     -104.5892627172  -1.1700457E-07   2.8430298E-05
      6     -104.5892627876  -7.0369680E-08   1.1122980E-05
------------------------------------------------------------

 total:                                   0.230 sec
 * total energy  :  -104.5892628 Eh     change       -0.8674586E-04 Eh
   gradient norm :     0.0035035 Eh/α   predicted     0.0000000E+00 (-100.00%)
   displ. norm   :     0.0429455 α      lambda       -0.4660504E-04
   maximum displ.:     0.0181506 α      in ANC's #11, #12, #2, ...

........................................................................
.............................. CYCLE   44 ..............................
........................................................................
------------------------------------------------------------
  cycle        total energy    energy error   density error
------------------------------------------------------------
      1     -104.5893003498  -1.0620995E+02   2.3593155E-04
      2     -104.5893004153  -6.5476968E-08   1.4454591E-04
      3     -104.5892987915   1.6237393E-06   9.5086054E-05
      4     -104.5893006351  -1.8435652E-06   1.1315704E-05
      5     -104.5893006508  -1.5679916E-08   6.4851705E-06
------------------------------------------------------------

 total:                                   0.227 sec
 * total energy  :  -104.5893007 Eh     change       -0.3786320E-04 Eh
   gradient norm :     0.0015939 Eh/α   predicted    -0.2335251E-04 ( -38.32%)
   displ. norm   :     0.1969457 α      lambda       -0.8257930E-04
   maximum displ.:     0.0967486 α      in ANC's #11, #2, #12, ...

........................................................................
.............................. CYCLE   45 ..............................
........................................................................
------------------------------------------------------------
  cycle        total energy    energy error   density error
------------------------------------------------------------
      1     -104.5893663856  -1.0621065E+02   9.3996429E-04
      2     -104.5893671252  -7.3960003E-07   5.6511078E-04
      3     -104.5893558044   1.1320870E-05   2.3690526E-04
      4     -104.5893681788  -1.2374469E-05   3.3656922E-05
      5     -104.5893682540  -7.5146971E-08   1.9635034E-05
------------------------------------------------------------

 total:                                   0.185 sec
 * total energy  :  -104.5893683 Eh     change       -0.6760321E-04 Eh
   gradient norm :     0.0035713 Eh/α   predicted    -0.4200289E-04 ( -37.87%)
   displ. norm   :     0.0935911 α      lambda       -0.3919019E-04
   maximum displ.:     0.0564630 α      in ANC's #11, #2, #6, ...

........................................................................
.............................. CYCLE   46 ..............................
........................................................................
------------------------------------------------------------
  cycle        total energy    energy error   density error
------------------------------------------------------------
      1     -104.5894048328  -1.0621051E+02   3.7853737E-04
      2     -104.5894049395  -1.0669179E-07   2.3331939E-04
      3     -104.5894007017   4.2378296E-06   1.5429931E-04
      4     -104.5894055539  -4.8522563E-06   1.9224690E-05
      5     -104.5894056143  -6.0334429E-08   7.3684607E-06
------------------------------------------------------------

 total:                                   0.182 sec
 * total energy  :  -104.5894056 Eh     change       -0.3736027E-04 Eh
   gradient norm :     0.0030577 Eh/α   predicted    -0.2002666E-04 ( -46.40%)
   displ. norm   :     0.2681673 α      lambda       -0.1184602E-03
   maximum displ.:     0.1561836 α      in ANC's #11, #6, #2, ...

........................................................................
.............................. CYCLE   47 ..............................
........................................................................
------------------------------------------------------------
  cycle        total energy    energy error   density error
------------------------------------------------------------
      1     -104.5894981355  -1.0620961E+02   1.0060375E-03
      2     -104.5894987727  -6.3723704E-07   6.1102187E-04
      3     -104.5894894477   9.3250377E-06   2.0848257E-04
      4     -104.5894997129  -1.0265276E-05   2.9174479E-05
      5     -104.5894997033   9.5930091E-09   1.9138113E-05
------------------------------------------------------------

 total:                                   0.200 sec
 * total energy  :  -104.5894997 Eh     change       -0.9408909E-04 Eh
   gradient norm :     0.0023124 Eh/α   predicted    -0.6350085E-04 ( -32.51%)
   displ. norm   :     0.2756243 α      lambda       -0.8610126E-04
   maximum displ.:     0.1621888 α      in ANC's #11, #6, #2, ...

........................................................................
.............................. CYCLE   48 ..............................
........................................................................
------------------------------------------------------------
  cycle        total energy    energy error   density error
------------------------------------------------------------
      1     -104.5895563902  -1.0620863E+02   9.6090945E-04
      2     -104.5895571005  -7.1027723E-07   5.8633591E-04
      3     -104.5895415471   1.5553414E-05   2.6558904E-04
      4     -104.5895584853  -1.6938279E-05   3.9796714E-05
      5     -104.5895586380  -1.5269427E-07   2.0260727E-05
      6     -104.5895586690  -3.0999104E-08   6.9304636E-06
------------------------------------------------------------

 total:                                   0.265 sec
 * total energy  :  -104.5895587 Eh     change       -0.5896568E-04 Eh
   gradient norm :     0.0051538 Eh/α   predicted    -0.4632535E-04 ( -21.44%)
   displ. norm   :     0.1597895 α      lambda       -0.6080136E-04
   maximum displ.:     0.0950147 α      in ANC's #11, #6, #2, ...

........................................................................
.............................. CYCLE   49 ..............................
........................................................................
------------------------------------------------------------
  cycle        total energy    energy error   density error
------------------------------------------------------------
      1     -104.5896107357  -1.0620884E+02   4.9017741E-04
      2     -104.5896109687  -2.3293148E-07   2.9758565E-04
      3     -104.5896101626   8.0612034E-07   7.3115961E-05
      4     -104.5896110796  -9.1707435E-07   1.7601811E-05
------------------------------------------------------------

 total:                                   0.204 sec
 * total energy  :  -104.5896111 Eh     change       -0.5241060E-04 Eh
   gradient norm :     0.0053675 Eh/α   predicted    -0.3117900E-04 ( -40.51%)
   displ. norm   :     0.3357372 α      lambda       -0.1581030E-03
   maximum displ.:     0.2003990 α      in ANC's #11, #6, #2, ...

........................................................................
.............................. CYCLE   50 ..............................
........................................................................
------------------------------------------------------------
  cycle        total energy    energy error   density error
------------------------------------------------------------
      1     -104.5897275439  -1.0620968E+02   1.0376681E-03
      2     -104.5897284656  -9.2172546E-07   6.3168964E-04
      3     -104.5897129676   1.5498012E-05   3.0456498E-04
      4     -104.5897299844  -1.7016793E-05   4.2545088E-05
      5     -104.5897301987  -2.1429315E-07   2.1481939E-05
      6     -104.5897302318  -3.3104428E-08   8.1663603E-06
------------------------------------------------------------

 total:                                   0.267 sec
 * total energy  :  -104.5897302 Eh     change       -0.1191521E-03 Eh
   gradient norm :     0.0044935 Eh/α   predicted    -0.8796256E-04 ( -26.18%)
   displ. norm   :     0.3777138 α      lambda       -0.1279660E-03
   maximum displ.:     0.2276297 α      in ANC's #11, #6, #2, ...

........................................................................
.............................. CYCLE   51 ..............................
........................................................................
------------------------------------------------------------
  cycle        total energy    energy error   density error
------------------------------------------------------------
      1     -104.5898201446  -1.0620936E+02   1.2407358E-03
      2     -104.5898218081  -1.6634753E-06   7.5351470E-04
      3     -104.5898146871   7.1210476E-06   2.1242933E-04
      4     -104.5898227332  -8.0460800E-06   4.3245424E-05
      5     -104.5898229073  -1.7414409E-07   2.4734741E-05
      6     -104.5898229564  -4.9051408E-08   9.4520188E-06
------------------------------------------------------------

 total:                                   0.267 sec
 * total energy  :  -104.5898230 Eh     change       -0.9272458E-04 Eh
   gradient norm :     0.0052550 Eh/α   predicted    -0.7311552E-04 ( -21.15%)
   displ. norm   :     0.2709382 α      lambda       -0.1483010E-03
   maximum displ.:     0.1515106 α      in ANC's #11, #6, #2, ...

........................................................................
.............................. CYCLE   52 ..............................
........................................................................
------------------------------------------------------------
  cycle        total energy    energy error   density error
------------------------------------------------------------
      1     -104.5898974186  -1.0621153E+02   9.3355483E-04
      2     -104.5898992923  -1.8736801E-06   5.6346987E-04
      3     -104.5898926642   6.6280312E-06   2.2143807E-04
      4     -104.5898999861  -7.3218720E-06   4.9287192E-05
      5     -104.5899002822  -2.9610953E-07   2.4494249E-05
      6     -104.5899003502  -6.8025869E-08   9.1698340E-06
------------------------------------------------------------

 total:                                   0.287 sec
 * total energy  :  -104.5899004 Eh     change       -0.7739388E-04 Eh
   gradient norm :     0.0036233 Eh/α   predicted    -0.7959676E-04 (   2.85%)
   displ. norm   :     0.3675670 α      lambda       -0.1063026E-03
   maximum displ.:     0.2228023 α      in ANC's #11, #6, #2, ...

........................................................................
.............................. CYCLE   53 ..............................
........................................................................
------------------------------------------------------------
  cycle        total energy    energy error   density error
------------------------------------------------------------
      1     -104.5899326647  -1.0620985E+02   1.2784249E-03
      2     -104.5899348808  -2.2161102E-06   7.7759506E-04
      3     -104.5899265593   8.3215254E-06   2.1690990E-04
      4     -104.5899360886  -9.5292764E-06   4.6754617E-05
      5     -104.5899362825  -1.9387572E-07   2.7699627E-05
      6     -104.5899363548  -7.2345159E-08   9.6717438E-06
------------------------------------------------------------

 total:                                   0.307 sec
 * total energy  :  -104.5899364 Eh     change       -0.3600457E-04 Eh
   gradient norm :     0.0049767 Eh/α   predicted    -0.6034371E-04 (  67.60%)
   displ. norm   :     0.1195870 α      lambda       -0.8079554E-04
   maximum displ.:     0.0667480 α      in ANC's #11, #6, #2, ...

........................................................................
.............................. CYCLE   54 ..............................
........................................................................
------------------------------------------------------------
  cycle        total energy    energy error   density error
------------------------------------------------------------
      1     -104.5899870843  -1.0621100E+02   3.9105565E-04
      2     -104.5899874010  -3.1664284E-07   2.3576295E-04
      3     -104.5899856706   1.7303534E-06   1.0847719E-04
      4     -104.5899876811  -2.0104585E-06   1.8523961E-05
      5     -104.5899877075  -2.6413332E-08   1.0990978E-05
------------------------------------------------------------

 total:                                   0.212 sec
 * total energy  :  -104.5899877 Eh     change       -0.5135269E-04 Eh
   gradient norm :     0.0014064 Eh/α   predicted    -0.4098382E-04 ( -20.19%)
   displ. norm   :     0.1524528 α      lambda       -0.4286990E-04
   maximum displ.:     0.0622648 α      in ANC's #11, #3, #28, ...

........................................................................
.............................. CYCLE   55 ..............................
........................................................................
------------------------------------------------------------
  cycle        total energy    energy error   density error
------------------------------------------------------------
      1     -104.5900216930  -1.0621152E+02   5.6775785E-04
      2     -104.5900221129  -4.1983817E-07   3.4408364E-04
      3     -104.5900144759   7.6369717E-06   2.0142193E-04
      4     -104.5900229075  -8.4316032E-06   2.7187853E-05
      5     -104.5900229642  -5.6650791E-08   1.3973313E-05
------------------------------------------------------------

 total:                                   0.234 sec
 * total energy  :  -104.5900230 Eh     change       -0.3525667E-04 Eh
   gradient norm :     0.0019961 Eh/α   predicted    -0.2168397E-04 ( -38.50%)
   displ. norm   :     0.1084243 α      lambda       -0.1755363E-04
   maximum displ.:     0.0583868 α      in ANC's #11, #3, #7, ...

........................................................................
.............................. CYCLE   56 ..............................
........................................................................
------------------------------------------------------------
  cycle        total energy    energy error   density error
------------------------------------------------------------
      1     -104.5900429815  -1.0621115E+02   3.4026955E-04
      2     -104.5900431882  -2.0662587E-07   2.0396434E-04
      3     -104.5900417859   1.4022097E-06   9.2878188E-05
      4     -104.5900433367  -1.5507113E-06   2.0581308E-05
      5     -104.5900433832  -4.6555670E-08   9.3631614E-06
------------------------------------------------------------

 total:                                   0.201 sec
 * total energy  :  -104.5900434 Eh     change       -0.2041904E-04 Eh
   gradient norm :     0.0014335 Eh/α   predicted    -0.8826576E-05 ( -56.77%)
   displ. norm   :     0.1360406 α      lambda       -0.2271160E-04
   maximum displ.:     0.0614766 α      in ANC's #7, #3, #28, ...

........................................................................
.............................. CYCLE   57 ..............................
........................................................................
------------------------------------------------------------
  cycle        total energy    energy error   density error
------------------------------------------------------------
      1     -104.5900642692  -1.0621043E+02   4.4371695E-04
      2     -104.5900645708  -3.0160027E-07   2.6384292E-04
      3     -104.5900618664   2.7044130E-06   1.3154477E-04
      4     -104.5900648775  -3.0111391E-06   2.2845957E-05
      5     -104.5900649025  -2.4983294E-08   1.5323834E-05
------------------------------------------------------------

 total:                                   0.196 sec
 * total energy  :  -104.5900649 Eh     change       -0.2151930E-04 Eh
   gradient norm :     0.0009205 Eh/α   predicted    -0.1145280E-04 ( -46.78%)
   displ. norm   :     0.0729020 α      lambda       -0.7996843E-05
   maximum displ.:     0.0349099 α      in ANC's #7, #3, #18, ...

........................................................................
.............................. CYCLE   58 ..............................
........................................................................
------------------------------------------------------------
  cycle        total energy    energy error   density error
------------------------------------------------------------
      1     -104.5900732055  -1.0621038E+02   2.4308977E-04
      2     -104.5900731701   3.5342836E-08   1.5180537E-04
      3     -104.5900716041   1.5660201E-06   1.2000013E-04
      4     -104.5900738742  -2.2700740E-06   1.7231244E-05
      5     -104.5900739227  -4.8464003E-08   5.0934550E-06
------------------------------------------------------------

 total:                                   0.204 sec
 * total energy  :  -104.5900739 Eh     change       -0.9020148E-05 Eh
   gradient norm :     0.0008555 Eh/α   predicted    -0.4008069E-05 ( -55.57%)
   displ. norm   :     0.0907300 α      lambda       -0.8900319E-05
   maximum displ.:     0.0426544 α      in ANC's #7, #3, #6, ...

........................................................................
.............................. CYCLE   59 ..............................
........................................................................
------------------------------------------------------------
  cycle        total energy    energy error   density error
------------------------------------------------------------
      1     -104.5900827047  -1.0621059E+02   2.4213950E-04
      2     -104.5900827409  -3.6203531E-08   1.4434054E-04
      3     -104.5900820980   6.4285059E-07   4.9874999E-05
      4     -104.5900828087  -7.1066243E-07   7.0348987E-06
[...]
    28   6 C       66   1 H                                       1.0879918
    28   6 C       67   1 H                                       1.0859596
    27   6 C       68   1 H                                       1.0878059
    27   6 C       69   1 H                                       1.0877890
    27   6 C       70   1 H                                       1.0882048
    43   6 C       71   1 H                                       1.0941282
    43   6 C       72   1 H                                       1.0927761
    43   6 C       73   1 H                                       1.0922886
    42   6 C       74   1 H                                       1.0889924
    42   6 C       75   1 H                                       1.0955919
    42   6 C       76   1 H                                       1.0944284
    77   6 C       78   6 C                                       1.3870796
    78   6 C       79   6 C                                       1.4104683
    79   6 C       80   6 C                                       1.4359216
    80   6 C       81   6 C                                       1.4086909
    77   6 C       82   6 C                                       1.4011317
    81   6 C       82   6 C                                       1.3760970
    79   6 C       83   6 C                                       1.4295416
    83   6 C       84   6 C                                       1.4033661
    84   6 C       85   6 C                                       1.4223849
    80   6 C       86   7 N                                       1.3360783
    85   6 C       86   7 N                                       1.3339164
    83   6 C       87   6 C                                       1.4285730
    87   6 C       88   6 C                                       1.4290291
    88   6 C       89   7 N                                       1.3378451
    84   6 C       90   6 C                                       1.4207794
    89   7 N       90   6 C                                       1.3316146
    90   6 C       91   6 C                                       1.4129676
    91   6 C       92   6 C                                       1.3855619
    85   6 C       93   6 C                                       1.4070486
    92   6 C       93   6 C                                       1.3921484
    87   6 C       94   6 C                                       1.4168183
    94   6 C       95   6 C                                       1.3803500
    95   6 C       96   6 C                                       1.4050470
    88   6 C       97   6 C                                       1.4104091
    96   6 C       97   6 C                                       1.3725756
    94   6 C       98   8 O                                       1.3603087
    78   6 C       99   8 O                                       1.3624032
   101   6 C      103   6 C                                       1.5313988
   101   6 C      104   6 C                                       1.5352033
   101   6 C      105   6 C                                       1.5347981
   102   6 C      106   6 C                                       1.5350005
   102   6 C      107   6 C                                       1.5348345
   102   6 C      108   6 C                                       1.5306773
   100   6 C      109   6 C                                       1.5386482 (max)
   100   6 C      110   6 C                                       1.5306534
   100   6 C      111   6 C                                       1.5335775
    81   6 C      112   1 H                                       1.0762678
    77   6 C      113   1 H                                       1.0776495
    93   6 C      114   1 H                                       1.0777563
    91   6 C      115   1 H                                       1.0762256
    97   6 C      116   1 H                                       1.0773332
    95   6 C      117   1 H                                       1.0753761 (min)
    98   8 O      118   6 C                                       1.4024807
    99   8 O      119   6 C                                       1.4115593
Note: The following floating-point exceptions are signalling: IEEE_UNDERFLOW_FLAG
normal termination of xtb
   111   6 C      120   1 H                                       1.0864225
   111   6 C      121   1 H                                       1.0880291
   111   6 C      122   1 H                                       1.0866820
   110   6 C      123   1 H                                       1.0873693
   110   6 C      124   1 H                                       1.0856751
   110   6 C      125   1 H                                       1.0884731
   109   6 C      126   1 H                                       1.0882661
   109   6 C      127   1 H                                       1.0881538
   109   6 C      128   1 H                                       1.0874050
   106   6 C      129   1 H                                       1.0863948
   106   6 C      130   1 H                                       1.0884109
   106   6 C      131   1 H                                       1.0879890
   108   6 C      132   1 H                                       1.0874094
   108   6 C      133   1 H                                       1.0872754
   108   6 C      134   1 H                                       1.0882587
   107   6 C      135   1 H                                       1.0862276
   107   6 C      136   1 H                                       1.0880176
   107   6 C      137   1 H                                       1.0880004
   105   6 C      138   1 H                                       1.0881191
   105   6 C      139   1 H                                       1.0859834
   105   6 C      140   1 H                                       1.0880317
   104   6 C      141   1 H                                       1.0881679
   104   6 C      142   1 H                                       1.0880009
   104   6 C      143   1 H                                       1.0858219
   103   6 C      144   1 H                                       1.0879066
   103   6 C      145   1 H                                       1.0877979
   103   6 C      146   1 H                                       1.0881812
   119   6 C      147   1 H                                       1.0912724
   119   6 C      148   1 H                                       1.0935702
   119   6 C      149   1 H                                       1.0911925
   118   6 C      150   1 H                                       1.0890676
   118   6 C      151   1 H                                       1.0955939
   118   6 C      152   1 H                                       1.0947949

 * 4 distinct bonds (by element types)

   Z      Z             #   av. dist./Å        max./Å        min./Å
   1 H    6 C          78     1.0866659     1.0955939     1.0753761
   6 C    6 C          60     1.4444107     1.5386482     1.3718478
   6 C    7 N           8     1.3351312     1.3382666     1.3316146
   6 C    8 O           8     1.3853283     1.4115593     1.3594791


optimized geometry written to: xtbopt.mol


           -------------------------------------------------
          | TOTAL ENERGY             -209.203386322543 Eh   |
          | GRADIENT NORM               0.000156571857 Eh/α |
           -------------------------------------------------

------------------------------------------------------------------------
 * finished run on 2025/03/04 at 11:15:17.406     
------------------------------------------------------------------------
 total:
 * wall-time:     0 d,  0 h,  0 min, 41.011 sec
 *  cpu-time:     0 d,  0 h,  2 min, 22.328 sec
 * ratio c/w:     3.470 speedup
 SCF:
 * wall-time:     0 d,  0 h,  0 min,  2.849 sec
 *  cpu-time:     0 d,  0 h,  0 min, 10.785 sec
 * ratio c/w:     3.785 speedup
 ANC optimizer:
 * wall-time:     0 d,  0 h,  0 min, 38.153 sec
 *  cpu-time:     0 d,  0 h,  2 min, 11.537 sec
 * ratio c/w:     3.448 speedup

      -----------------------------------------------------------      
     |                   =====================                   |     
     |                           x T B                           |     
     |                   =====================                   |     
     |                         S. Grimme                         |     
     |          Mulliken Center for Theoretical Chemistry        |     
     |                    University of Bonn                     |     
      -----------------------------------------------------------      

   * xtb version 6.7.1 (edcfbbe) compiled by 'runner@Mac-1732539442253.local' on 2024-11-25

   xtb is free software: you can redistribute it and/or modify it under
   the terms of the GNU Lesser General Public License as published by
   the Free Software Foundation, either version 3 of the License, or
   (at your option) any later version.
   
   xtb is distributed in the hope that it will be useful,
   but WITHOUT ANY WARRANTY; without even the implied warranty of
   MERCHANTABILITY or FITNESS FOR A PARTICULAR PURPOSE.  See the
   GNU Lesser General Public License for more details.
   
   Cite this work as:
   * C. Bannwarth, E. Caldeweyher, S. Ehlert, A. Hansen, P. Pracht,
     J. Seibert, S. Spicher, S. Grimme, WIREs Comput. Mol. Sci., 2020, 11,
     e01493. DOI: 10.1002/wcms.1493
   
   for GFN2-xTB:
   * C. Bannwarth, S. Ehlert and S. Grimme., J. Chem. Theory Comput., 2019,
     15, 1652-1671. DOI: 10.1021/acs.jctc.8b01176
   for GFN1-xTB:
   * S. Grimme, C. Bannwarth, P. Shushkov, J. Chem. Theory Comput., 2017,
     13, 1989-2009. DOI: 10.1021/acs.jctc.7b00118
   for GFN0-xTB:
   * P. Pracht, E. Caldeweyher, S. Ehlert, S. Grimme, ChemRxiv, 2019, preprint.
     DOI: 10.26434/chemrxiv.8326202.v1
   for GFN-FF:
   * S. Spicher and S. Grimme, Angew. Chem. Int. Ed., 2020, 59, 15665-15673.
     DOI: 10.1002/anie.202004239
   
   for ALPB and GBSA implicit solvation:
   * S. Ehlert, M. Stahn, S. Spicher, S. Grimme, J. Chem. Theory Comput.,
     2021, 17, 4250-4261. DOI: 10.1021/acs.jctc.1c00471
   
   for ddCOSMO and CPCM-X implicit solvation:
   * M. Stahn, S. Ehlert, S. Grimme, J. Phys. Chem. A,
     2023, XX, XXXX-XXXX. DOI: 10.1021/acs.jpca.3c04382
   
   for DFT-D4:
   * E. Caldeweyher, C. Bannwarth and S. Grimme, J. Chem. Phys., 2017,
     147, 034112. DOI: 10.1063/1.4993215
   * E. Caldeweyher, S. Ehlert, A. Hansen, H. Neugebauer, S. Spicher,
     C. Bannwarth and S. Grimme, J. Chem. Phys., 2019, 150, 154122.
     DOI: 10.1063/1.5090222
   * E. Caldeweyher, J.-M. Mewes, S. Ehlert and S. Grimme, Phys. Chem. Chem. Phys.
     2020, 22, 8499-8512. DOI: 10.1039/D0CP00502A
   
   for sTDA-xTB:
   * S. Grimme and C. Bannwarth, J. Chem. Phys., 2016, 145, 054103.
     DOI: 10.1063/1.4959605
   
   in the mass-spec context:
   * V. Asgeirsson, C. Bauer and S. Grimme, Chem. Sci., 2017, 8, 4879.
     DOI: 10.1039/c7sc00601b
   * J. Koopman and S. Grimme, ACS Omega 2019, 4, 12, 15120-15133.
     DOI: 10.1021/acsomega.9b02011
   
   for metadynamics refer to:
   * S. Grimme, J. Chem. Theory Comput., 2019, 155, 2847-2862
     DOI: 10.1021/acs.jctc.9b00143
   
   for SPH calculations refer to:
   * S. Spicher and S. Grimme, J. Chem. Theory Comput., 2021, 17, 1701-1714
     DOI: 10.1021/acs.jctc.0c01306
   
   for ONIOM refer to:
   * C. Plett, A. Katbashev, S. Ehlert, S. Grimme, M. Bursch,
     Phys. Chem. Chem. Phys., 2023, 25, 17860-17868. DOI: 10.1039/D3CP02178E
   
   for DIPRO refer to:
   * J. Kohn, N. Gildemeister, S. Grimme, D. Fazzi, A. Hansen,
     J. Chem. Phys., 2023, just accepted.
   
   for PTB refer to:
   * S. Grimme, M. Mueller, A. Hansen, J. Chem. Phys., 2023, 158, 124111.
     DOI: 10.1063/5.0137838
   
   with help from (in alphabetical order)
   P. Atkinson, C. Bannwarth, F. Bohle, G. Brandenburg, E. Caldeweyher
   M. Checinski, S. Dohm, S. Ehlert, S. Ehrlich, I. Gerasimov, C. Hölzer
   A. Katbashev, J. Kohn, J. Koopman, C. Lavigne, S. Lehtola, F. März, M. Müller,
   F. Musil, H. Neugebauer, J. Pisarek, C. Plett, P. Pracht, F. Pultar,
   J. Seibert, P. Shushkov, S. Spicher, M. Stahn, M. Steiner, T. Strunk,
   J. Stückrath, T. Rose, and J. Unsleber
   
 * started run on 2025/03/04 at 11:15:17.439     
   ID    Z sym.   atoms
    1    6 C      1-9, 11, 12, 14-21, 24-35, 42, 43, 77-85, 87, 88, 90-97,
                  100-111, 118, 119
    2    7 N      10, 13, 86, 89
    3    8 O      22, 23, 98, 99
    4    1 H      36-41, 44-76, 112-117, 120-152

           -------------------------------------------------
          |                Calculation Setup                |
           -------------------------------------------------

          program call               : xtb opt_dimer.mol --dipro 0.3 --chrg 0 --uhf 2 --spinpol --tblite
          coordinate file            : opt_dimer.mol
          omp threads                :                     8


molecular fragmentation (1/2 indicates fragments):
111111111111111111111111111111111111111111111111111111111111111111111111
111122222222222222222222222222222222222222222222222222222222222222222222
22222222
# atoms in fragment 1/2:    76    76
 fragment masses (1/2) :      495.68      495.68
CMA distance (Bohr)    :  12.662
constraining FC (au)   :  0.0500
Wavefunction read from restart file
           -------------------------------------------------
          |                    D I P R O                    |
           -------------------------------------------------
Calculation for dimer 
--------------------- 
  
charge of dimer :   0.
unpaired e- of dimer :  2
repulsion energy          3.2404119580498E+00 Eh
dispersion energy         1.1716209440707E-02 Eh
number of electrons       3.8600000000000E+02 e
integral cutoff           1.7347787504999E+01 bohr

------------------------------------------------------------
  cycle        total energy    energy error   density error
------------------------------------------------------------
      1     -208.7424323921  -2.1199456E+02   1.2492792E-01
      2     -209.1011643281  -3.5873194E-01   6.2259180E-02
      3     -209.0544476527   4.6716675E-02   3.7334324E-02
      4     -209.1564499837  -1.0200233E-01   1.6306846E-02
      5     -209.1960454536  -3.9595470E-02   5.4603446E-03
      6     -209.1971555240  -1.1100704E-03   3.2606549E-03
      7     -209.1990312302  -1.8757062E-03   1.4403349E-03
      8     -209.1992552384  -2.2400820E-04   7.1871242E-04
      9     -209.1993216208  -6.6382374E-05   3.2065608E-04
     10     -209.1993382318  -1.6611021E-05   1.4275784E-04
     11     -209.1993413872  -3.1554375E-06   5.3506608E-05
     12     -209.1993417023  -3.1503092E-07   2.8806259E-05
     13     -209.1993417760  -7.3697890E-08   1.4209514E-05
------------------------------------------------------------

electronic energy        -2.1245146994346E+02 Eh
total energy             -2.0919934177597E+02 Eh

 total:                                   0.987 sec
 - repulsion                              0.000 sec (  0%)
 - dispersion                             0.006 sec (  0%)
 - coulomb                                0.002 sec (  0%)
 - hamiltonian                            0.007 sec (  0%)
 - scc                                    0.972 sec ( 98%)

Found 2 fragments!
Fragment 1:  1-76
Fragment 2:  77-152

[Info] Fragment spin read from .UHFfrag
Calculation for fragment 1
 ------------------------------
   
charge of fragment :   0.
unpaired e- of fragment :  1
------------------------------------------------------------
  cycle        total energy    energy error   density error
------------------------------------------------------------
      1     -104.3566157292  -1.0597853E+02   1.2607342E-01
      2     -104.5387308271  -1.8211510E-01   6.2985857E-02
      3     -104.5182787433   2.0452084E-02   3.7479085E-02
      4     -104.5681995818  -4.9920838E-02   1.6095738E-02
      5     -104.5860789540  -1.7879372E-02   4.7966435E-03
      6     -104.5865068532  -4.2789916E-04   2.2727759E-03
      7     -104.5867402178  -2.3336459E-04   1.2474394E-03
      8     -104.5868232452  -8.3027442E-05   6.0241124E-04
      9     -104.5868489025  -2.5657329E-05   2.0806490E-04
     10     -104.5868512108  -2.3082184E-06   8.7078661E-05
     11     -104.5868516931  -4.8234980E-07   3.6167860E-05
     12     -104.5868517331  -4.0003343E-08   1.8132758E-05
------------------------------------------------------------

 total:                                   0.254 sec
Calculation for fragment 2
 ------------------------------
   
charge of fragment :   0.
unpaired e- of fragment :  1
------------------------------------------------------------
  cycle        total energy    energy error   density error
------------------------------------------------------------
      1     -104.3544780767  -1.0597457E+02   1.2403724E-01
      2     -104.5357410531  -1.8126298E-01   6.1743092E-02
      3     -104.5166515165   1.9089537E-02   3.6874416E-02
      4     -104.5670327048  -5.0381188E-02   1.5877664E-02
      5     -104.5847697726  -1.7737068E-02   4.7609521E-03
      6     -104.5852163220  -4.4654941E-04   2.0703646E-03
      7     -104.5853835857  -1.6726374E-04   1.0584045E-03
      8     -104.5854226948  -3.9109088E-05   5.5686527E-04
      9     -104.5854462974  -2.3602618E-05   2.3219830E-04
     10     -104.5854500005  -3.7031081E-06   9.1515772E-05
     11     -104.5854506035  -6.0292382E-07   3.6553240E-05
     12     -104.5854506468  -4.3332278E-08   1.8735920E-05
------------------------------------------------------------

 total:                                   0.333 sec
   
   ::::::::::::::::::::::::::::::::::::::::::::::
   ::     D I P R O      C O U P L I N G S     ::
   ::::::::::::::::::::::::::::::::::::::::::::::
   
energy threshhold for near-degenerate orbitals near HOMO and LUMO considered for DIPRO:  0.300 eV
no. of orbitals within energy window of frag 1         2
no. of orbitals within energy window of frag 2         2
   
  Fragment 1 SOMO   Fragment 2 SOMO 
--------------------------------------
E_mon(orb) frag1 frag2              -9.488    -9.358 eV
J(AB):               -0.003 eV
S(AB):             0.00012915 Eh
|J(AB,eff)|:            0.002 eV
   
  Fragment 1 SOMO   Fragment 2 LUMO 
--------------------------------------
E_mon(orb) frag1 frag2              -9.488    -8.956 eV
J(AB):               -0.014 eV
S(AB):             0.00067738 Eh
|J(AB,eff)|:            0.008 eV
   
  Fragment 1 LUMO   Fragment 2 SOMO 
--------------------------------------
E_mon(orb) frag1 frag2              -9.070    -9.358 eV
J(AB):                0.006 eV
S(AB):            -0.00026752 Eh
|J(AB,eff)|:            0.003 eV
   
  Fragment 1 LUMO   Fragment 2 LUMO 
--------------------------------------
E_mon(orb) frag1 frag2              -9.070    -8.956 eV
J(AB):                0.011 eV
S(AB):            -0.00053700 Eh
|J(AB,eff)|:            0.007 eV
   
..............................................................................
:  total |J(AB,eff)| for hole transport (occ. MOs) :               0.002 eV  :
:  total |J(AB,eff)| for charge transport (unocc. MOs) :           0.007 eV  :
:  total |J(AB,eff)| for charge transfer (CT) :                    0.009 eV  :
..............................................................................
  
 Please remember, DIPRO is not available for restart!
   
normal termination of dipro
----------------------------------------------------------
 * finished run on 2025/03/04 at 11:15:19.028     
----------------------------------------------------------
 dipro:
 * wall-time:     0 d,  0 h,  0 min,  1.585 sec
 *  cpu-time:     0 d,  0 h,  0 min,  5.087 sec
 * ratio c/w:     3.210 speedup
Reorganization energy (electron): 0.08073149720717286 eV
Reorganization energy (hole): 0.19923356092823696 eV
Electron Transfer integral J: 0.007 eV
Hole Transfer integral J: 0.002 eV
