116
 energy: -213.869519792614 gnorm: 0.153517504753 xtb: 6.7.1 (edcfbbe)
C           -2.11470000000000        2.47690000000000       -0.56800000000000
C           -1.89790000000000        1.26240000000000        0.07140000000000
C           -1.04500000000000        1.24030000000000        1.22870000000000
C           -0.19990000000000        2.36150000000000        1.46860000000000
C           -0.43400000000000        3.54440000000000        0.75080000000000
C           -1.40440000000000        3.61790000000000       -0.21900000000000
C           -0.93380000000000        0.12490000000000        2.11680000000000
C            0.22730000000000        0.05100000000000        2.89030000000000
C            1.09490000000000        1.17660000000000        2.96100000000000
N            0.84240000000000        2.33770000000000        2.32780000000000
C           -1.88490000000000       -0.92690000000000        2.30150000000000
C           -1.42630000000000       -2.14130000000000        2.88630000000000
N           -0.24020000000000       -2.25200000000000        3.52870000000000
C            0.52490000000000       -1.14430000000000        3.60660000000000
C            1.68280000000000       -1.16880000000000        4.38960000000000
C            2.52500000000000       -0.07550000000000        4.46360000000000
C            2.23420000000000        1.07800000000000        3.76150000000000
C           -3.28720000000000       -0.76370000000000        2.04560000000000
C           -4.09980000000000       -1.88830000000000        2.09230000000000
C           -3.60600000000000       -3.12300000000000        2.49480000000000
C           -2.30120000000000       -3.23750000000000        2.91210000000000
O           -3.76950000000000        0.52480000000000        1.86140000000000
O           -2.47710000000000        0.11320000000000       -0.50100000000000
C           -1.64360000000000        4.89510000000000       -0.92540000000000
C           -4.51310000000000       -4.28780000000000        2.56930000000000
H            0.13920000000000        4.42460000000000        0.98290000000000
H           -2.80580000000000        2.51650000000000       -1.38950000000000
H            2.89820000000000        1.91950000000000        3.83720000000000
H            1.92490000000000       -2.05270000000000        4.95100000000000
H           -1.95760000000000       -4.17560000000000        3.30790000000000
H           -5.14500000000000       -1.82190000000000        1.85640000000000
O           -0.84630000000000        5.80610000000000       -0.81320000000000
O           -2.78050000000000        4.96870000000000       -1.67730000000000
C           -2.84700000000000        6.21510000000000       -2.28970000000000
C            3.73700000000000       -0.12680000000000        5.30550000000000
O            3.87020000000000       -1.01540000000000        6.12420000000000
O            4.64580000000000        0.87220000000000        5.10040000000000
C            5.67460000000000        0.76070000000000        6.02380000000000
O           -5.66310000000000       -4.18340000000000        2.18820000000000
O           -3.98180000000000       -5.43410000000000        3.08690000000000
C           -4.95480000000000       -6.42670000000000        3.10800000000000
C           -5.12900000000000        0.61980000000000        1.52380000000000
C           -1.55030000000000       -0.90120000000000       -0.82980000000000
H           -4.52550000000000       -7.33980000000000        3.52590000000000
H           -5.29960000000000       -6.60320000000000        2.08610000000000
H           -5.79160000000000       -6.08610000000000        3.72300000000000
H            6.47570000000000        1.45300000000000        5.75630000000000
H            6.04040000000000       -0.26970000000000        6.03130000000000
H            5.26400000000000        1.01760000000000        7.00150000000000
H           -2.09810000000000       -1.75370000000000       -1.23260000000000
H           -0.99480000000000       -1.21320000000000        0.05330000000000
H           -0.85910000000000       -0.52220000000000       -1.58340000000000
H           -5.36240000000000        1.67480000000000        1.37410000000000
H           -5.74230000000000        0.22950000000000        2.33710000000000
H           -5.31160000000000        0.07520000000000        0.59600000000000
H           -3.75870000000000        6.27290000000000       -2.88800000000000
H           -1.96820000000000        6.34070000000000       -2.92740000000000
H           -2.85010000000000        6.98830000000000       -1.51720000000000
C           -2.96910000000000        1.64380000000000        4.73360000000000
C           -2.56260000000000        0.72730000000000        5.69650000000000
C           -1.38900000000000        1.02260000000000        6.47520000000000
C           -0.51290000000000        2.04880000000000        6.01630000000000
C           -0.96840000000000        2.91490000000000        5.01040000000000
C           -2.19500000000000        2.75050000000000        4.41200000000000
C           -1.00340000000000        0.30770000000000        7.65380000000000
C            0.34500000000000        0.38810000000000        8.02210000000000
C            1.18730000000000        1.36680000000000        7.42220000000000
N            0.74440000000000        2.22590000000000        6.48360000000000
C           -1.84910000000000       -0.45620000000000        8.52130000000000
C           -1.22740000000000       -1.39660000000000        9.39130000000000
N            0.10480000000000       -1.43720000000000        9.61380000000000
C            0.85520000000000       -0.48740000000000        9.02240000000000
C            2.19280000000000       -0.34820000000000        9.40150000000000
C            3.00310000000000        0.63160000000000        8.86120000000000
C            2.50560000000000        1.47420000000000        7.88190000000000
C           -3.26780000000000       -0.25560000000000        8.62020000000000
C           -4.01550000000000       -1.17880000000000        9.34090000000000
C           -3.41090000000000       -2.20520000000000       10.05560000000000
C           -2.04060000000000       -2.28660000000000       10.10680000000000
O           -3.81550000000000        0.89340000000000        8.06380000000000
O           -3.29820000000000       -0.46790000000000        5.79670000000000
C           -2.64980000000000        3.72820000000000        3.39840000000000
C           -4.23860000000000       -3.16420000000000       10.81860000000000
H           -0.34180000000000        3.72940000000000        4.69390000000000
H           -3.86750000000000        1.45320000000000        4.17610000000000
H            3.14130000000000        2.23510000000000        7.46840000000000
H            2.59780000000000       -0.99640000000000       10.15770000000000
H           -1.58150000000000       -3.03450000000000       10.72730000000000
H           -5.08460000000000       -1.09890000000000        9.39530000000000
O           -1.91280000000000        4.64260000000000        3.08350000000000
O           -3.89890000000000        3.55050000000000        2.87600000000000
C           -4.16140000000000        4.55680000000000        1.95230000000000
C            4.38210000000000        0.78060000000000        9.38060000000000
O            4.76450000000000        0.04780000000000       10.27280000000000
O            5.15560000000000        1.76010000000000        8.82750000000000
C            6.38620000000000        1.79640000000000        9.47570000000000
O           -5.45060000000000       -3.07200000000000       10.79270000000000
O           -3.56020000000000       -4.11830000000000       11.52190000000000
C           -4.46570000000000       -4.93760000000000       12.18630000000000
C           -5.21980000000000        0.93330000000000        8.03130000000000
C           -2.50780000000000       -1.63160000000000        5.74930000000000
H           -3.91610000000000       -5.70430000000000       12.73660000000000
H           -5.12750000000000       -5.40130000000000       11.45070000000000
H           -5.05400000000000       -4.32630000000000       12.87510000000000
H            7.00830000000000        2.57240000000000        9.02490000000000
H            6.86790000000000        0.82020000000000        9.37910000000000
H            6.21810000000000        2.01540000000000       10.53300000000000
H           -3.12070000000000       -2.45360000000000        5.37770000000000
H           -2.13210000000000       -1.88220000000000        6.73930000000000
H           -1.67760000000000       -1.44850000000000        5.06890000000000
H           -5.52120000000000        1.83010000000000        7.48850000000000
H           -5.61380000000000        0.98110000000000        9.04750000000000
H           -5.59540000000000        0.05460000000000        7.50420000000000
H           -5.19200000000000        4.46750000000000        1.60330000000000
H           -3.47040000000000        4.45190000000000        1.11330000000000
H           -4.00700000000000        5.52600000000000        2.43370000000000
116
 energy: -213.898584697152 gnorm: 0.068286724312 xtb: 6.7.1 (edcfbbe)
C           -2.11612830141379        2.46082604530356       -0.57409761386526
C           -1.89585500189728        1.25985136196447        0.07019694608441
C           -1.05419453956970        1.23363055963315        1.21743759815078
C           -0.20814965176417        2.35812545426404        1.46716084586257
C           -0.43613367466046        3.55076474508984        0.75777458918176
C           -1.41213876187606        3.61454184961395       -0.20832212813860
C           -0.94251515393584        0.12903602023129        2.11439031074997
C            0.22159420535903        0.05561249692006        2.88706978087857
C            1.09072179036411        1.18264511813772        2.95425286064676
N            0.82248447085402        2.32969588984230        2.32514858146768
C           -1.89717104354738       -0.91605147784078        2.30376193208751
C           -1.42421400560838       -2.13480864452272        2.87941285816846
N           -0.23189147040225       -2.24260805058109        3.49396585864125
C            0.52304673977338       -1.14202317827112        3.60071599650026
C            1.68319649542173       -1.17324724688941        4.39036150970603
C            2.52352880451226       -0.07132576779773        4.45542831635611
C            2.23817592770325        1.09150599298669        3.75556805797410
C           -3.28781321843334       -0.76732026101013        2.04186375576931
C           -4.09899158980763       -1.88439723486615        2.09463990878474
C           -3.59099651676370       -3.12450675474059        2.49498614703988
C           -2.28577861347851       -3.24629883047501        2.91005691922249
O           -3.76035417165432        0.50209011577724        1.84994892474892
O           -2.47457293041247        0.12144664727638       -0.48108359855484
C           -1.62466301442855        4.89826955787045       -0.91150945398501
C           -4.52147114154503       -4.27123028789019        2.55679132500294
H            0.15359835748008        4.42440786739776        0.98248171285909
H           -2.80888612529203        2.49898910185421       -1.39857385292306
H            2.89767707753387        1.93815397008339        3.83266578551312
H            1.92548131727377       -2.06268522575866        4.94936094315138
H           -1.93554652048613       -4.18019850535665        3.31414125582346
H           -5.14762336662310       -1.82711528503547        1.85724965078487
O           -0.84249075960340        5.81315437775472       -0.81632464532056
O           -2.74955479004136        4.96900000127480       -1.65941008289111
C           -2.85025932225484        6.22052783357952       -2.29455006881445
C            3.72339054208506       -0.14285756431979        5.31282035327006
O            3.87006463910439       -1.01621374616929        6.13627465839885
O            4.62420287153446        0.83787484624344        5.09955505518579
C            5.68837112349640        0.75785236603972        6.01427271656903
O           -5.66919230878528       -4.18258003159193        2.18516467969999
O           -3.99968989984899       -5.40603101052638        3.07090666987541
C           -4.95930872884414       -6.43370647543187        3.10823541109906
C           -5.12444895373396        0.61670920088048        1.52127170427589
C           -1.54838446477438       -0.89142787309518       -0.82591670971370
H           -4.50428954865333       -7.32919535928605        3.52867454568047
H           -5.31782333703819       -6.63077638114408        2.09430330596744
H           -5.80654717561356       -6.11566423694117        3.72205560032349
H            6.46874276856705        1.45878903027665        5.72365414204505
H            6.07579272551882       -0.26404742715352        6.04018003063934
H            5.30520913567736        1.01473776426447        7.00029342017461
H           -2.11525204054214       -1.73142730659035       -1.22587939144286
H           -0.98106993952715       -1.23015609041615        0.04256800957627
H           -0.85599393509029       -0.52582498305037       -1.58993894031676
H           -5.33362855189803        1.67647260469310        1.37919589506820
H           -5.75225012140196        0.23469826813336        2.33127532705738
H           -5.33108172719155        0.07994994141986        0.59228975122206
H           -3.76653724330777        6.24951235719895       -2.88211090889078
H           -1.98067969582930        6.36808928412394       -2.94091315448419
H           -2.85825451602620        7.01051255249492       -1.53859400843678
C           -2.97188792459773        1.62932469100734        4.73480284759446
C           -2.56388093017592        0.72831699477238        5.69819738753763
C           -1.39864641214586        1.00877707616267        6.46783595067532
C           -0.51720927598782        2.03973555782848        6.01327639096212
C           -0.96425855059767        2.91849276422288        5.00992813214460
C           -2.19573702133552        2.74862069468944        4.41981907695589
C           -1.01092037649881        0.31020313912374        7.65264926319898
C            0.33939875946461        0.38945793904609        8.01988119046146
C            1.18448008951791        1.36259548928064        7.41031846088317
N            0.72832567275843        2.21573372245700        6.48714542980469
C           -1.85866149140136       -0.44342582377384        8.52320059979441
C           -1.22624334594107       -1.38703563040229        9.39199981290434
N            0.09829246534875       -1.42610850279244        9.60037710570039
C            0.84998478453464       -0.48266650493541        9.02524125861482
C            2.19369194587631       -0.35332779370542        9.40492238813031
C            2.99827548243695        0.63534657662109        8.85813061370491
C            2.50847089623869        1.48165200750622        7.87072920667247
C           -3.26866396202663       -0.25749193713571        8.62259394832600
C           -4.01311651069230       -1.17286245511867        9.34307389549729
C           -3.39614904377745       -2.20743701043161       10.05432286258616
C           -2.02609675516406       -2.29373306046296       10.10996539401331
O           -3.80837938107536        0.87108062260763        8.06443648099261
O           -3.29417243475505       -0.44796947544979        5.80332585529412
C           -2.62741464902659        3.73343111378824        3.40448954399192
C           -4.25046403129820       -3.15122934442838       10.80565144547282
H           -0.32884732986381        3.72926580817177        4.69206009452053
H           -3.87655606596521        1.44199027859222        4.18248884100341
H            3.13856785215555        2.25176802416263        7.45833825598226
H            2.59764076025345       -1.00619181229702       10.16148878044957
H           -1.55867271287425       -3.03643158738666       10.73260634682781
H           -5.08602764160348       -1.10269683065344        9.39846036377957
O           -1.91185166349841        4.65057762928949        3.07550220537898
O           -3.86531298820751        3.55639585806367        2.89127070794183
C           -4.16601078420476        4.55883852899990        1.94981481684870
C            4.36844183575752        0.76537974333890        9.40392693171689
O            4.76798998917902        0.04394934344711       10.28590650926044
O            5.12944122987842        1.74772943881632        8.86863943078393
C            6.39347969673122        1.80174261023987        9.48510157769724
O           -5.45750149132082       -3.07139170544456       10.79196958711793
O           -3.58264498657507       -4.09553325412231       11.50320299769884
C           -4.46965369950380       -4.94322810712321       12.19051977170234
C           -5.21527689911686        0.93168416400126        8.03074977580953
C           -2.51080265274422       -1.62290250620957        5.76737864588047
H           -3.89520110715862       -5.69535632247609       12.72924449888646
H           -5.14175056039982       -5.42199907685811       11.47318313065243
H           -5.06811242615095       -4.35206363819638       12.88901720242163
H            6.98833208251224        2.58121436829265        9.01123190322726
H            6.89108646235014        0.83294738519302        9.38712098058673
H            6.25716422465712        2.01899407971235       10.54714258785937
H           -3.13440356317419       -2.43048044170198        5.38421928290012
H           -2.13776811071731       -1.89925772689670        6.75415263778927
H           -1.66650978888906       -1.47276781085589        5.09903119699901
H           -5.49073263565756        1.83427008522438        7.48584441422237
H           -5.62537928367782        0.98645989677945        9.04297371062138
H           -5.61311806488309        0.06087319319438        7.50383491485200
H           -5.19791644485196        4.44567131619552        1.62023576518145
H           -3.48728988169307        4.47081331566971        1.09790431974650
H           -4.02177446907606        5.54100691648838        2.40902418223299
116
 energy: -213.910289519464 gnorm: 0.017334771408 xtb: 6.7.1 (edcfbbe)
C           -2.11461598000670        2.45439704420916       -0.58153944916544
C           -1.89358323940358        1.26092290481847        0.06816661443443
C           -1.06316346316895        1.23117480113576        1.21168073439447
C           -0.21647389099235        2.35831371103421        1.47046775727668
C           -0.43723962592693        3.55637030418376        0.76230600270873
C           -1.41437105430702        3.61473616605298       -0.20276210655450
C           -0.94861436854978        0.13296373672452        2.11456272153073
C            0.21788343591224        0.05976978142517        2.88622645338175
C            1.08829941260425        1.18793313164471        2.95254292004773
N            0.80572939332931        2.32333971699947        2.32540620446003
C           -1.90793639543736       -0.90754762469807        2.30524177128746
C           -1.42313953339442       -2.13106617323415        2.87003849808379
N           -0.22564680298830       -2.23572863185995        3.46018971798620
C            0.52392468938765       -1.14243038879450        3.59080647127940
C            1.68470716923289       -1.17626924417079        4.38704128914664
C            2.52018850982406       -0.06725253109075        4.45172508682148
C            2.24194229260652        1.10172272193670        3.75531189447843
C           -3.29192691490615       -0.77021693315968        2.04004455323300
C           -4.09756630217367       -1.88758836952904        2.09467072134915
C           -3.57804556448000       -3.12988344699639        2.49407940125644
C           -2.27317112339513       -3.25650049592087        2.90512513594198
O           -3.75719758854699        0.48129266560440        1.83705094710918
O           -2.46816219672985        0.12811376327660       -0.46449489161648
C           -1.60075122894983        4.90771203452393       -0.90106194590024
C           -4.53632585543596       -4.25713105506203        2.54544006067361
H            0.16480660963092        4.42244199795957        0.98402346005565
H           -2.80210823617892        2.48976850546411       -1.41226517492094
H            2.89592151707782        1.95326214611636        3.83148914166506
H            1.92500714260113       -2.06793334240879        4.94489275558891
H           -1.91029951655759       -4.18449747139796        3.31273607566082
H           -5.14794407279988       -1.84422149611275        1.85820141187826
O           -0.82598932046568        5.82548538128076       -0.81740058624520
O           -2.71826759570137        4.97757078578619       -1.64399171668872
C           -2.85650402704976        6.22886031183453       -2.30217925385066
C            3.71119012838268       -0.16142889203896        5.32662839939162
O            3.86132188033013       -1.02385140829505        6.15764470438492
O            4.60736871496654        0.80304670329555        5.10763798549478
C            5.71000590697840        0.75533203591604        6.00287908493354
O           -5.68234869352866       -4.17484775281271        2.17485196367247
O           -4.02468296767437       -5.38502708654274        3.05404019102352
C           -4.96606141994812       -6.44609401244821        3.10850678140053
C           -5.12310767916341        0.62043220945969        1.51643719928797
C           -1.54916672718475       -0.88583258059723       -0.82670350284670
H           -4.47037107241833       -7.31595842665784        3.53329267692361
H           -5.33209874153166       -6.66315452305286        2.10135641308497
H           -5.81825726230019       -6.14819575026971        3.72567694280762
H            6.45959341380360        1.46838026458770        5.66703472918724
H            6.11776124317731       -0.25813306100826        6.03521697780766
H            5.35681747711135        1.01896720146566        6.99827692333087
H           -2.13794373302117       -1.71102662999732       -1.22538246795035
H           -0.96854398766922       -1.24698843553959        0.02668146341977
H           -0.85926843725489       -0.52551777360690       -1.59787625826357
H           -5.29970889895336        1.68662376513267        1.38359797865192
H           -5.76063827535772        0.24672636508566        2.32487034388352
H           -5.35338492966228        0.09105788458053        0.58723167588549
H           -3.78163448547483        6.21235876251891       -2.87372454743912
H           -1.99838043618509        6.39191716167608       -2.96003571735363
H           -2.87366393943667        7.03193703330498       -1.56030935327011
C           -2.97227842542856        1.62314135162371        4.73222377692603
C           -2.56032182164575        0.72648959538272        5.69360971243005
C           -1.40398532810614        0.99759342831189        6.46186927442561
C           -0.51773715697867        2.03240007963132        6.01131048159911
C           -0.95803318066624        2.91883951248350        5.00746773648989
C           -2.19296689100248        2.74921527113765        4.42337008812284
C           -1.01452234639815        0.31182733762184        7.65312607387188
C            0.33734116282117        0.39001065716661        8.01926845104491
C            1.18552799556933        1.35859006585488        7.40341693506725
N            0.71882969194558        2.20360039834577        6.48877409156624
C           -1.86714068625424       -0.43211811566885        8.52707928360298
C           -1.22776438089214       -1.38033750483274        9.39408751459063
N            0.08990111571644       -1.41589411359222        9.59161288795799
C            0.84611445341600       -0.48027302307771        9.02780312877404
C            2.19354899895567       -0.35598389276240        9.40847717296417
C            2.99344207232541        0.63929856647980        8.85961147290627
C            2.51404011285196        1.48619844887887        7.86565083739551
C           -3.27224708339975       -0.25721765615375        8.62808152022039
C           -4.01118503026368       -1.17282957772725        9.34720520843735
C           -3.38475268601549       -2.21187289271081       10.05620802307516
C           -2.01656715603437       -2.30087556771480       10.11564347307560
O           -3.80589480539161        0.85161495095314        8.06568766843668
O           -3.28496289750250       -0.43503744079455        5.80321482506938
C           -2.60326866881744        3.74637835757726        3.40964229983238
C           -4.26908801880246       -3.13971082567260       10.79618107821220
H           -0.31488788142098        3.72486352050857        4.69157107288254
H           -3.88109214646435        1.43862928201077        4.18433205814018
H            3.13730174806517        2.26242369781949        7.45143855821559
H            2.59564085231740       -1.01260555528412       10.16352086692211
H           -1.53641700118626       -3.03790142100613       10.73585049184428
H           -5.08539483317097       -1.11498060600023        9.40769517893956
O           -1.89857007801837        4.66364652357320        3.06767065339773
O           -3.83191822596665        3.56802675390579        2.90171361032691
C           -4.17502834308380        4.56173602591956        1.94541627394064
C            4.35643210883867        0.74908788179639        9.43402986313693
O            4.76771545264261        0.03067096076950       10.30818733950933
O            5.10798388568490        1.73497827543374        8.91382878504895
C            6.40230664244340        1.81001842280678        9.49662329112675
O           -5.47428012139909       -3.06540084376434       10.78534901915853
O           -3.61276733517765       -4.07841262522732       11.48873682191774
C           -4.47618647344598       -4.95345702243313       12.19765138059271
C           -5.21326156901704        0.93740508131860        8.02681155653771
C           -2.51749547986440       -1.62401706558780        5.79002437827860
H           -3.86206964447238       -5.68426945714236       12.71903480356349
H           -5.15307712470048       -5.44814288695863       11.49558902372220
H           -5.07825179805121       -4.37937779083150       12.90728963147210
H            6.95742832904988        2.59650434433804        8.98955206140603
H            6.91305998824241        0.84905416059889        9.39019915568905
H            6.30060082399796        2.02969935574646       10.56242819883040
H           -3.15731223692302       -2.41171820885826        5.39219703184313
H           -2.16616464123678       -1.91829136947915        6.78188163547604
H           -1.65052390459980       -1.50438847105920        5.14229218370088
H           -5.45446953892829        1.84714654366300        7.47850201938338
H           -5.63540590488278        1.00009948551432        9.03511684601468
H           -5.63278040424722        0.07444806274693        7.50100367353098
H           -5.21042606651320        4.40990984818746        1.64687484308457
H           -3.51123102203747        4.48347037883880        1.08077975952030
H           -4.04415044912467        5.55398984566560        2.38708165251585
116
 energy: -213.914142823171 gnorm: 0.015746981738 xtb: 6.7.1 (edcfbbe)
C           -2.10477906071908        2.46097959580640       -0.58796388214319
C           -1.89008962732709        1.26764356407693        0.06648505397773
C           -1.06632754594805        1.23604417482906        1.21435074615568
C           -0.21874057639478        2.36277254214989        1.47710873981281
C           -0.43350701643729        3.56118719713049        0.76641748685806
C           -1.40443484431605        3.62086154865361       -0.20437327133133
C           -0.95107739407227        0.13572780389368        2.11541149956357
C            0.21591687789907        0.06131916651382        2.88691826780905
C            1.08639635171429        1.18986229086895        2.95838778887763
N            0.80023692332756        2.32424999825881        2.33298536949287
C           -1.91109198334112       -0.90634089865157        2.30182090426639
C           -1.42266414097205       -2.13307056365882        2.85781628353573
N           -0.22153070944098       -2.23865203922492        3.43680918026762
C            0.52509507849782       -1.14584127038594        3.58130133106943
C            1.68375142105993       -1.17968572003459        4.38217535476430
C            2.51447157751909       -0.06753268045247        4.45792714280733
C            2.24039426374831        1.10336091178801        3.76337679517323
C           -3.29535356933499       -0.77216286104808        2.03489049710945
C           -4.09731295645775       -1.89274298636564        2.09151468013480
C           -3.57537896053372       -3.13538012464729        2.48919114568955
C           -2.26888919105177       -3.26337776999836        2.89397792372532
O           -3.75793380291416        0.47523786236224        1.82461690808014
O           -2.46616664103756        0.13496187362566       -0.46010137701115
C           -1.58098846300355        4.91876589939372       -0.90037397491305
C           -4.54635164426551       -4.25528164862433        2.53286838933071
H            0.17365488897417        4.42265190535439        0.98975178299425
H           -2.78440874397088        2.49290181799077       -1.42543299518218
H            2.88999465857816        1.95853866613129        3.84007230041436
H            1.92355286829777       -2.07316793666901        4.93668345674766
H           -1.89392031500811       -4.18820853180926        3.29829672353696
H           -5.14799710423037       -1.85707645869814        1.85617004048486
O           -0.80583428475543        5.83682731921106       -0.81899213312597