116
 energy: -22.861510044714 gnorm: 0.402333423506 xtb: 6.6.1 (8d0f1dd)
C           -0.16112571104009        1.73107938315210       -1.31425010349033
C           -0.56604353351892        1.86947904084273        0.02141966122560
C            0.32284508551090        1.49188669945581        1.05784434473800
C            1.34726435150138        0.56403799774885        0.74299431759070
C            1.71443743034225        0.43463974808567       -0.65784240038165
C            1.03020211061532        1.09167727051709       -1.65313036914274
C           -0.02639194479587        1.79916941842593        2.44093120175179
C            0.50582049555779        0.74405884825841        3.33090360939656
C            1.60567745231236       -0.07676686316648        2.91466289874537
N            2.00151698667163       -0.17089598144879        1.68146139533126
C           -0.77299652420166        2.89411647583133        3.00375232022627
C           -1.05188978227471        2.82634370910987        4.36213666700066
N           -0.75399531866490        1.74286376447314        5.13037698767637
C            0.12607079458216        0.72105689264863        4.68953235743516
C            0.78380834190876       -0.08455870116039        5.57689717774779
C            1.85712401517110       -0.95089581676247        5.24142971923081
C            2.29123610431428       -0.85221091233131        3.92691683328440
C           -0.86368680773999        4.14867441396260        2.35530437865664
C           -1.52346319869447        5.24168224319486        2.91490173634698
C           -1.93773392436888        5.08506379332525        4.22211250084863
C           -1.49488201804335        3.97325210577111        4.99816324455093
O           -0.07076203553855        4.36885261635450        1.20016770491776
O           -1.72455609848199        2.45727641205744        0.42809595348744
C            1.43307937325478        0.95977904452587       -3.03041708675704
C           -2.81482140377559        6.27450894944611        4.77224406158160
H            2.52880781513268       -0.15908305728537       -1.01553235185040
H           -0.79467536498014        2.30865332227485       -1.96839395909555
H            3.09346698556034       -1.42936029642015        3.45284256587854
H            0.38680630621296        0.00379057631638        6.57795618534277
H           -1.39621366861729        4.13441320972673        6.05537006787323
H           -1.77814125879923        6.18515196163038        2.44172844473561
O            2.01586070181303       -0.01966710926268       -3.39229081783568
O            1.08987677474535        1.98203516078222       -3.86252095458728
C            1.43151581521103        1.58967096006508       -5.11968926031664
C            2.62884578177318       -1.80159499554854        6.09154368260984
O            3.32526652800004       -2.69497235223969        5.58744856844539
O            2.55362392752330       -1.25285949670210        7.36612680834148
C            3.33695318809878       -2.04256796471169        8.30235442285351
O           -3.05251445442124        6.25968027618314        5.92121912363776
O           -3.18387386339142        7.14749654276314        3.84925386080043
C           -4.04203135033465        8.12266670918233        4.41395954821780
C           -0.58988538283505        5.33992240081497        0.34007822392279
C           -2.76497754904276        2.43928052122113       -0.56488769439629
H           -4.82610686849536        7.39727105030081        4.77808059510897
H           -4.27525189609506        8.92363117131248        3.82783859899748
H           -3.63951716499817        8.60322587963334        5.32790582127498
H            4.15384090654068       -1.42795295803862        8.49461045800644
H            3.66724433082643       -3.03600264566479        8.04394458325804
H            2.83349663427435       -2.08419933316237        9.27697786671994
H           -3.07213893413941        1.35193351454758       -0.64872265798089
H           -2.46579884232684        2.76493848511742       -1.60217807487923
H           -3.58880221136854        3.09331471523933       -0.18827620561297
H           -1.63147622332469        5.06183029998556        0.25385868917556
H           -0.02582017940050        5.32201382475028       -0.57521257239650
H           -0.49077698304761        6.36835881005870        0.85782431078885
H            2.41534010273012        1.19778980239667       -5.04769518935421
H            1.39898889178174        2.36830290722603       -5.87889607638912
H            0.79014958822957        0.76105026186301       -5.55128626550858
C            0.10481733994016       -3.20291395726327        1.88276881319031
C           -0.56660770766847       -2.91518940239621        3.15548926874812
C           -1.81888270840139       -2.14038118572805        3.14346032904643
C           -2.26954674278122       -1.77641557433115        1.85607633727675
C           -1.65660597693340       -2.15855570174753        0.65547633716455
C           -0.48495636500925       -2.84955383034507        0.64632793734976
C           -2.39062064902954       -1.56103170394400        4.36202681884877
C           -3.25465377197189       -0.46206840543877        4.22048105336962
C           -3.62539799301873       -0.11446073516250        2.91332557457321
N           -3.26987083854096       -0.82093698410334        1.77964718004930
C           -2.25484255153670       -2.01066309682804        5.73285851433856
C           -2.65249078347693       -1.10079370174669        6.79507992151351
N           -3.52661471084255       -0.07089061962454        6.63072146495624
C           -3.90243696243037        0.13742736734633        5.31768594792635
C           -4.83786301605690        1.11662613785378        5.08058766586733
C           -5.28438003025783        1.32853941973438        3.77285654301096
C           -4.66946747447864        0.80586193471234        2.66743223304167
C           -1.95258674037121       -3.40762255437610        6.18138989147638
C           -1.42638606144114       -3.54002291051834        7.51721732983686
C           -1.45259424504707       -2.47490389903812        8.47607696627150
C           -2.17162450332828       -1.31298981605182        8.07652752004572
O           -2.26041143529991       -4.53434264321905        5.41466628192578
O            0.00406172254950       -3.23417227196742        4.31702020200592
C            0.19493618460627       -3.43645755040825       -0.53967281966812
C           -1.19336467664079       -2.70003688069406        9.86116491679815
H           -2.29016829519038       -1.88199617007997       -0.18772425700232
H            1.03248236883126       -3.75369282919343        1.70496900085602
H           -4.96726112544621        1.02693342323654        1.65572027849064
H           -5.61019221520241        1.38313220466922        5.81318358803139
H           -2.32773796480598       -0.57167821892232        8.81566961945047
H           -1.00170303070053       -4.42096689437673        7.92583604914875
O            0.90913808331828       -4.37544063330707       -0.34156711840639
O           -0.14811885066461       -2.77260259383263       -1.70924593953723
C            0.88809738181946       -3.09545601226279       -2.64405997322669
C           -6.39265835373809        2.33533785953133        3.47575390180392
O           -6.55865262591265        2.59580041410984        2.30680167479950
O           -7.08376183458384        2.82582539023312        4.51473965870795
C           -8.14858712710176        3.71461129532721        4.06525475856166
O           -1.50360943092665       -3.74894668598075       10.41213439403081
O           -0.70242803643209       -1.55907274691982       10.49252954752153
C           -0.72429191502088       -1.82194570933714       11.90213545834856
C           -2.97924449655132       -5.60199702504110        5.82737834983487
C            1.18992422235755       -4.10443981849757        4.23345450813480
H           -0.05980546411466       -2.62298280013638       12.05039801719630
H           -1.70261010840308       -2.16076536166028       12.15122666554191
H           -0.57621789646312       -0.97174053781646       12.64902544224255
H           -8.91475604721858        3.22141823183754        3.45787201844438
H           -7.74575900399144        4.51111369881006        3.59913182617717
H           -8.60448537553165        3.99031302393723        5.09047763552612
H            0.84758651945563       -5.09350459828331        3.99029698975543
H            1.66089284561130       -4.03855107001791        5.17526101719919
H            1.90784694080710       -3.72420606348817        3.52344764230934
H           -2.47535314409195       -6.58193837468609        6.26617673477266
H           -3.42752645074279       -5.93248663109455        4.90932700452965
H           -3.94320018221101       -5.35714656252426        6.38782767054897
H            1.88593494057445       -2.79804954134300       -2.41637341882817
H            0.46784744376044       -2.57095417285923       -3.51049328265373
H            0.82969952206829       -4.16648609588296       -2.76702249256866
116
 energy: -22.804708827999 gnorm: 0.416289655566 xtb: 6.6.1 (8d0f1dd)
C           -0.87065053794064        1.60955215863256       -1.04443550095049
C           -1.11479044730953        1.88230549660492        0.31443519087284
C           -0.07356589847254        1.49672041917852        1.21578165560171
C            0.99731191354700        0.67534204052646        0.80280032819245
C            1.13370547576088        0.41329932625136       -0.53716409890661
C            0.22631582239773        0.87898240980107       -1.43587895974887
C            0.10762439256377        1.91145907914892        2.53017147123472
C            0.87655229006052        1.17130201911400        3.48051281909338
C            1.84356541672158        0.31759435428874        2.97185184054260
N            2.01200633729318        0.25300098286592        1.58617513289280
C           -0.89855640412002        2.78527718797343        3.21778069883799
C           -1.14321074192374        2.66637963268485        4.68808623596582
N           -0.35626093316726        1.87603040876962        5.41867982595100
C            0.67885181127748        1.16638657163348        4.84034274049612
C            1.40188489028612        0.29003128766164        5.70172111866312
C            2.40260318087066       -0.50241880169695        5.22052106677699
C            2.70745593358126       -0.36029808587660        3.85734571595658
C           -1.33631329568116        4.05391968435699        2.58268419161483
C           -2.34828282870511        4.70328731769038        3.24765919300170
C           -2.73711635787204        4.57793657267930        4.59476381239783
C           -2.02341409889505        3.59456289264362        5.29206562170121
O           -0.77470743253389        4.36293274907970        1.31080543329116
O           -2.33778543205736        2.38096429821957        0.87041742792901
C            0.71148818854230        0.64468275101718       -2.87572025124704
C           -3.54643443107779        5.51862892729791        5.28870244182412
H            2.10834651476940        0.14493443343852       -0.83297802969004
H           -1.46650251794881        1.98214972903420       -1.84190241019726
H            3.69949587694709       -0.56919754904667        3.56297214387697
H            1.18195915571043        0.23623451694004        6.76418427215640
H           -2.40137660271441        3.18036332503812        6.22324321275534
H           -2.57160878060563        5.57381471367738        2.69472331808504
O            1.90029365496542        0.46557074275844       -3.16037688231924
O           -0.41387248842155        0.31253446854899       -3.69891237486263
C            0.25376158860861       -0.11390765827031       -4.85472749126507
C            3.02708809946739       -1.50491897246300        6.12020744572886
O            3.65470162218109       -2.43275500665739        5.67535255178678
O            2.84450286596077       -1.23281869447516        7.48778210659277
C            3.25696444590860       -2.08164550882116        8.42731646446395
O           -3.39814321031464        5.77088353674039        6.57530057385127
O           -4.04797471473823        6.57196633322838        4.49491108187355
C           -4.70555006839045        7.45591239804459        5.39996765737890
C            0.47971183941650        5.00889003199917        1.51541820284206
C           -2.93864723681717        3.33173649681509        0.00116496926700
H           -4.07168752160897        7.38723907446403        6.32296783905001
H           -5.75058409877332        7.12790698705760        5.63046223703845
H           -4.70770137080225        8.43494260256986        4.73575207744255
H            2.38372850854804       -2.08336124986692        9.22030776076367
H            4.13956545152835       -1.69453850452204        8.83164368453566
H            3.62253865207061       -3.07097981451578        8.11184326868138
H           -2.10005754763050        3.96159866746037       -0.32157318235024
H           -3.75555212038215        3.90119052351628        0.57749591717057
H           -3.29330611274404        2.76032896399289       -0.82223492945921
H            1.30803797975395        4.28752238299975        1.82470671279677
H            0.48197481411257        5.83669494844688        2.22406512821828
H            0.84322312829575        5.47375011807245        0.59142006178678
H            1.05601290492586        0.55894257582070       -5.17763051052258
H           -0.44983718163292       -0.31644603687862       -5.71349858356451
H            0.75573579511294       -1.01874919846811       -4.59728733639444
C            0.07749111091054       -3.38200450476892        2.01061056841636
C           -0.38406287596548       -2.78182004525465        3.16353442468285
C           -1.54821982082087       -2.04429494888696        2.95371235075611
C           -2.01263436884323       -1.65188598308800        1.67177376379635
C           -1.46698473944607       -2.30543135140503        0.59597026903576
C           -0.44982580359236       -3.21630716938824        0.71414405810382
C           -2.19931988562095       -1.41010407368153        4.04418848408003
C           -2.89954857064149       -0.23250902480444        3.72932690983789
C           -3.16635902013059        0.09505515761035        2.30976271784815
N           -2.79718469950107       -0.66722507411827        1.24555199655386
C           -2.21888670479081       -1.85123854025661        5.36990193515132
C           -2.83501863228554       -0.97289594470996        6.34175722625925
N           -3.63972623180351        0.10723347559629        6.04559661123546
C           -3.58955905630793        0.51117162064903        4.80013292907747
C           -4.64448673873770        1.40609193948603        4.43920552132151
C           -4.81717964911484        1.87164808136694        3.16755732459496
C           -4.08121294398864        1.17829280200972        2.18164930397915
C           -1.97096652487314       -3.14586932064627        5.92600795679722
C           -1.81047618074316       -3.29733375908666        7.26589085524108
C           -1.93826813673799       -2.24207512008200        8.12367589389320
C           -2.69772020835276       -1.17205222341271        7.73104772060714
O           -2.31207376233221       -4.17613450204632        4.98771013277666
O            0.22769911039549       -2.86013985211517        4.45176314488815
C            0.46251143918245       -3.43682793756070       -0.42737618119577
C           -1.61452974781272       -2.24599712743942        9.57864416317721
H           -1.76820529394444       -1.85951044254203       -0.39509948191939
H            0.88900036807706       -4.11533946892343        2.10195575937398
H           -4.57204895829752        1.25001446767799        1.26425105053696
H           -5.33012403266984        1.79263825711522        5.18547681508397
H           -2.91501111097419       -0.40287778808503        8.40720485453235
H           -1.65910945329149       -4.23493880941765        7.69827246760257
O            1.66426293051972       -3.42031717782706       -0.03203856441849
O            0.08472566331376       -3.58126822112814       -1.72954282753145
C            1.14347887730661       -4.12098841965326       -2.36219218161446
C           -5.81621484332603        2.85770342491738        2.77738736165296
O           -5.97482683161879        3.06679612595465        1.58578432154662
O           -6.53480975259283        3.45894985800902        3.76623040234680
C           -7.27022513456119        4.57415848694570        3.21673014024333
O           -1.75576794254042       -1.30305266400989       10.29065269812648
O           -1.03283564458760       -3.46704643480115        9.93221740031720
C           -0.23018885555400       -3.25687985098737       11.07260453784367
C           -2.47091802302882       -5.44351379634680        5.54644533118865
C            1.26278578658531       -3.73745795333856        4.45048648494505
H            0.37284811996609       -4.20279660676483       11.32492755602654
H           -0.92892770953120       -2.83198347743282       11.84829834316875
H            0.48628535959053       -2.47895820452917       10.91596952034484
H           -7.72785582060357        4.07114609416398        2.43103886391104
H           -6.74107217432342        5.48841434003011        3.04132491770518
H           -8.04875418335203        4.70429652987907        3.93960946493693
H            1.15392604549063       -4.85440529954989        4.51292224559609
H            1.69560366491991       -3.52364080519131        5.50717417242931
H            1.98432969659376       -3.32190465186905        3.71923630418278
H           -1.70865205370071       -5.69613492699052        6.17191484010128
H           -2.31835804601476       -6.11449506358842        4.76506704295707
H           -3.46607872133233       -5.49708702753773        6.10670816668206
H            1.85579330891648       -3.39131385228201       -2.41577681133914
H            0.90545476868644       -4.32966579759885       -3.41800162936361
H            1.63654471018837       -4.97743766312081       -1.90599608080265
116
 energy: -22.781457576495 gnorm: 0.471539414587 xtb: 6.6.1 (8d0f1dd)
C           -1.43428663089529        1.59855411236892       -0.51079410394511
C           -1.21611741186033        2.14647418001197        0.81275897444976
C           -0.13141084637314        1.74622787622450        1.61221274397414
C            0.88606042374651        0.80466163256168        1.03248505381884
C            0.49147405187908        0.20795515858839       -0.28515089527861
C           -0.59593124321538        0.56684165742060       -1.07891779426203
C            0.13928606751756        2.08644368853621        2.94832306309265
C            0.92028356930968        1.30344912626431        3.82200086815053
C            2.01352068431521        0.52804665562157        3.10973746523166
N            1.89436729117808        0.21826171963105        1.78205989817879
C           -0.51781289447907        3.18674027109904        3.56478562257352
C           -0.92246761788057        3.05249899803142        4.91658435982236
N           -0.10842893485069        2.28294784659217        5.72451035573210
C            0.82555706419653        1.44521454213290        5.21755086778055
C            1.56022574328534        0.52413842254463        5.94551029827608
C            2.36392130508759       -0.41558658529931        5.30400711993557
C            2.78595249443221       -0.29876645089424        3.98412722397606
C           -0.83228309076950        4.42313237626255        2.97148453115790
C           -1.85324737834721        5.19549173475404        3.57770472586000
C           -2.52259654638383        4.76852654353482        4.72669999442379
C           -1.96195526351360        3.80085146359344        5.44430839355214
O           -0.05915905934775        4.89476900174158        1.90858571022471
O           -2.05230535277411        3.00507800090034        1.36169885772120
C           -0.74020401671844       -0.00931904859426       -2.41302960277727
C           -3.51608286888721        5.70911529998108        5.35601232591125
H            1.22382089068838       -0.38228300146756       -0.72429700270664
H           -2.41429730066149        1.77709534503817       -0.98946276486406
H            3.66418533004473       -0.85818401704185        3.75620468775486
H            1.60828483221639        0.42540743252387        7.05358642908941
H           -2.30774876400655        3.64156415915520        6.49674701119508
H           -2.25124340923540        6.02370267636551        3.02338505329863
O           -1.72767499545050       -0.71734775496482       -2.64832062241687
O            0.34805829247954        0.21118692665194       -3.16294529164806
C            0.25563578084701       -0.62191148255174       -4.31640579307207
C            3.16819532642820       -1.37773016303536        6.19097397880406
O            3.57212765808103       -2.36771815681785        5.65942765454557
O            3.31087869863465       -1.12742533341186        7.50620602699133
C            4.39248350112108       -1.90295290489454        8.03489562353490
O           -3.96678504615995        5.35403139483003        6.41599730749962
O           -3.86246617442256        6.95498120424052        4.88705804674616
C           -4.55092240149516        7.76834326273415        5.88116903040968
C            1.12644031740490        5.64956115413269        2.30438381753036
C           -2.65555620287065        3.80038420233229        0.25670041705859
H           -3.70096485097969        8.03786109081037        6.58099964013737
H           -5.38366610904842        7.17184277243422        6.18904913952546
H           -4.76135369352208        8.81601528531216        5.47966528853716
H            4.06724493304892       -2.89825130662145        7.71303315573935
H            4.31878600364572       -1.89279421740857        9.17612479538908
H            5.49543442334765       -1.64566443795932        7.76982131316848
H           -1.98515198420245        3.98973195681816       -0.50363751721451
H           -2.83490030511168        4.75752894961014        0.78936853048272
H           -3.54504694886482        3.33954961471220       -0.14006335750528
H            0.97992098664221        6.70925880688502        2.47408234841336
H            1.82949281810607        5.46108335894888        1.40031766039812
H            1.57367085107174        5.18553823384377        3.23171168582429
H           -0.22801721551999        0.14634764254196       -5.08595323930457
H           -0.45782416620190       -1.47194460425821       -4.04015414456497
H            1.31612507755901       -0.78543667505614       -4.52001771718323
C            0.39878946481000       -3.46401880315218        1.90110137296824
C           -0.21758296303973       -2.79449547084616        2.95329265751938
C           -1.46764794515397       -2.18278096386112        2.74744281008725
C           -1.79230394617771       -1.90616079126513        1.38288535389432
C           -1.17600673623569       -2.71350819057779        0.33881325418376
C           -0.19221180000466       -3.55232343948615        0.59185391104327
C           -2.04574995728855       -1.36748511602411        3.74901171725712
C           -2.85592944017356       -0.39673810794669        3.33973778535502
C           -3.11500262797352       -0.08879296620015        2.00819452706092
N           -2.60851404163747       -0.92694291254474        1.04331342413571
C           -2.22106546531551       -1.63451044588003        5.15228412582775
C           -2.62538038229184       -0.57981657104135        6.02497747851358
N           -2.89979741752020        0.58073504187250        5.48953157241684
C           -3.33526465934478        0.63675619358327        4.26519757785892
C           -4.13215498345284        1.68802616009148        3.80246129227418
C           -4.62702662890702        1.73993578222731        2.55633356554713
C           -4.12423233157748        0.80619159539222        1.65329920814830
C           -2.06112785252139       -3.02874480688838        5.59182354838123
C           -2.08648753549927       -3.13146907970202        7.03137604308789
C           -2.50104838893889       -2.07105903698537        7.87691409833135
C           -2.65470675485995       -0.75026584436568        7.40330730065100
O           -1.81486312441613       -4.01875929600684        4.72807412241177
O            0.40685061571222       -2.56191903873174        4.13418203309082
C            0.57927883736270       -4.21559494491052       -0.56399742232995
C           -2.28745496188622       -2.28130307583406        9.36303220663925
H           -1.34663267760405       -2.40990045337639       -0.70126423515647
H            1.45768103974313       -3.83670828446167        2.06744838386844
H           -4.40087219454144        0.89538410831621        0.61218613197398
H           -4.66527695963468        2.24999815899485        4.56981146485499
H           -2.82369459765281        0.03361121230497        8.01632669444846
H           -1.85464723306575       -4.08445729176076        7.39676103652658
O            1.37535053518786       -5.11654716201209       -0.45979256281845
O            0.35024921459382       -3.61148395811496       -1.78181190461816
C            0.87458293672869       -4.34578221067675       -2.88972362925331
C           -5.81694801707965        2.52581645264585        2.19924105866156
O           -6.17024767644998        2.73324310175633        1.06738761173149
O           -6.44325977492379        2.90251193746663        3.28246728898413
C           -7.62045382398267        3.65466531294963        3.08717508520717
O           -2.10615602281630       -1.30112514555585       10.09705033920014
O           -2.36051014261255       -3.51592536324914        9.97041327894323
C           -2.05005971472678       -3.44627771612727       11.27029925465797
C           -1.16720575285213       -5.18575229859329        5.16052536232885
C            1.53002437239811       -3.41295550908638        4.35197800327559
H           -2.34328449017413       -4.21107687536008       11.96187938903017
H           -2.03583621417398       -2.46424574865298       11.57140321471541
H           -0.96963259493789       -3.67955329905353       11.14612048332438
H           -8.50536166295393        3.17394405075673        3.37111216421205
H           -7.88165641666478        3.76631165124694        1.96194844884863
H           -7.54664063999836        4.63132509633290        3.39294128697001
H            1.14998355831236       -4.45145278954395        4.06693752184412
H            1.88060861010158       -3.41145764844347        5.32517826984268
H            2.26973789606479       -2.95482462873729        3.70577079771549
H           -1.86525452600284       -6.00101215756076        5.33541219396744
H           -0.46722440274190       -4.96434843937773        5.96867947450536
H           -0.70112450917377       -5.51379981907035        4.32968970064902
H            2.01048917592001       -4.64592202888440       -2.87887079682180
H            0.54925941669301       -4.04922273591177       -3.97499005787592
H            0.43387677921408       -5.46274028922565       -2.70027954548239
116
 energy: -22.799577098847 gnorm: 0.459259120354 xtb: 6.6.1 (8d0f1dd)
C           -1.33433285900418        1.54186367494048       -0.32444714515174
C           -1.23996720837703        2.10588948776870        0.92227474910484
C           -0.25421913046041        1.67315105935822        1.85604654323481
C            0.60586315737032        0.61796177690439        1.32077473545104
C            0.47416741000653       -0.00417545787783        0.05825710563958
C           -0.49377966831983        0.58776534345732       -0.82155661817409
C           -0.07767432472366        2.01290040843089        3.21829450486140
C            0.82529781293587        1.36988049766834        4.03356389452815
C            1.55058457542421        0.30111280587005        3.44543197372669
N            1.55392457855476        0.02990949948980        2.17448830303387
C           -0.68411406092324        3.14753378256628        3.72100256430713
C           -0.88953369713866        3.10827117449598        5.13667575762084
N           -0.16025127421896        2.35430579394501        6.00652845437639
C            0.76558779686104        1.48743903350693        5.43842220460797
C            1.82029989054270        0.94731978667996        6.20350438814826
C            2.65156677106758       -0.00699634035057        5.63185800422467
C            2.55143620004369       -0.30304737901098        4.18487012807415
C           -0.90128893583063        4.43027376936699        3.02076126483194
C           -1.77567595625675        5.35188555535152        3.58935886771850
C           -2.03325949505454        5.26436401926083        5.04696544050533
C           -1.57311143219858        4.17981214802974        5.75152356265348
O           -0.29020113995511        4.86629910337596        1.88209562688536
O           -2.12574678196515        3.01893870875839        1.41388787430317
C           -0.58874465100561        0.21934789242915       -2.25370888589785
C           -2.96062597603001        6.15523130384539        5.70143380016054
H            1.05473040839162       -0.85496914596866       -0.22446435716782
H           -2.09127795818554        1.73154672989073       -1.11082168143571
H            3.02383547990164       -1.09303067079678        3.64326788211650
H            2.08226927251582        1.15299970633328        7.26441335375122
H           -1.92354185643782        4.14447953074508        6.82818366857614
H           -1.99725009058227        6.31746230453374        3.15580286402347
O           -1.68980458281486       -0.00913883784663       -2.74721185180195