      -----------------------------------------------------------      
     |                   =====================                   |     
     |                           x T B                           |     
     |                   =====================                   |     
     |                         S. Grimme                         |     
     |          Mulliken Center for Theoretical Chemistry        |     
     |                    University of Bonn                     |     
      -----------------------------------------------------------      

   * xtb version 6.6.1 (8d0f1dd) compiled by 'runner@Mac-1690902418499.local' on 2023-08-01

   xtb is free software: you can redistribute it and/or modify it under
   the terms of the GNU Lesser General Public License as published by
   the Free Software Foundation, either version 3 of the License, or
   (at your option) any later version.
   
   xtb is distributed in the hope that it will be useful,
   but WITHOUT ANY WARRANTY; without even the implied warranty of
   MERCHANTABILITY or FITNESS FOR A PARTICULAR PURPOSE.  See the
   GNU Lesser General Public License for more details.
   
   Cite this work as:
   * C. Bannwarth, E. Caldeweyher, S. Ehlert, A. Hansen, P. Pracht,
     J. Seibert, S. Spicher, S. Grimme, WIREs Comput. Mol. Sci., 2020, 11,
     e01493. DOI: 10.1002/wcms.1493
   
   for GFN2-xTB:
   * C. Bannwarth, S. Ehlert and S. Grimme., J. Chem. Theory Comput., 2019,
     15, 1652-1671. DOI: 10.1021/acs.jctc.8b01176
   for GFN1-xTB:
   * S. Grimme, C. Bannwarth, P. Shushkov, J. Chem. Theory Comput., 2017,
     13, 1989-2009. DOI: 10.1021/acs.jctc.7b00118
   for GFN0-xTB:
   * P. Pracht, E. Caldeweyher, S. Ehlert, S. Grimme, ChemRxiv, 2019, preprint.
     DOI: 10.26434/chemrxiv.8326202.v1
   for GFN-FF:
   * S. Spicher and S. Grimme, Angew. Chem. Int. Ed., 2020, 59, 15665-15673.
     DOI: 10.1002/anie.202004239
   
   for ALPB and GBSA implicit solvation:
   * S. Ehlert, M. Stahn, S. Spicher, S. Grimme, J. Chem. Theory Comput.,
     2021, 17, 4250-4261. DOI: 10.1021/acs.jctc.1c00471
   
   for DFT-D4:
   * E. Caldeweyher, C. Bannwarth and S. Grimme, J. Chem. Phys., 2017,
     147, 034112. DOI: 10.1063/1.4993215
   * E. Caldeweyher, S. Ehlert, A. Hansen, H. Neugebauer, S. Spicher,
     C. Bannwarth and S. Grimme, J. Chem. Phys., 2019, 150, 154122.
     DOI: 10.1063/1.5090222
   * E. Caldeweyher, J.-M. Mewes, S. Ehlert and S. Grimme, Phys. Chem. Chem. Phys.
     2020, 22, 8499-8512. DOI: 10.1039/D0CP00502A
   
   for sTDA-xTB:
   * S. Grimme and C. Bannwarth, J. Chem. Phys., 2016, 145, 054103.
     DOI: 10.1063/1.4959605
   
   in the mass-spec context:
   * V. Asgeirsson, C. Bauer and S. Grimme, Chem. Sci., 2017, 8, 4879.
     DOI: 10.1039/c7sc00601b
   * J. Koopman and S. Grimme, ACS Omega 2019, 4, 12, 15120-15133.
     DOI: 10.1021/acsomega.9b02011
   
   for metadynamics refer to:
   * S. Grimme, J. Chem. Theory Comput., 2019, 155, 2847-2862
     DOI: 10.1021/acs.jctc.9b00143
   
   for SPH calculations refer to:
   * S. Spicher and S. Grimme, J. Chem. Theory Comput., 2021, 17, 1701-1714
     DOI: 10.1021/acs.jctc.0c01306
   
   with help from (in alphabetical order)
   P. Atkinson, C. Bannwarth, F. Bohle, G. Brandenburg, E. Caldeweyher
   M. Checinski, S. Dohm, S. Ehlert, S. Ehrlich, I. Gerasimov, C. Hölzer
   A. Katbashev, J. Koopman, C. Lavigne, S. Lehtola, F. März, M. Müller,
   F. Musil, H. Neugebauer, J. Pisarek, C. Plett, P. Pracht, F. Pultar,
   J. Seibert, P. Shushkov, S. Spicher, M. Stahn, M. Steiner, T. Strunk,
   J. Stückrath, T. Rose, and J. Unsleber
   
 * started run on 2024/11/14 at 10:47:08.662     

           -------------------------------------------------
          |                Calculation Setup                |
           -------------------------------------------------

          program call               : xtb Nitro3.mol --opt --gfn2 --chrg -1 --uhf 1 --tight
          coordinate file            : Nitro3.mol
          omp threads                :                     8

   ID    Z sym.   atoms
    1    6 C      1-42, 45, 46, 48-51
    2    7 N      43, 52, 54, 56, 58
    3   14 Si     44
    4    8 O      47, 53, 55, 57, 59
    5    1 H      60-112
########################################################################
[WARNING] Please study the warnings concerning your input carefully
-1- prog_main_parseArguments: Unknown option '--tight' provided
########################################################################

           -------------------------------------------------
          |                 G F N 2 - x T B                 |
           -------------------------------------------------

        Reference                      10.1021/acs.jctc.8b01176
      * Hamiltonian:
        H0-scaling (s, p, d)           1.850000    2.230000    2.230000
        zeta-weighting                 0.500000
      * Dispersion:
        s8                             2.700000
        a1                             0.520000
        a2                             5.000000
        s9                             5.000000
      * Repulsion:
        kExp                           1.500000    1.000000
        rExp                           1.000000
      * Coulomb:
        alpha                          2.000000
        third order                    shell-resolved
        anisotropic                    true
        a3                             3.000000
        a5                             4.000000
        cn-shift                       1.200000
        cn-exp                         4.000000
        max-rad                        5.000000

q/qsh data taken from xtbrestart
CAMM data taken from xtbrestart

          ...................................................
          :                      SETUP                      :
          :.................................................:
          :  # basis functions                 295          :
          :  # atomic orbitals                 294          :
          :  # shells                          172          :
          :  # electrons                       305          :
          :  max. iterations                   250          :
          :  Hamiltonian                  GFN2-xTB          :
          :  restarted?                       true          :
          :  GBSA solvation                  false          :
          :  PC potential                    false          :
          :  electronic temp.          300.0000000     K    :
          :  accuracy                    1.0000000          :
          :  -> integral cutoff          0.2500000E+02      :
          :  -> integral neglect         0.1000000E-07      :
          :  -> SCF convergence          0.1000000E-05 Eh   :
          :  -> wf. convergence          0.1000000E-03 e    :
          :  Broyden damping             0.4000000          :
          ...................................................

 iter      E             dE          RMSdq      gap      omega  full diag
   1   -167.8415987 -0.167842E+03  0.243E+00    1.51       0.0  T
   2   -163.7475109  0.409409E+01  0.775E+00    1.25       1.0  T
   3   -168.1319082 -0.438440E+01  0.190E+00    0.08       1.0  T
   4   -168.0797237  0.521845E-01  0.183E+00    0.19       1.0  T
   5   -167.8232408  0.256483E+00  0.151E+00    0.50       1.0  T
   6   -168.1746671 -0.351426E+00  0.152E+00    0.42       1.0  T
   7   -168.2279319 -0.532648E-01  0.130E+00    0.82       1.0  T
   8   -168.1690028  0.589291E-01  0.133E+00    0.40       1.0  T
   9   -168.1828859 -0.138831E-01  0.126E+00    0.59       1.0  T
  10   -168.2076423 -0.247564E-01  0.106E+00    0.83       1.0  T
  11   -168.1838972  0.237451E-01  0.101E+00    0.78       1.0  T
  12   -168.2412561 -0.573590E-01  0.847E-01    0.89       1.0  T
  13   -168.2510262 -0.977004E-02  0.806E-01    0.88       1.0  T
  14   -168.2516248 -0.598664E-03  0.771E-01    0.89       1.0  T
  15   -168.2476185  0.400637E-02  0.725E-01    0.86       1.0  T
  16   -168.2405139  0.710454E-02  0.676E-01    0.82       1.0  T
  17   -168.2556511 -0.151372E-01  0.593E-01    0.83       1.0  T
  18   -168.2565232 -0.872142E-03  0.552E-01    0.81       1.0  T
  19   -168.2565598 -0.366034E-04  0.404E-01    0.73       1.0  T
  20   -168.2580759 -0.151608E-02  0.313E-01    0.60       1.0  T
  21   -168.2627444 -0.466846E-02  0.173E-01    0.33       1.0  T
  22   -168.2608151  0.192927E-02  0.195E-01    0.12       1.0  T
  23   -168.2610189 -0.203766E-03  0.186E-01    0.12       1.0  T
  24   -168.2631047 -0.208577E-02  0.814E-02    0.20       1.0  T
  25   -168.2222204  0.408842E-01  0.851E-01    0.05       1.0  T
  26   -168.2623572 -0.401368E-01  0.143E-01    0.27       1.0  T
  27   -168.2628141 -0.456913E-03  0.126E-01    0.13       1.0  T
  28   -168.2636581 -0.843937E-03  0.370E-02    0.19       1.0  T
  29   -168.2636488  0.928643E-05  0.352E-02    0.16       1.0  T
  30   -168.2636737 -0.248948E-04  0.286E-02    0.16       1.0  T
  31   -168.2636917 -0.179957E-04  0.238E-02    0.16       1.0  T
  32   -168.2637056 -0.138728E-04  0.194E-02    0.17       1.0  T
  33   -168.2637233 -0.177135E-04  0.798E-03    0.17       1.2  T
  34   -168.2637264 -0.316155E-05  0.288E-03    0.17       3.3  T
  35   -168.2637266 -0.194235E-06  0.219E-03    0.17       4.3  T
  36   -168.2637269 -0.279415E-06  0.151E-04    0.18      62.6  T
  37   -168.2637269 -0.188606E-09  0.683E-05    0.18     138.3  T

   *** convergence criteria satisfied after 37 iterations ***

         #    Occupation            Energy/Eh            Energy/eV
      -------------------------------------------------------------
         1        2.0000           -0.7295042             -19.8508
       ...           ...                  ...                  ...
       147        2.0000           -0.2541926              -6.9169
       148        2.0000           -0.2537123              -6.9039
       149        2.0000           -0.2520840              -6.8596
       150        2.0000           -0.2514329              -6.8418
       151        2.0000           -0.2483607              -6.7582
       152        1.4916           -0.1917933              -5.2190
       153        1.4624           -0.1916911              -5.2162 (HOMO)
       154        0.0460           -0.1852520              -5.0410 (LUMO)
       155                         -0.1691159              -4.6019
       156                         -0.1611633              -4.3855
       157                         -0.1583631              -4.3093
       158                         -0.1368192              -3.7230
       ...                                ...                  ...
       294                          3.2791267              89.2296
      -------------------------------------------------------------
                  HL-Gap            0.0064391 Eh            0.1752 eV
             Fermi-level           -0.1899502 Eh           -5.1688 eV

 SCC (total)                   0 d,  0 h,  0 min,  3.472 sec
 SCC setup                      ...        0 min,  0.000 sec (  0.008%)
 Dispersion                     ...        0 min,  0.001 sec (  0.031%)
 classical contributions        ...        0 min,  0.000 sec (  0.008%)
 integral evaluation            ...        0 min,  0.005 sec (  0.147%)
 iterations                     ...        0 min,  3.422 sec ( 98.556%)
 molecular gradient             ...        0 min,  0.039 sec (  1.117%)
 printout                       ...        0 min,  0.005 sec (  0.133%)

         :::::::::::::::::::::::::::::::::::::::::::::::::::::
         ::                     SUMMARY                     ::
         :::::::::::::::::::::::::::::::::::::::::::::::::::::
         :: total energy            -165.911148214323 Eh    ::
         :: gradient norm              0.938705703555 Eh/a0 ::
         :: HOMO-LUMO gap              0.175215812876 eV    ::
         ::.................................................::
         :: SCC energy              -168.263726901488 Eh    ::
         :: -> isotropic ES            0.293497922063 Eh    ::
         :: -> anisotropic ES          0.032084329410 Eh    ::
         :: -> anisotropic XC          0.050819086269 Eh    ::
         :: -> dispersion             -0.164534743499 Eh    ::
         :: repulsion energy           2.347490822389 Eh    ::
         :: add. restraining           0.000000000000 Eh    ::
         :: total charge              -0.999999952541 e     ::
         :::::::::::::::::::::::::::::::::::::::::::::::::::::

      ----------------------------------------------------------- 
     |                   =====================                   |
     |                        A N C O P T                        |
     |                   =====================                   |
     |               Approximate Normal Coordinate               |
     |                Rational Function Optimizer                |
      ----------------------------------------------------------- 

          ...................................................
          :                      SETUP                      :
          :.................................................:
          :   optimization level            normal          :
          :   max. optcycles                   336          :
          :   ANC micro-cycles                  20          :
          :   degrees of freedom               330          :
          :.................................................:
          :   RF solver                   davidson          :
          :   write xtbopt.log                true          :
          :   linear?                        false          :
          :   energy convergence         0.5000000E-05 Eh   :
          :   grad. convergence          0.1000000E-02 Eh/α :
          :   maxmium RF displ.          1.0000000          :
          :   Hlow (freq-cutoff)         0.1000000E-01      :
          :   Hmax (freq-cutoff)         5.0000000          :
          :   S6 in model hess.         20.0000000          :
          ...................................................

generating ANC from model Hessian ...
Using Lindh-Hessian (1995)
 Shifting diagonal of input Hessian by    1.0070321545050302E-002
 Lowest  eigenvalues of input Hessian
    0.010000    0.010053    0.000000    0.000000    0.000000    0.000000
    0.000000    0.000000    0.010078    0.010095    0.010128    0.010143
    0.010308    0.010435    0.010812    0.010837    0.011082    0.011214
 Highest eigenvalues
    1.960519    2.027206    2.056571    2.411695    2.466613    3.353539


........................................................................
.............................. CYCLE    1 ..............................
........................................................................

 iter      E             dE          RMSdq      gap      omega  full diag
   1   -168.2637269 -0.168264E+03  0.142E-04    0.18       0.0  T
   2   -168.2637268  0.628358E-07  0.626E-04    0.18      15.1  T
   3   -168.2637264  0.429191E-06  0.138E-03    0.18       6.9  T
   4   -168.2637269 -0.491832E-06  0.127E-04    0.18      74.3  T
     SCC iter.                  ...        0 min,  0.284 sec
     gradient                   ...        0 min,  0.037 sec
 * total energy  :  -165.9111482 Eh     change        0.2639524E-09 Eh
   gradient norm :     0.9387065 Eh/α   predicted     0.0000000E+00 (-100.00%)
   displ. norm   :     0.5922938 α      lambda       -0.4968491E+00
   maximum displ.:     0.3825212 α      in ANC's #310, #132, #143, ...

........................................................................
.............................. CYCLE    2 ..............................
........................................................................

 iter      E             dE          RMSdq      gap      omega  full diag
   1   -167.5809608 -0.167581E+03  0.377E+00    0.04       0.0  T
   2   -159.7938900  0.778707E+01  0.453E+00    0.33       1.0  T
   3   -166.1915023 -0.639761E+01  0.568E+00    0.35       1.0  T
   4   -163.8527279  0.233877E+01  0.923E+00    0.77       1.0  T
   5   -162.5781421  0.127459E+01  0.676E+00    0.36       1.0  T
   6   -167.5914980 -0.501336E+01  0.166E+00    0.03       1.0  T
   7   -168.2612712 -0.669773E+00  0.323E+00    0.77       1.0  T
   8   -168.2801278 -0.188566E-01  0.224E+00    1.10       1.0  T
   9   -168.3573082 -0.771804E-01  0.183E+00    1.47       1.0  T
  10   -168.3672957 -0.998743E-02  0.146E+00    1.31       1.0  T
  11   -168.3429107  0.243849E-01  0.107E+00    0.98       1.0  T
  12   -168.3635560 -0.206453E-01  0.723E-01    0.87       1.0  T
  13   -168.3545319  0.902406E-02  0.641E-01    0.76       1.0  T
  14   -168.4043301 -0.497982E-01  0.391E-01    0.79       1.0  T
  15   -168.3918706  0.124596E-01  0.432E-01    0.75       1.0  T
  16   -168.4135149 -0.216444E-01  0.172E-01    0.62       1.0  T
  17   -168.3775907  0.359242E-01  0.405E-01    0.16       1.0  T
  18   -168.3694636  0.812711E-02  0.950E-01    0.05       1.0  T
  19   -168.4153100 -0.458464E-01  0.156E-01    0.22       1.0  T
  20   -168.4161609 -0.850904E-03  0.134E-01    0.21       1.0  T
  21   -168.4163883 -0.227356E-03  0.978E-02    0.13       1.0  T
  22   -168.4106513  0.573691E-02  0.350E-01    0.09       1.0  T
  23   -168.4169607 -0.630935E-02  0.443E-02    0.16       1.0  T
  24   -168.4170530 -0.922642E-04  0.265E-02    0.16       1.0  T
  25   -168.4169630  0.899910E-04  0.574E-02    0.17       1.0  T
  26   -168.4169026  0.603893E-04  0.719E-02    0.18       1.0  T
  27   -168.4168765  0.261037E-04  0.753E-02    0.18       1.0  T
  28   -168.4169784 -0.101880E-03  0.581E-02    0.17       1.0  T
  29   -168.4171105 -0.132134E-03  0.262E-02    0.16       1.0  T
  30   -168.4171399 -0.293679E-04  0.104E-02    0.16       1.0  T
  31   -168.4171450 -0.516637E-05  0.481E-03    0.15       2.0  T
  32   -168.4171458 -0.749914E-06  0.275E-03    0.15       3.4  T
  33   -168.4171461 -0.358303E-06  0.140E-03    0.15       6.7  T
  34   -168.4171462 -0.109427E-06  0.119E-04    0.15      79.5  T
  35   -168.4171462  0.269236E-08  0.238E-04    0.15      39.8  T
     SCC iter.                  ...        0 min,  1.745 sec
     gradient                   ...        0 min,  0.041 sec
 * total energy  :  -166.2284469 Eh     change       -0.3172987E+00 Eh
   gradient norm :     0.3238397 Eh/α   predicted    -0.3355814E+00 (   5.76%)
   displ. norm   :     0.6279055 α      lambda       -0.1435766E+00
   maximum displ.:     0.1992981 α      in ANC's #143, #132, #121, ...

........................................................................
.............................. CYCLE    3 ..............................
........................................................................

 iter      E             dE          RMSdq      gap      omega  full diag
   1   -167.9670303 -0.167967E+03  0.327E+00    0.02       0.0  T
   2   -162.3824901  0.558454E+01  0.413E+00    0.19       1.0  T
   3   -167.6235514 -0.524106E+01  0.336E+00    0.16       1.0  T
   4   -167.6988420 -0.752906E-01  0.296E+00    0.60       1.0  T
   5   -166.7709123  0.927930E+00  0.261E+00    0.28       1.0  T
   6   -168.1947911 -0.142388E+01  0.379E+00    0.60       1.0  T
   7   -168.4009472 -0.206156E+00  0.224E+00    1.03       1.0  T
   8   -168.4381608 -0.372135E-01  0.186E+00    1.18       1.0  T
   9   -168.5021709 -0.640101E-01  0.131E+00    1.24       1.0  T
  10   -168.5327838 -0.306130E-01  0.103E+00    1.18       1.0  T
  11   -168.5179542  0.148296E-01  0.667E-01    0.95       1.0  T
  12   -168.5519756 -0.340213E-01  0.436E-01    0.95       1.0  T
  13   -168.4978585  0.541171E-01  0.671E-01    0.73       1.0  T
  14   -168.5284905 -0.306320E-01  0.439E-01    0.48       1.0  T
  15   -168.5335784 -0.508790E-02  0.341E-01    0.26       1.0  T
  16   -168.5546529 -0.210745E-01  0.237E-01    0.11       1.0  T
  17   -168.5520315  0.262143E-02  0.194E-01    0.23       1.0  T
  18   -168.5521107 -0.791698E-04  0.203E-01    0.22       1.0  T
  19   -168.4718814  0.802292E-01  0.128E+00    0.02       1.0  T
  20   -168.5511618 -0.792804E-01  0.228E-01    0.30       1.0  T
  21   -168.5570033 -0.584152E-02  0.215E-01    0.35       1.0  T
  22   -168.5572594 -0.256131E-03  0.199E-01    0.29       1.0  T
  23   -168.5576300 -0.370556E-03  0.170E-01    0.24       1.0  T
  24   -168.5585346 -0.904618E-03  0.114E-01    0.19       1.0  T
  25   -168.5593645 -0.829888E-03  0.208E-02    0.15       1.0  T
  26   -168.5594049 -0.403777E-04  0.109E-02    0.15       1.0  T
  27   -168.5594106 -0.574957E-05  0.517E-03    0.15       1.8  T
  28   -168.5594084  0.223125E-05  0.502E-03    0.14       1.9  T
  29   -168.5594121 -0.372404E-05  0.225E-03    0.14       4.2  T
  30   -168.5594119  0.196104E-06  0.123E-03    0.14       7.7  T
  31   -168.5594123 -0.377036E-06  0.504E-04    0.14      18.8  T
  32   -168.5594123 -0.213456E-07  0.108E-04    0.14      87.1  T
     SCC iter.                  ...        0 min,  1.550 sec
     gradient                   ...        0 min,  0.035 sec
 * total energy  :  -166.3414741 Eh     change       -0.1130272E+00 Eh
   gradient norm :     0.1733917 Eh/α   predicted    -0.1000919E+00 ( -11.44%)
   displ. norm   :     0.6954024 α      lambda       -0.8929384E-01
   maximum displ.:     0.2984197 α      in ANC's #132, #63, #143, ...

........................................................................
.............................. CYCLE    4 ..............................
........................................................................

 iter      E             dE          RMSdq      gap      omega  full diag
   1   -168.0824650 -0.168082E+03  0.325E+00    0.02       0.0  T
   2   -162.3524859  0.572998E+01  0.419E+00    0.09       1.0  T
   3   -167.7631521 -0.541067E+01  0.338E+00    0.22       1.0  T
   4   -167.8253646 -0.622125E-01  0.303E+00    0.43       1.0  T
   5   -166.9920890  0.833276E+00  0.268E+00    0.34       1.0  T
   6   -168.3335936 -0.134150E+01  0.366E+00    0.13       1.0  T
   7   -168.5009598 -0.167366E+00  0.223E+00    0.65       1.0  T
   8   -168.5420973 -0.411375E-01  0.180E+00    0.89       1.0  T
   9   -168.5994635 -0.573662E-01  0.121E+00    1.22       1.0  T
  10   -168.5900483  0.941514E-02  0.931E-01    0.89       1.0  T
  11   -168.5949514 -0.490313E-02  0.793E-01    0.87       1.0  T
  12   -168.6119817 -0.170302E-01  0.602E-01    0.92       1.0  T
  13   -168.5966083  0.153734E-01  0.707E-01    0.87       1.0  T
  14   -168.6606352 -0.640269E-01  0.330E-01    0.88       1.0  T
  15   -168.6608396 -0.204436E-03  0.358E-01    0.66       1.0  T
  16   -168.6637057 -0.286609E-02  0.140E-01    0.22       1.0  T
  17   -168.3685369  0.295169E+00  0.204E+00    0.05       1.0  T
  18   -168.6568077 -0.288271E+00  0.232E-01    0.30       1.0  T
  19   -168.6611190 -0.431139E-02  0.255E-01    0.45       1.0  T
  20   -168.6638269 -0.270784E-02  0.238E-01    0.40       1.0  T
  21   -168.6643473 -0.520396E-03  0.263E-01    0.36       1.0  T
  22   -168.6653438 -0.996527E-03  0.231E-01    0.30       1.0  T
  23   -168.6666806 -0.133677E-02  0.176E-01    0.22       1.0  T
  24   -168.6676688 -0.988244E-03  0.743E-02    0.15       1.0  T
  25   -168.6681871 -0.518299E-03  0.373E-02    0.15       1.0  T
  26   -168.6683394 -0.152310E-03  0.144E-03    0.14       6.6  T
  27   -168.6683365  0.295897E-05  0.734E-03    0.14       1.3  T
  28   -168.6683389 -0.246981E-05  0.320E-03    0.14       3.0  T
  29   -168.6683395 -0.528249E-06  0.135E-03    0.14       7.0  T
  30   -168.6683396 -0.109861E-06  0.624E-04    0.14      15.1  T
  31   -168.6683396 -0.392191E-08  0.393E-04    0.14      24.0  T
     SCC iter.                  ...        0 min,  1.535 sec
     gradient                   ...        0 min,  0.036 sec
 * total energy  :  -166.4118612 Eh     change       -0.7038715E-01 Eh
   gradient norm :     0.0889669 Eh/α   predicted    -0.6623750E-01 (  -5.90%)
   displ. norm   :     0.7567050 α      lambda       -0.5461018E-01
   maximum displ.:     0.3092284 α      in ANC's #132, #63, #33, ...

........................................................................
.............................. CYCLE    5 ..............................
........................................................................

 iter      E             dE          RMSdq      gap      omega  full diag
   1   -168.4664289 -0.168466E+03  0.207E+00    0.01       0.0  T
   2   -167.4183925  0.104804E+01  0.193E+00    0.11       1.0  T
   3   -167.8621318 -0.443739E+00  0.323E+00    0.11       1.0  T
   4   -168.1853497 -0.323218E+00  0.274E+00    1.05       1.0  T
   5   -167.7968951  0.388455E+00  0.507E+00    0.44       1.0  T
   6   -168.6344557 -0.837561E+00  0.148E+00    1.06       1.0  T
   7   -168.6742983 -0.398426E-01  0.107E+00    1.13       1.0  T
   8   -168.6668607  0.743762E-02  0.100E+00    1.12       1.0  T
   9   -168.7091770 -0.423163E-01  0.560E-01    1.08       1.0  T
  10   -168.7206891 -0.115121E-01  0.463E-01    1.06       1.0  T
  11   -168.7228723 -0.218324E-02  0.442E-01    1.03       1.0  T
  12   -168.7258995 -0.302721E-02  0.377E-01    0.97       1.0  T
  13   -168.7121464  0.137532E-01  0.373E-01    0.33       1.0  T
  14   -167.9473230  0.764823E+00  0.415E+00    0.02       1.0  T
  15   -168.7221664 -0.774843E+00  0.313E-01    0.08       1.0  T
  16   -168.3413500  0.380816E+00  0.271E+00    0.04       1.0  T
  17   -168.7265685 -0.385219E+00  0.215E-01    0.18       1.0  T
  18   -168.6872227  0.393458E-01  0.857E-01    0.04       1.0  T
  19   -168.7253703 -0.381476E-01  0.340E-01    0.08       1.0  T
  20   -168.7275025 -0.213219E-02  0.231E-01    0.09       1.0  T
  21   -168.7271192  0.383219E-03  0.335E-01    0.08       1.0  T
  22   -168.7329167 -0.579741E-02  0.108E-01    0.12       1.0  T
  23   -168.7333116 -0.394996E-03  0.698E-02    0.12       1.0  T
  24   -168.7335118 -0.200139E-03  0.398E-02    0.13       1.0  T
  25   -168.7335825 -0.706833E-04  0.185E-02    0.13       1.0  T
  26   -168.7335987 -0.162727E-04  0.839E-03    0.14       1.1  T
  27   -168.7336019 -0.314680E-05  0.385E-03    0.14       2.5  T
  28   -168.7336027 -0.819269E-06  0.122E-03    0.14       7.8  T
  29   -168.7336028 -0.759847E-07  0.330E-04    0.14      28.7  T
  30   -168.7336028 -0.488924E-08  0.234E-04    0.14      40.4  T
     SCC iter.                  ...        0 min,  1.488 sec
     gradient                   ...        0 min,  0.036 sec
 * total energy  :  -166.4571042 Eh     change       -0.4524292E-01 Eh
   gradient norm :     0.0572871 Eh/α   predicted    -0.4294043E-01 (  -5.09%)
   displ. norm   :     0.7979639 α      lambda       -0.3806242E-01
   maximum displ.:     0.2937809 α      in ANC's #132, #63, #33, ...

........................................................................
.............................. CYCLE    6 ..............................
........................................................................

 iter      E             dE          RMSdq      gap      omega  full diag
   1   -168.6703311 -0.168670E+03  0.135E+00    0.01       0.0  T
   2   -168.3309923  0.339339E+00  0.123E+00    1.09       1.0  T
   3   -167.9505632  0.380429E+00  0.347E+00    0.11       1.0  T
   4   -168.2879951 -0.337432E+00  0.227E+00    0.87       1.0  T
   5   -168.2067057  0.812894E-01  0.328E+00    0.34       1.0  T
   6   -168.7127422 -0.506036E+00  0.914E-01    0.51       1.0  T
   7   -168.7159045 -0.316233E-02  0.993E-01    0.96       1.0  T
   8   -168.7098998  0.600470E-02  0.108E+00    0.94       1.0  T
   9   -168.7134517 -0.355189E-02  0.979E-01    0.98       1.0  T
  10   -168.7649115 -0.514598E-01  0.717E-01    1.16       1.0  T
  11   -168.7773723 -0.124609E-01  0.655E-01    1.17       1.0  T
  12   -168.7463058  0.310665E-01  0.679E-01    1.09       1.0  T
  13   -168.7492670 -0.296115E-02  0.655E-01    1.09       1.0  T
  14   -168.7593085 -0.100415E-01  0.607E-01    1.07       1.0  T
  15   -168.7858936 -0.265851E-01  0.287E-01    0.39       1.0  T
  16   -168.3983839  0.387510E+00  0.273E+00    0.05       1.0  T
  17   -168.7566414 -0.358257E+00  0.369E-01    0.14       1.0  T
  18   -168.7870032 -0.303619E-01  0.355E-01    0.55       1.0  T
  19   -168.7888284 -0.182517E-02  0.262E-01    0.36       1.0  T
  20   -168.7902943 -0.146586E-02  0.203E-01    0.24       1.0  T
  21   -168.7923108 -0.201650E-02  0.367E-02    0.13       1.0  T
  22   -168.7918521  0.458654E-03  0.104E-01    0.17       1.0  T
  23   -168.7924634 -0.611310E-03  0.127E-02    0.13       1.0  T
  24   -168.7924658 -0.243415E-05  0.116E-02    0.14       1.0  T
  25   -168.7924709 -0.506659E-05  0.644E-03    0.14       1.5  T
  26   -168.7924729 -0.198361E-05  0.292E-03    0.14       3.2  T
  27   -168.7924734 -0.455004E-06  0.481E-04    0.14      19.7  T
  28   -168.7924733  0.608520E-08  0.502E-04    0.14      18.8  T
     SCC iter.                  ...        0 min,  1.365 sec
     gradient                   ...        0 min,  0.036 sec
 * total energy  :  -166.4891833 Eh     change       -0.3207919E-01 Eh
   gradient norm :     0.0419242 Eh/α   predicted    -0.3114926E-01 (  -2.90%)
   displ. norm   :     0.8074648 α      lambda       -0.2700616E-01
   maximum displ.:     0.2672634 α      in ANC's #33, #132, #63, ...

........................................................................
.............................. CYCLE    7 ..............................
........................................................................

 iter      E             dE          RMSdq      gap      omega  full diag
   1   -168.8022850 -0.168802E+03  0.666E-01    0.05       0.0  T
   2   -168.7765081  0.257769E-01  0.575E-01    1.20       1.0  T
   3   -168.7629541  0.135540E-01  0.691E-01    0.31       1.0  T
   4   -168.7628255  0.128570E-03  0.641E-01    0.31       1.0  T
   5   -168.8021731 -0.393476E-01  0.440E-01    0.54       1.0  T
   6   -168.7743452  0.278278E-01  0.530E-01    0.23       1.0  T
   7   -168.3464795  0.427866E+00  0.260E+00    0.16       1.0  T
   8   -168.8261314 -0.479652E+00  0.306E-01    0.44       1.0  T
   9   -168.8296812 -0.354983E-02  0.266E-01    0.34       1.0  T
  10   -168.8272752  0.240595E-02  0.260E-01    0.28       1.0  T
  11   -168.8269268  0.348411E-03  0.174E-01    0.11       1.0  T
  12   -168.8321413 -0.521450E-02  0.803E-02    0.12       1.0  T
  13   -168.8326975 -0.556197E-03  0.562E-02    0.14       1.0  T
  14   -168.8330229 -0.325335E-03  0.403E-02    0.14       1.0  T
  15   -168.8332292 -0.206317E-03  0.162E-02    0.14       1.0  T
  16   -168.8332839 -0.547135E-04  0.385E-03    0.14       2.5  T
  17   -168.8332848 -0.878870E-06  0.293E-03    0.14       3.2  T
  18   -168.8332856 -0.802259E-06  0.661E-04    0.14      14.3  T
  19   -168.8332857 -0.104453E-06  0.344E-04    0.14      27.5  T
     SCC iter.                  ...        0 min,  0.738 sec
     gradient                   ...        0 min,  0.036 sec
 * total energy  :  -166.5120054 Eh     change       -0.2282205E-01 Eh
   gradient norm :     0.0307643 Eh/α   predicted    -0.2230710E-01 (  -2.26%)
   displ. norm   :     0.8134285 α      lambda       -0.1942492E-01
   maximum displ.:     0.2664315 α      in ANC's #33, #28, #22, ...

........................................................................
.............................. CYCLE    8 ..............................
........................................................................

 iter      E             dE          RMSdq      gap      omega  full diag
   1   -168.8696292 -0.168870E+03  0.293E-01    0.09       0.0  T
   2   -168.8335065  0.361227E-01  0.440E-01    0.84       1.0  T
   3   -168.8013745  0.321320E-01  0.578E-01    0.19       1.0  T
   4   -168.8718235 -0.704491E-01  0.268E-01    0.21       1.0  T
   5   -168.8677186  0.410493E-02  0.263E-01    0.27       1.0  T
   6   -168.4444199  0.423299E+00  0.233E+00    0.26       1.0  T
   7   -168.6757582 -0.231338E+00  0.135E+00    0.02       1.0  T
   8   -168.8111898 -0.135432E+00  0.520E-01    0.07       1.0  T
   9   -168.8438303 -0.326405E-01  0.354E-01    0.16       1.0  T
  10   -168.8724224 -0.285922E-01  0.177E-01    0.21       1.0  T
  11   -168.8746134 -0.219101E-02  0.799E-02    0.16       1.0  T
  12   -168.8716199  0.299353E-02  0.113E-01    0.12       1.0  T
  13   -168.8747679 -0.314799E-02  0.280E-02    0.14       1.0  T
  14   -168.8749403 -0.172393E-03  0.107E-02    0.14       1.0  T
  15   -168.8749660 -0.256924E-04  0.506E-03    0.14       1.9  T
  16   -168.8749687 -0.269270E-05  0.330E-03    0.14       2.9  T
  17   -168.8749700 -0.127757E-05  0.135E-03    0.14       7.0  T
  18   -168.8749703 -0.303859E-06  0.903E-04    0.14      10.5  T
  19   -168.8749704 -0.103799E-06  0.657E-04    0.14      14.4  T
     SCC iter.                  ...        0 min,  1.107 sec
     gradient                   ...        0 min,  0.035 sec
 * total energy  :  -166.5283188 Eh     change       -0.1631345E-01 Eh
   gradient norm :     0.0221430 Eh/α   predicted    -0.1613891E-01 (  -1.07%)
   displ. norm   :     0.8076318 α      lambda       -0.1372209E-01
   maximum displ.:     0.2502418 α      in ANC's #22, #33, #28, ...

........................................................................
.............................. CYCLE    9 ..............................
........................................................................

 iter      E             dE          RMSdq      gap      omega  full diag
   1   -168.8988909 -0.168899E+03  0.170E-01    0.12       0.0  T
   2   -168.8480491  0.508417E-01  0.467E-01    0.21       1.0  T
   3   -168.8611823 -0.131332E-01  0.406E-01    0.17       1.0  T
   4   -168.8861225 -0.249402E-01  0.446E-01    0.07       1.0  T
   5   -168.8923033 -0.618078E-02  0.215E-01    0.10       1.0  T
   6   -168.8946303 -0.232704E-02  0.189E-01    0.21       1.0  T
   7   -168.8967543 -0.212401E-02  0.146E-01    0.19       1.0  T
   8   -168.8992363 -0.248202E-02  0.730E-02    0.12       1.0  T
   9   -168.8983232  0.913184E-03  0.116E-01    0.11       1.0  T
  10   -168.8994733 -0.115017E-02  0.401E-02    0.13       1.0  T
  11   -168.8995723 -0.989763E-04  0.380E-03    0.14       2.5  T
  12   -168.8995699  0.242757E-05  0.557E-03    0.14       1.7  T
  13   -168.8995679  0.202444E-05  0.486E-03    0.14       1.9  T
  14   -168.8995744 -0.652139E-05  0.558E-04    0.14      16.9  T
  15   -168.8995736  0.763111E-06  0.170E-03    0.14       5.6  T
  16   -168.8995742 -0.622661E-06  0.913E-04    0.14      10.4  T
  17   -168.8995744 -0.150553E-06  0.402E-04    0.14      23.5  T
     SCC iter.                  ...        0 min,  1.137 sec
     gradient                   ...        0 min,  0.036 sec
 * total energy  :  -166.5397586 Eh     change       -0.1143978E-01 Eh
   gradient norm :     0.0162863 Eh/α   predicted    -0.1133632E-01 (  -0.90%)
   displ. norm   :     0.7977782 α      lambda       -0.9742636E-02
   maximum displ.:     0.2617721 α      in ANC's #22, #9, #21, ...

........................................................................
.............................. CYCLE   10 ..............................
........................................................................

 iter      E             dE          RMSdq      gap      omega  full diag
   1   -168.9251190 -0.168925E+03  0.121E-01    0.14       0.0  T
   2   -168.8242697  0.100849E+00  0.787E-01    0.04       1.0  T
   3   -168.9128650 -0.885953E-01  0.237E-01    0.15       1.0  T
   4   -168.8949077  0.179573E-01  0.409E-01    0.08       1.0  T
   5   -168.9239274 -0.290197E-01  0.153E-01    0.11       1.0  T
   6   -168.9229520  0.975374E-03  0.103E-01    0.14       1.0  T
   7   -168.9246729 -0.172096E-02  0.101E-01    0.12       1.0  T
   8   -168.9247711 -0.981272E-04  0.108E-01    0.12       1.0  T
   9   -168.9252028 -0.431746E-03  0.639E-02    0.13       1.0  T
  10   -168.9250856  0.117217E-03  0.669E-02    0.12       1.0  T
  11   -168.9253317 -0.246058E-03  0.477E-02    0.13       1.0  T
  12   -168.9254405 -0.108840E-03  0.259E-02    0.13       1.0  T
  13   -168.9254627 -0.221638E-04  0.194E-02    0.13       1.0  T
  14   -168.9254779 -0.152196E-04  0.137E-02    0.14       1.0  T
  15   -168.9254869 -0.897714E-05  0.781E-03    0.14       1.2  T
  16   -168.9254902 -0.334702E-05  0.501E-03    0.14       1.9  T
  17   -168.9254921 -0.185063E-05  0.232E-03    0.14       4.1  T
  18   -168.9254922 -0.187653E-06  0.129E-03    0.14       7.3  T
  19   -168.9254924 -0.162799E-06  0.283E-04    0.14      33.3  T
  20   -168.9254924 -0.309885E-08  0.176E-04    0.14      53.6  T
     SCC iter.                  ...        0 min,  0.800 sec
     gradient                   ...        0 min,  0.035 sec
 * total energy  :  -166.5479640 Eh     change       -0.8205429E-02 Eh
   gradient norm :     0.0145113 Eh/α   predicted    -0.7971732E-02 (  -2.85%)
   displ. norm   :     0.8037991 α      lambda       -0.7358960E-02
   maximum displ.:     0.3070939 α      in ANC's #9, #22, #18, ...

........................................................................
.............................. CYCLE   11 ..............................
........................................................................

 iter      E             dE          RMSdq      gap      omega  full diag
   1   -168.9396072 -0.168940E+03  0.105E-01    0.15       0.0  T
   2   -168.9011447  0.384625E-01  0.802E-01    0.05       1.0  T
   3   -168.9387638 -0.376191E-01  0.148E-01    0.11       1.0  T
   4   -168.9159865  0.227773E-01  0.327E-01    0.09       1.0  T
   5   -168.9184668 -0.248027E-02  0.315E-01    0.09       1.0  T
   6   -168.9376453 -0.191786E-01  0.184E-01    0.10       1.0  T
   7   -168.9381738 -0.528487E-03  0.159E-01    0.11       1.0  T
   8   -168.9393882 -0.121440E-02  0.796E-02    0.12       1.0  T
   9   -168.9395382 -0.149962E-03  0.577E-02    0.13       1.0  T
  10   -168.9395635 -0.253288E-04  0.532E-02    0.13       1.0  T
  11   -168.9396363 -0.727978E-04  0.415E-02    0.13       1.0  T
  12   -168.9396608 -0.245250E-04  0.357E-02    0.13       1.0  T
  13   -168.9396823 -0.214575E-04  0.299E-02    0.13       1.0  T
  14   -168.9397125 -0.302159E-04  0.198E-02    0.13       1.0  T
  15   -168.9397231 -0.106035E-04  0.144E-02    0.14       1.0  T
  16   -168.9397308 -0.765848E-05  0.881E-03    0.14       1.1  T
  17   -168.9397342 -0.346653E-05  0.430E-03    0.14       2.2  T
  18   -168.9397351 -0.903745E-06  0.170E-03    0.14       5.6  T
  19   -168.9397353 -0.140515E-06  0.752E-04    0.14      12.6  T
  20   -168.9397353 -0.325727E-07  0.406E-05    0.14     233.0  T
     SCC iter.                  ...        0 min,  0.955 sec
     gradient                   ...        0 min,  0.036 sec
 * total energy  :  -166.5543520 Eh     change       -0.6387966E-02 Eh
   gradient norm :     0.0145353 Eh/α   predicted    -0.6056802E-02 (  -5.18%)
   displ. norm   :     0.8205516 α      lambda       -0.6125187E-02
   maximum displ.:     0.3540764 α      in ANC's #9, #18, #22, ...

........................................................................
.............................. CYCLE   12 ..............................
........................................................................

 iter      E             dE          RMSdq      gap      omega  full diag
   1   -168.9527189 -0.168953E+03  0.970E-02    0.15       0.0  T
   2   -168.8916536  0.610654E-01  0.100E+00    0.04       1.0  T
   3   -168.9522211 -0.605675E-01  0.114E-01    0.12       1.0  T
   4   -168.8955659  0.566551E-01  0.484E-01    0.08       1.0  T
   5   -168.9506858 -0.551199E-01  0.929E-02    0.13       1.0  T
   6   -168.9521751 -0.148923E-02  0.941E-02    0.12       1.0  T
   7   -168.9524643 -0.289193E-03  0.781E-02    0.12       1.0  T
   8   -168.9526598 -0.195539E-03  0.582E-02    0.13       1.0  T
   9   -168.9527124 -0.526546E-04  0.487E-02    0.13       1.0  T
  10   -168.9527956 -0.831758E-04  0.305E-02    0.13       1.0  T
  11   -168.9528226 -0.269686E-04  0.236E-02    0.13       1.0  T
  12   -168.9528328 -0.102308E-04  0.193E-02    0.14       1.0  T
  13   -168.9528425 -0.963040E-05  0.146E-02    0.14       1.0  T
  14   -168.9528479 -0.546389E-05  0.111E-02    0.14       1.0  T
  15   -168.9528501 -0.222373E-05  0.924E-03    0.14       1.0  T
  16   -168.9528530 -0.288954E-05  0.604E-03    0.14       1.6  T
  17   -168.9528540 -0.976700E-06  0.443E-03    0.14       2.1  T
  18   -168.9528548 -0.820271E-06  0.233E-03    0.14       4.1  T
  19   -168.9528551 -0.267020E-06  0.102E-03    0.14       9.3  T
  20   -168.9528551 -0.577627E-07  0.213E-04    0.14      44.4  T
  21   -168.9528552 -0.233186E-08  0.415E-05    0.14     227.7  T
     SCC iter.                  ...        0 min,  0.987 sec
     gradient                   ...        0 min,  0.038 sec
 * total energy  :  -166.5597925 Eh     change       -0.5440445E-02 Eh
   gradient norm :     0.0133507 Eh/α   predicted    -0.5124657E-02 (  -5.80%)
   displ. norm   :     0.8349731 α      lambda       -0.5344716E-02
   maximum displ.:     0.3844867 α      in ANC's #9, #18, #15, ...

........................................................................
.............................. CYCLE   13 ..............................
........................................................................

 iter      E             dE          RMSdq      gap      omega  full diag
   1   -168.9607681 -0.168961E+03  0.106E-01    0.15       0.0  T
   2   -168.6545536  0.306215E+00  0.182E+00    0.06       1.0  T
   3   -168.9371284 -0.282575E+00  0.317E-01    0.10       1.0  T
   4   -168.9264395  0.106888E-01  0.444E-01    0.07       1.0  T
   5   -168.9606347 -0.341952E-01  0.534E-02    0.15       1.0  T
   6   -168.9609529 -0.318209E-03  0.595E-02    0.13       1.0  T
   7   -168.9611470 -0.194078E-03  0.302E-02    0.13       1.0  T
   8   -168.9611867 -0.397232E-04  0.179E-02    0.14       1.0  T
   9   -168.9611947 -0.796385E-05  0.117E-02    0.14       1.0  T
  10   -168.9612019 -0.716915E-05  0.533E-03    0.14       1.8  T
  11   -168.9612018  0.192217E-07  0.551E-03    0.14       1.7  T
  12   -168.9612025 -0.635426E-06  0.479E-03    0.14       2.0  T
  13   -168.9612019  0.626526E-06  0.575E-03    0.14       1.6  T
  14   -168.9612022 -0.303314E-06  0.531E-03    0.14       1.8  T
  15   -168.9612028 -0.635353E-06  0.422E-03    0.14       2.2  T
  16   -168.9612030 -0.158609E-06  0.385E-03    0.14       2.5  T
  17   -168.9612032 -0.272429E-06  0.320E-03    0.14       3.0  T
  18   -168.9612034 -0.212325E-06  0.255E-03    0.14       3.7  T
  19   -168.9612037 -0.216624E-06  0.168E-03    0.14       5.6  T
  20   -168.9612038 -0.120815E-06  0.827E-04    0.14      11.4  T
  21   -168.9612038 -0.327668E-07  0.353E-04    0.14      26.7  T
     SCC iter.                  ...        0 min,  0.833 sec
     gradient                   ...        0 min,  0.037 sec
 * total energy  :  -166.5645947 Eh     change       -0.4802196E-02 Eh
   gradient norm :     0.0117177 Eh/α   predicted    -0.4535477E-02 (  -5.55%)
   displ. norm   :     0.8476907 α      lambda       -0.4744292E-02
   maximum displ.:     0.4035711 α      in ANC's #9, #15, #18, ...

........................................................................
.............................. CYCLE   14 ..............................
........................................................................

 iter      E             dE          RMSdq      gap      omega  full diag
   1   -168.9682878 -0.168968E+03  0.109E-01    0.16       0.0  T
   2   -168.7147394  0.253548E+00  0.182E+00    0.03       1.0  T
   3   -168.9653950 -0.250656E+00  0.155E-01    0.11       1.0  T
   4   -168.8437278  0.121667E+00  0.923E-01    0.02       1.0  T
   5   -168.9680371 -0.124309E+00  0.616E-02    0.15       1.0  T
   6   -168.9676821  0.354968E-03  0.939E-02    0.12       1.0  T
   7   -168.9684751 -0.792961E-03  0.291E-02    0.14       1.0  T
   8   -168.9685120 -0.369213E-04  0.227E-02    0.14       1.0  T
   9   -168.9685363 -0.242823E-04  0.230E-02    0.15       1.0  T
  10   -168.9684810  0.553079E-04  0.374E-02    0.15       1.0  T
  11   -168.9685383 -0.573085E-04  0.305E-02    0.15       1.0  T
  12   -168.9685382  0.154256E-06  0.291E-02    0.15       1.0  T
  13   -168.9685457 -0.756230E-05  0.268E-02    0.15       1.0  T
  14   -168.9685560 -0.102444E-04  0.240E-02    0.15       1.0  T
  15   -168.9685632 -0.722733E-05  0.215E-02    0.15       1.0  T
  16   -168.9685727 -0.948892E-05  0.174E-02    0.15       1.0  T
  17   -168.9685812 -0.848152E-05  0.129E-02    0.15       1.0  T
  18   -168.9685884 -0.727488E-05  0.689E-03    0.14       1.4  T
  19   -168.9685908 -0.241458E-05  0.302E-03    0.14       3.1  T
  20   -168.9685914 -0.534421E-06  0.456E-04    0.14      20.7  T
  21   -168.9685914  0.280764E-08  0.514E-04    0.14      18.4  T
     SCC iter.                  ...        0 min,  1.357 sec
     gradient                   ...        0 min,  0.036 sec
 * total energy  :  -166.5688708 Eh     change       -0.4276143E-02 Eh
   gradient norm :     0.0111449 Eh/α   predicted    -0.4076725E-02 (  -4.66%)
   displ. norm   :     0.8561394 α      lambda       -0.4219123E-02
   maximum displ.:     0.4162096 α      in ANC's #9, #15, #11, ...

........................................................................
.............................. CYCLE   15 ..............................
........................................................................

 iter      E             dE          RMSdq      gap      omega  full diag
   1   -168.9743702 -0.168974E+03  0.118E-01    0.16       0.0  T
   2   -168.5589247  0.415445E+00  0.222E+00    0.11       1.0  T
   3   -168.9351920 -0.376267E+00  0.413E-01    0.09       1.0  T
   4   -168.9542462 -0.190542E-01  0.349E-01    0.08       1.0  T
   5   -168.9739481 -0.197019E-01  0.770E-02    0.15       1.0  T
   6   -168.9745678 -0.619723E-03  0.780E-02    0.13       1.0  T
   7   -168.9749236 -0.355786E-03  0.371E-02    0.14       1.0  T
   8   -168.9750530 -0.129436E-03  0.204E-02    0.15       1.0  T
   9   -168.9750358  0.172234E-04  0.300E-02    0.15       1.0  T
  10   -168.9750209  0.149378E-04  0.350E-02    0.16       1.0  T
  11   -168.9750275 -0.659097E-05  0.328E-02    0.15       1.0  T
  12   -168.9750458 -0.183099E-04  0.279E-02    0.15       1.0  T
  13   -168.9750539 -0.814138E-05  0.252E-02    0.15       1.0  T
  14   -168.9750604 -0.651992E-05  0.227E-02    0.15       1.0  T
  15   -168.9750713 -0.108528E-04  0.183E-02    0.15       1.0  T
  16   -168.9750765 -0.524178E-05  0.156E-02    0.15       1.0  T
  17   -168.9750856 -0.909937E-05  0.952E-03    0.15       1.0  T
  18   -168.9750901 -0.443927E-05  0.367E-03    0.15       2.6  T
  19   -168.9750907 -0.633228E-06  0.171E-03    0.14       5.5  T
  20   -168.9750909 -0.164342E-06  0.887E-05    0.14     106.5  T
  21   -168.9750909  0.334035E-08  0.264E-04    0.14      35.9  T
     SCC iter.                  ...        0 min,  0.864 sec
     gradient                   ...        0 min,  0.036 sec
 * total energy  :  -166.5726703 Eh     change       -0.3799479E-02 Eh
   gradient norm :     0.0121111 Eh/α   predicted    -0.3655824E-02 (  -3.78%)
   displ. norm   :     0.8690890 α      lambda       -0.3819670E-02
   maximum displ.:     0.4190994 α      in ANC's #9, #15, #11, ...

........................................................................
.............................. CYCLE   16 ..............................
........................................................................

 iter      E             dE          RMSdq      gap      omega  full diag
   1   -168.9798358 -0.168980E+03  0.111E-01    0.18       0.0  T
   2   -168.6394873  0.340348E+00  0.249E+00    0.00       1.0  T
   3   -168.9751972 -0.335710E+00  0.291E-01    0.10       1.0  T
   4   -168.9543165  0.208807E-01  0.333E-01    0.10       1.0  T
   5   -168.9684778 -0.141613E-01  0.230E-01    0.11       1.0  T
   6   -168.9731652 -0.468741E-02  0.328E-01    0.09       1.0  T
   7   -168.9782464 -0.508127E-02  0.176E-01    0.11       1.0  T
   8   -168.9797821 -0.153570E-02  0.874E-02    0.13       1.0  T
   9   -168.9801182 -0.336063E-03  0.396E-02    0.14       1.0  T
  10   -168.9802180 -0.997813E-04  0.336E-03    0.15       2.8  T
  11   -168.9802180 -0.428356E-07  0.382E-03    0.15       2.5  T
  12   -168.9802184 -0.383903E-06  0.370E-03    0.15       2.6  T
  13   -168.9802193 -0.894342E-06  0.568E-04    0.15      16.6  T
  14   -168.9802193 -0.833927E-08  0.537E-04    0.15      17.6  T
     SCC iter.                  ...        0 min,  0.483 sec
     gradient                   ...        0 min,  0.037 sec
 * total energy  :  -166.5761395 Eh     change       -0.3469186E-02 Eh
   gradient norm :     0.0127777 Eh/α   predicted    -0.3352366E-02 (  -3.37%)
   displ. norm   :     0.8784887 α      lambda       -0.3695317E-02
   maximum displ.:     0.4175027 α      in ANC's #9, #15, #11, ...

........................................................................
.............................. CYCLE   17 ..............................
........................................................................

 iter      E             dE          RMSdq      gap      omega  full diag
   1   -168.9873916 -0.168987E+03  0.109E-01    0.20       0.0  T
   2   -168.5470776  0.440314E+00  0.283E+00    0.02       1.0  T
   3   -168.9650942 -0.418017E+00  0.609E-01    0.07       1.0  T
   4   -168.9128990  0.521952E-01  0.694E-01    0.05       1.0  T
   5   -168.9787160 -0.658170E-01  0.290E-01    0.09       1.0  T
   6   -168.9498207  0.288953E-01  0.787E-01    0.05       1.0  T
   7   -168.9765939 -0.267732E-01  0.426E-01    0.08       1.0  T
   8   -168.9845253 -0.793146E-02  0.234E-01    0.10       1.0  T
   9   -168.9864201 -0.189475E-02  0.156E-01    0.12       1.0  T
  10   -168.9875202 -0.110011E-02  0.787E-02    0.13       1.0  T
  11   -168.9877054 -0.185247E-03  0.560E-02    0.14       1.0  T
  12   -168.9877709 -0.655022E-04  0.455E-02    0.14       1.0  T
  13   -168.9878207 -0.497576E-04  0.360E-02    0.14       1.0  T
  14   -168.9878395 -0.187941E-04  0.315E-02    0.14       1.0  T
  15   -168.9878472 -0.773245E-05  0.292E-02    0.14       1.0  T
  16   -168.9878626 -0.153482E-04  0.244E-02    0.15       1.0  T
  17   -168.9878711 -0.850684E-05  0.211E-02    0.15       1.0  T
  18   -168.9878838 -0.127681E-04  0.152E-02    0.15       1.0  T
  19   -168.9878927 -0.883272E-05  0.881E-03    0.15       1.1  T
  20   -168.9878962 -0.352331E-05  0.428E-03    0.15       2.2  T
  21   -168.9878972 -0.101015E-05  0.989E-04    0.15       9.6  T
  22   -168.9878973 -0.567225E-07  0.112E-04    0.15      84.3  T
  23   -168.9878973  0.106158E-08  0.175E-04    0.15      54.1  T
     SCC iter.                  ...        0 min,  1.015 sec
     gradient                   ...        0 min,  0.036 sec
 * total energy  :  -166.5796051 Eh     change       -0.3465594E-02 Eh
   gradient norm :     0.0157403 Eh/α   predicted    -0.3273581E-02 (  -5.54%)
   displ. norm   :     0.9013735 α      lambda       -0.4022582E-02
   maximum displ.:     0.4615617 α      in ANC's #15, #9, #18, ...

........................................................................
.............................. CYCLE   18 ..............................
........................................................................

 iter      E             dE          RMSdq      gap      omega  full diag
   1   -168.9936023 -0.168994E+03  0.108E-01    0.23       0.0  T
   2   -168.6805258  0.313077E+00  0.236E+00    0.01       1.0  T
   3   -168.8366513 -0.156126E+00  0.164E+00    0.01       1.0  T
   4   -168.7030738  0.133578E+00  0.169E+00    0.05       1.0  T
   5   -168.9630817 -0.260008E+00  0.746E-01    0.06       1.0  T
   6   -168.8073897  0.155692E+00  0.179E+00    0.00       1.0  T
   7   -168.9186962 -0.111306E+00  0.112E+00    0.03       1.0  T
   8   -168.9792731 -0.605769E-01  0.495E-01    0.08       1.0  T
   9   -168.9880372 -0.876407E-02  0.315E-01    0.10       1.0  T
  10   -168.9903570 -0.231976E-02  0.249E-01    0.11       1.0  T
  11   -168.9924925 -0.213552E-02  0.165E-01    0.12       1.0  T
  12   -168.9933082 -0.815731E-03  0.117E-01    0.13       1.0  T
  13   -168.9936273 -0.319056E-03  0.918E-02    0.14       1.0  T
  14   -168.9938399 -0.212643E-03  0.711E-02    0.14       1.0  T
  15   -168.9939780 -0.138062E-03  0.523E-02    0.15       1.0  T
  16   -168.9940362 -0.582532E-04  0.420E-02    0.15       1.0  T
  17   -168.9940717 -0.355044E-04  0.342E-02    0.15       1.0  T
  18   -168.9941074 -0.356593E-04  0.237E-02    0.16       1.0  T
  19   -168.9941274 -0.200146E-04  0.151E-02    0.16       1.0  T
  20   -168.9941371 -0.967326E-05  0.809E-03    0.16       1.2  T
  21   -168.9941401 -0.303153E-05  0.388E-03    0.16       2.4  T
  22   -168.9941408 -0.727482E-06  0.166E-03    0.16       5.7  T
  23   -168.9941410 -0.153510E-06  0.370E-04    0.16      25.6  T
  24   -168.9941410 -0.817718E-08  0.853E-05    0.16     110.7  T
     SCC iter.                  ...        0 min,  1.300 sec
     gradient                   ...        0 min,  0.036 sec
 * total energy  :  -166.5835689 Eh     change       -0.3963848E-02 Eh
   gradient norm :     0.0193464 Eh/α   predicted    -0.3645421E-02 (  -8.03%)
   displ. norm   :     0.9016073 α      lambda       -0.5049775E-02
   maximum displ.:     0.4874267 α      in ANC's #15, #9, #18, ...

........................................................................
.............................. CYCLE   19 ..............................
........................................................................

 iter      E             dE          RMSdq      gap      omega  full diag
   1   -169.0065385 -0.169007E+03  0.144E-01    0.29       0.0  T
   2   -168.8614771  0.145061E+00  0.113E+00    0.01       1.0  T
   3   -168.6851590  0.176318E+00  0.186E+00    0.07       1.0  T
   4   -168.3654005  0.319758E+00  0.322E+00    0.10       1.0  T
   5   -168.8212987 -0.455898E+00  0.160E+00    0.01       1.0  T
   6   -168.8951037 -0.738050E-01  0.133E+00    0.02       1.0  T
   7   -168.9800781 -0.849745E-01  0.643E-01    0.07       1.0  T
   8   -169.0027435 -0.226654E-01  0.233E-01    0.11       1.0  T
   9   -169.0056048 -0.286134E-02  0.151E-01    0.13       1.0  T
  10   -169.0063665 -0.761611E-03  0.113E-01    0.14       1.0  T
  11   -169.0067429 -0.376462E-03  0.784E-02    0.15       1.0  T
  12   -169.0069413 -0.198386E-03  0.592E-02    0.16       1.0  T
  13   -169.0070392 -0.978732E-04  0.458E-02    0.16       1.0  T
  14   -169.0070884 -0.491718E-04  0.349E-02    0.17       1.0  T
  15   -169.0071091 -0.207629E-04  0.299E-02    0.17       1.0  T
  16   -169.0071273 -0.181768E-04  0.262E-02    0.17       1.0  T
  17   -169.0071374 -0.100689E-04  0.226E-02    0.17       1.0  T
  18   -169.0071540 -0.166103E-04  0.165E-02    0.18       1.0  T
  19   -169.0071626 -0.867480E-05  0.114E-02    0.18       1.0  T
  20   -169.0071685 -0.588427E-05  0.623E-03    0.18       1.5  T
  21   -169.0071704 -0.185492E-05  0.310E-03    0.18       3.0  T
  22   -169.0071709 -0.554924E-06  0.746E-04    0.18      12.7  T
  23   -169.0071710 -0.374560E-07  0.116E-04    0.19      81.4  T
     SCC iter.                  ...        0 min,  1.084 sec
     gradient                   ...        0 min,  0.045 sec
 * total energy  :  -166.5884050 Eh     change       -0.4836053E-02 Eh
   gradient norm :     0.0248677 Eh/α   predicted    -0.4577360E-02 (  -5.35%)
   displ. norm   :     0.8479043 α      lambda       -0.5816155E-02
   maximum displ.:     0.4654775 α      in ANC's #15, #14, #9, ...

........................................................................
.............................. CYCLE   20 ..............................
........................................................................

 iter      E             dE          RMSdq      gap      omega  full diag
   1   -169.0140755 -0.169014E+03  0.224E-01    0.37       0.0  T
   2   -168.9148920  0.991835E-01  0.812E-01    0.06       1.0  T
   3   -168.9315383 -0.166463E-01  0.699E-01    0.08       1.0  T
   4   -168.2313228  0.700215E+00  0.360E+00    0.04       1.0  T
   5   -168.9444780 -0.713155E+00  0.103E+00    0.04       1.0  T
   6   -169.0107169 -0.662389E-01  0.294E-01    0.11       1.0  T
   7   -169.0045697  0.614723E-02  0.393E-01    0.09       1.0  T
   8   -169.0023462  0.222342E-02  0.349E-01    0.10       1.0  T
   9   -169.0129357 -0.105895E-01  0.207E-01    0.13       1.0  T
  10   -169.0146128 -0.167706E-02  0.123E-01    0.15       1.0  T
  11   -169.0156506 -0.103785E-02  0.779E-02    0.17       1.0  T
  12   -169.0157523 -0.101738E-03  0.626E-02    0.18       1.0  T
  13   -169.0158629 -0.110567E-03  0.512E-02    0.19       1.0  T
  14   -169.0158961 -0.331846E-04  0.469E-02    0.19       1.0  T
  15   -169.0159125 -0.163675E-04  0.426E-02    0.20       1.0  T
  16   -169.0159562 -0.437332E-04  0.365E-02    0.20       1.0  T
  17   -169.0159761 -0.198997E-04  0.317E-02    0.20       1.0  T
  18   -169.0160047 -0.286311E-04  0.234E-02    0.21       1.0  T
  19   -169.0160258 -0.210237E-04  0.152E-02    0.22       1.0  T
  20   -169.0160339 -0.811109E-05  0.944E-03    0.22       1.0  T
  21   -169.0160383 -0.439958E-05  0.487E-03    0.23       1.9  T
  22   -169.0160396 -0.129734E-05  0.843E-04    0.23      11.2  T
  23   -169.0160396 -0.693020E-07  0.333E-04    0.23      28.4  T
  24   -169.0160396 -0.911766E-08  0.173E-04    0.23      54.7  T
     SCC iter.                  ...        0 min,  1.327 sec
     gradient                   ...        0 min,  0.035 sec
 * total energy  :  -166.5936150 Eh     change       -0.5210094E-02 Eh
   gradient norm :     0.0326728 Eh/α   predicted    -0.4998830E-02 (  -4.05%)
   displ. norm   :     0.8327949 α      lambda       -0.5843947E-02
   maximum displ.:     0.4818560 α      in ANC's #15, #14, #9, ...
 * RMSD in coord.:     1.1283451 α      energy gain  -0.6824668E+00 Eh

generating ANC from model Hessian ...
Using Lindh-Hessian (1995)
 Shifting diagonal of input Hessian by    1.0064580973281697E-002
 Lowest  eigenvalues of input Hessian
    0.010000    0.000000    0.000000    0.000000    0.000000    0.000000
    0.000000    0.010065    0.010079    0.010161    0.010224    0.010259
    0.010354    0.010441    0.010459    0.010765    0.010921    0.011045
 Highest eigenvalues
    2.166497    2.179014    2.182400    2.187572    2.317766    2.320431


........................................................................
.............................. CYCLE   21 ..............................
........................................................................

 iter      E             dE          RMSdq      gap      omega  full diag
   1   -169.0154854 -0.169015E+03  0.234E-01    0.43       0.0  T
   2   -168.9605876  0.548978E-01  0.491E-01    0.30       1.0  T
   3   -168.9777717 -0.171842E-01  0.409E-01    0.35       1.0  T
   4   -168.9823609 -0.458919E-02  0.358E-01    0.25       1.0  T
   5   -169.0152717 -0.329108E-01  0.628E-02    0.37       1.0  T
   6   -169.0126835  0.258823E-02  0.115E-01    0.35       1.0  T
   7   -169.0162325 -0.354898E-02  0.951E-03    0.35       1.0  T
   8   -169.0161850  0.474257E-04  0.148E-02    0.35       1.0  T
   9   -169.0160453  0.139776E-03  0.267E-02    0.34       1.0  T
  10   -169.0162277 -0.182457E-03  0.658E-03    0.35       1.4  T
  11   -169.0162362 -0.848302E-05  0.226E-03    0.35       4.2  T
  12   -169.0162245  0.116760E-04  0.679E-03    0.35       1.4  T
  13   -169.0162317 -0.713644E-05  0.444E-03    0.35       2.1  T
  14   -169.0162364 -0.475720E-05  0.125E-03    0.35       7.6  T
  15   -169.0162368 -0.379024E-06  0.216E-04    0.35      43.7  T
  16   -169.0162368 -0.113091E-07  0.546E-05    0.35     173.0  T
     SCC iter.                  ...        0 min,  0.994 sec
     gradient                   ...        0 min,  0.036 sec
 * total energy  :  -166.5990608 Eh     change       -0.5445720E-02 Eh
   gradient norm :     0.0383419 Eh/α   predicted     0.0000000E+00 (-100.00%)
   displ. norm   :     0.4948074 α      lambda       -0.7314582E-02
   maximum displ.:     0.2224241 α      in ANC's #8, #9, #15, ...

........................................................................
.............................. CYCLE   22 ..............................
........................................................................

 iter      E             dE          RMSdq      gap      omega  full diag
   1   -169.0187373 -0.169019E+03  0.159E-01    0.47       0.0  T
   2   -168.9569776  0.617597E-01  0.510E-01    0.25       1.0  T
   3   -169.0194782 -0.625006E-01  0.991E-02    0.46       1.0  T
   4   -169.0125288  0.694938E-02  0.173E-01    0.45       1.0  T
   5   -169.0100212  0.250755E-02  0.198E-01    0.42       1.0  T
   6   -169.0192918 -0.927059E-02  0.689E-02    0.44       1.0  T
   7   -169.0204769 -0.118508E-02  0.797E-03    0.45       1.2  T
   8   -169.0204781 -0.115288E-05  0.529E-03    0.45       1.8  T
   9   -169.0204653  0.127241E-04  0.792E-03    0.44       1.2  T
  10   -169.0204776 -0.122685E-04  0.309E-03    0.45       3.1  T
  11   -169.0204788 -0.119139E-05  0.154E-03    0.45       6.1  T
  12   -169.0204787  0.114662E-06  0.120E-03    0.45       7.9  T
  13   -169.0204778  0.911906E-06  0.203E-03    0.45       4.7  T
  14   -169.0204774  0.382682E-06  0.232E-03    0.45       4.1  T
  15   -169.0204787 -0.125992E-05  0.850E-04    0.45      11.1  T
  16   -169.0204788 -0.182160E-06  0.225E-04    0.45      42.0  T
  17   -169.0204789 -0.114562E-07  0.882E-05    0.45     107.2  T
     SCC iter.                  ...        0 min,  0.981 sec
     gradient                   ...        0 min,  0.036 sec
 * total energy  :  -166.6053444 Eh     change       -0.6283634E-02 Eh
   gradient norm :     0.0199813 Eh/α   predicted    -0.4552764E-02 ( -27.55%)
   displ. norm   :     0.8259231 α      lambda       -0.8822096E-02
   maximum displ.:     0.3777187 α      in ANC's #8, #9, #15, ...

........................................................................
.............................. CYCLE   23 ..............................
........................................................................

 iter      E             dE          RMSdq      gap      omega  full diag
   1   -169.0218825 -0.169022E+03  0.251E-01    0.71       0.0  T
   2   -168.9587787  0.631039E-01  0.542E-01    0.44       1.0  T
   3   -169.0118331 -0.530545E-01  0.257E-01    0.68       1.0  T
   4   -168.9698070  0.420261E-01  0.460E-01    0.59       1.0  T
   5   -169.0185478 -0.487408E-01  0.156E-01    0.67       1.0  T
   6   -168.9927094  0.258384E-01  0.348E-01    0.64       1.0  T
   7   -169.0241836 -0.314742E-01  0.567E-02    0.68       1.0  T
   8   -169.0245317 -0.348086E-03  0.434E-02    0.68       1.0  T
   9   -169.0212770  0.325472E-02  0.118E-01    0.67       1.0  T
  10   -169.0246339 -0.335692E-02  0.380E-02    0.68       1.0  T
  11   -169.0250176 -0.383720E-03  0.294E-03    0.68       3.2  T
  12   -169.0249838  0.337660E-04  0.114E-02    0.68       1.0  T
  13   -169.0250179 -0.340621E-04  0.174E-03    0.69       5.4  T
  14   -169.0250177  0.230938E-06  0.189E-03    0.68       5.0  T
  15   -169.0250185 -0.818862E-06  0.671E-04    0.69      14.1  T
  16   -169.0250186 -0.101938E-06  0.263E-04    0.69      36.0  T
     SCC iter.                  ...        0 min,  1.019 sec
     gradient                   ...        0 min,  0.037 sec
 * total energy  :  -166.6130673 Eh     change       -0.7722904E-02 Eh
   gradient norm :     0.0165056 Eh/α   predicted    -0.7420042E-02 (  -3.92%)
   displ. norm   :     0.8809053 α      lambda       -0.7856397E-02
   maximum displ.:     0.4081093 α      in ANC's #8, #9, #15, ...

........................................................................
.............................. CYCLE   24 ..............................
........................................................................

 iter      E             dE          RMSdq      gap      omega  full diag
   1   -169.0284021 -0.169028E+03  0.225E-01    0.84       0.0  T
   2   -168.9709102  0.574919E-01  0.496E-01    0.71       1.0  T
   3   -168.9896513 -0.187411E-01  0.408E-01    0.77       1.0  T
   4   -168.9983395 -0.868820E-02  0.340E-01    0.81       1.0  T
   5   -169.0278426 -0.295031E-01  0.706E-02    0.83       1.0  T
   6   -169.0257642  0.207841E-02  0.112E-01    0.83       1.0  T
   7   -169.0290743 -0.331016E-02  0.139E-02    0.84       1.0  T
   8   -169.0290171  0.572281E-04  0.195E-02    0.84       1.0  T
   9   -169.0290273 -0.101560E-04  0.185E-02    0.84       1.0  T
  10   -169.0291174 -0.901534E-04  0.271E-03    0.84       3.5  T
  11   -169.0291182 -0.821738E-06  0.141E-03    0.84       6.7  T
  12   -169.0291075  0.107668E-04  0.640E-03    0.84       1.5  T
  13   -169.0291182 -0.106938E-04  0.109E-03    0.84       8.7  T
  14   -169.0291184 -0.199632E-06  0.574E-04    0.84      16.5  T
  15   -169.0291185 -0.805983E-07  0.713E-05    0.84     132.5  T
     SCC iter.                  ...        0 min,  0.713 sec
     gradient                   ...        0 min,  0.037 sec
 * total energy  :  -166.6204710 Eh     change       -0.7403673E-02 Eh
   gradient norm :     0.0266262 Eh/α   predicted    -0.6976465E-02 (  -5.77%)
   displ. norm   :     0.8964934 α      lambda       -0.8067403E-02
   maximum displ.:     0.4136479 α      in ANC's #8, #9, #15, ...

........................................................................
.............................. CYCLE   25 ..............................
........................................................................

 iter      E             dE          RMSdq      gap      omega  full diag
   1   -169.0365187 -0.169037E+03  0.213E-01    0.83       0.0  T
   2   -169.0302417  0.627700E-02  0.212E-01    0.81       1.0  T
   3   -168.9740285  0.562131E-01  0.511E-01    0.65       1.0  T
   4   -168.9902815 -0.162530E-01  0.421E-01    0.76       1.0  T
   5   -169.0348624 -0.445809E-01  0.797E-02    0.83       1.0  T
   6   -169.0315187  0.334364E-02  0.137E-01    0.82       1.0  T
   7   -169.0361682 -0.464945E-02  0.399E-02    0.83       1.0  T
   8   -169.0363036 -0.135455E-03  0.315E-02    0.83       1.0  T
   9   -169.0365524 -0.248734E-03  0.874E-03    0.83       1.1  T
  10   -169.0365657 -0.132927E-04  0.519E-03    0.83       1.8  T
  11   -169.0365703 -0.463809E-05  0.299E-03    0.83       3.2  T
  12   -169.0365719 -0.159585E-05  0.166E-03    0.83       5.7  T
  13   -169.0365715  0.366991E-06  0.204E-03    0.83       4.6  T
  14   -169.0365720 -0.515792E-06  0.148E-03    0.83       6.4  T
  15   -169.0365726 -0.508207E-06  0.514E-04    0.83      18.4  T
  16   -169.0365726 -0.556136E-07  0.231E-04    0.83      40.9  T
     SCC iter.                  ...        0 min,  0.883 sec
     gradient                   ...        0 min,  0.072 sec
 * total energy  :  -166.6280252 Eh     change       -0.7554220E-02 Eh
   gradient norm :     0.0259060 Eh/α   predicted    -0.7275612E-02 (  -3.69%)
   displ. norm   :     0.8819716 α      lambda       -0.7845420E-02
   maximum displ.:     0.3999659 α      in ANC's #8, #9, #15, ...

........................................................................
.............................. CYCLE   26 ..............................
........................................................................

 iter      E             dE          RMSdq      gap      omega  full diag
   1   -169.0480281 -0.169048E+03  0.212E-01    0.81       0.0  T
   2   -168.9897632  0.582649E-01  0.507E-01    0.63       1.0  T
   3   -169.0334141 -0.436509E-01  0.274E-01    0.80       1.0  T
   4   -168.9990815  0.343326E-01  0.440E-01    0.72       1.0  T
   5   -169.0280354 -0.289539E-01  0.284E-01    0.79       1.0  T
   6   -169.0445850 -0.165496E-01  0.139E-01    0.81       1.0  T
   7   -169.0490354 -0.445040E-02  0.504E-02    0.82       1.0  T
   8   -169.0494523 -0.416898E-03  0.292E-02    0.82       1.0  T
   9   -169.0495482 -0.959059E-04  0.224E-02    0.82       1.0  T
  10   -169.0496692 -0.120950E-03  0.729E-03    0.83       1.3  T
  11   -169.0496832 -0.140037E-04  0.114E-03    0.83       8.3  T
  12   -169.0496828  0.382764E-06  0.161E-03    0.83       5.9  T
  13   -169.0496835 -0.673456E-06  0.150E-04    0.83      62.8  T
  14   -169.0496834  0.145914E-07  0.261E-04    0.83      36.2  T
     SCC iter.                  ...        0 min,  0.844 sec
     gradient                   ...        0 min,  0.045 sec
 * total energy  :  -166.6350815 Eh     change       -0.7056299E-02 Eh
   gradient norm :     0.0198844 Eh/α   predicted    -0.6974141E-02 (  -1.16%)
   displ. norm   :     0.8641746 α      lambda       -0.6653078E-02
   maximum displ.:     0.3837979 α      in ANC's #8, #9, #15, ...

........................................................................
.............................. CYCLE   27 ..............................
........................................................................

 iter      E             dE          RMSdq      gap      omega  full diag
   1   -169.0574477 -0.169057E+03  0.163E-01    0.81       0.0  T
   2   -168.9997124  0.577354E-01  0.493E-01    0.66       1.0  T
   3   -169.0534816 -0.537692E-01  0.167E-01    0.81       1.0  T
   4   -169.0266879  0.267937E-01  0.346E-01    0.76       1.0  T
   5   -169.0586965 -0.320086E-01  0.168E-02    0.82       1.0  T
   6   -169.0572408  0.145570E-02  0.743E-02    0.82       1.0  T
   7   -169.0556611  0.157967E-02  0.107E-01    0.81       1.0  T
   8   -169.0587321 -0.307102E-02  0.637E-03    0.82       1.5  T
   9   -169.0587284  0.374832E-05  0.654E-03    0.82       1.4  T
  10   -169.0587331 -0.468265E-05  0.503E-03    0.82       1.9  T
  11   -169.0587396 -0.650585E-05  0.897E-04    0.82      10.5  T
  12   -169.0587393  0.321161E-06  0.138E-03    0.82       6.8  T
  13   -169.0587397 -0.478564E-06  0.332E-04    0.82      28.5  T
  14   -169.0587397  0.364726E-07  0.482E-04    0.82      19.6  T
     SCC iter.                  ...        0 min,  0.709 sec
     gradient                   ...        0 min,  0.036 sec
 * total energy  :  -166.6409277 Eh     change       -0.5846180E-02 Eh
   gradient norm :     0.0188392 Eh/α   predicted    -0.5810798E-02 (  -0.61%)
   displ. norm   :     0.8251830 α      lambda       -0.5603516E-02
   maximum displ.:     0.3556344 α      in ANC's #8, #9, #15, ...

........................................................................
.............................. CYCLE   28 ..............................
........................................................................

 iter      E             dE          RMSdq      gap      omega  full diag
   1   -169.0705440 -0.169071E+03  0.167E-01    0.82       0.0  T
   2   -169.0170926  0.534514E-01  0.468E-01    0.72       1.0  T
   3   -169.0504920 -0.333994E-01  0.295E-01    0.79       1.0  T
   4   -169.0417105  0.878147E-02  0.332E-01    0.77       1.0  T
   5   -169.0670863 -0.253758E-01  0.123E-01    0.81       1.0  T
   6   -169.0688421 -0.175574E-02  0.920E-02    0.81       1.0  T
   7   -169.0710852 -0.224311E-02  0.111E-02    0.82       1.0  T
   8   -169.0710884 -0.318009E-05  0.876E-03    0.82       1.1  T
   9   -169.0709823  0.106096E-03  0.216E-02    0.82       1.0  T
  10   -169.0711064 -0.124191E-03  0.291E-03    0.83       3.2  T
  11   -169.0711028  0.362549E-05  0.464E-03    0.83       2.0  T
  12   -169.0711078 -0.494860E-05  0.158E-03    0.83       6.0  T
  13   -169.0711084 -0.651743E-06  0.304E-04    0.83      31.1  T
  14   -169.0711084 -0.150517E-07  0.142E-04    0.83      66.3  T
     SCC iter.                  ...        0 min,  0.855 sec
     gradient                   ...        0 min,  0.037 sec
 * total energy  :  -166.6455447 Eh     change       -0.4617007E-02 Eh
   gradient norm :     0.0154311 Eh/α   predicted    -0.4709558E-02 (   2.00%)
   displ. norm   :     0.8096015 α      lambda       -0.4436460E-02
   maximum displ.:     0.3601641 α      in ANC's #8, #9, #15, ...

........................................................................
.............................. CYCLE   29 ..............................
........................................................................

 iter      E             dE          RMSdq      gap      omega  full diag
   1   -169.0664868 -0.169066E+03  0.857E-02    0.83       0.0  T
   2   -169.0287045  0.377823E-01  0.381E-01    0.77       1.0  T
   3   -169.0628272 -0.341227E-01  0.130E-01    0.82       1.0  T
   4   -169.0657595 -0.293222E-02  0.621E-02    0.82       1.0  T
   5   -169.0664635 -0.704030E-03  0.280E-02    0.83       1.0  T
   6   -169.0666093 -0.145809E-03  0.146E-02    0.83       1.0  T
   7   -169.0666585 -0.492443E-04  0.418E-03    0.83       2.3  T
   8   -169.0666536  0.497642E-05  0.536E-03    0.83       1.8  T
   9   -169.0666609 -0.728277E-05  0.952E-04    0.83       9.9  T
  10   -169.0666605  0.343164E-06  0.139E-03    0.83       6.8  T
  11   -169.0666610 -0.480970E-06  0.296E-04    0.83      32.0  T
  12   -169.0666610 -0.154494E-07  0.110E-04    0.83      85.7  T
     SCC iter.                  ...        0 min,  0.700 sec
     gradient                   ...        0 min,  0.040 sec
 * total energy  :  -166.6487105 Eh     change       -0.3165811E-02 Eh
   gradient norm :     0.0211300 Eh/α   predicted    -0.3672181E-02 (  15.99%)
   displ. norm   :     0.6574178 α      lambda       -0.3378478E-02
   maximum displ.:     0.2826660 α      in ANC's #8, #9, #15, ...

........................................................................
.............................. CYCLE   30 ..............................
........................................................................

 iter      E             dE          RMSdq      gap      omega  full diag
   1   -169.0810683 -0.169081E+03  0.136E-01    0.83       0.0  T
   2   -169.0434902  0.375781E-01  0.386E-01    0.78       1.0  T
   3   -169.0604918 -0.170017E-01  0.290E-01    0.80       1.0  T
   4   -169.0799307 -0.194389E-01  0.791E-02    0.83       1.0  T
   5   -169.0810122 -0.108151E-02  0.336E-02    0.83       1.0  T
   6   -169.0812547 -0.242444E-03  0.108E-02    0.83       1.0  T
   7   -169.0812404  0.143252E-04  0.104E-02    0.84       1.0  T
   8   -169.0812484 -0.802763E-05  0.758E-03    0.84       1.2  T
   9   -169.0812621 -0.137237E-04  0.197E-03    0.84       4.8  T
  10   -169.0812625 -0.395459E-06  0.108E-03    0.84       8.7  T
  11   -169.0812618  0.669193E-06  0.175E-03    0.84       5.4  T
  12   -169.0812625 -0.683803E-06  0.707E-04    0.84      13.4  T
  13   -169.0812626 -0.113487E-06  0.194E-04    0.84      48.7  T
     SCC iter.                  ...        0 min,  0.891 sec
     gradient                   ...        0 min,  0.044 sec
 * total energy  :  -166.6506376 Eh     change       -0.1927101E-02 Eh
   gradient norm :     0.0190185 Eh/α   predicted    -0.2419327E-02 (  25.54%)
   displ. norm   :     0.5826098 α      lambda       -0.2468582E-02
   maximum displ.:     0.2659982 α      in ANC's #8, #9, #7, ...

........................................................................
.............................. CYCLE   31 ..............................
........................................................................

 iter      E             dE          RMSdq      gap      omega  full diag
   1   -169.0748597 -0.169075E+03  0.901E-02    0.83       0.0  T
   2   -169.0254907  0.493691E-01  0.437E-01    0.75       1.0  T
   3   -169.0729984 -0.475078E-01  0.106E-01    0.83       1.0  T
   4   -169.0729768  0.215985E-04  0.936E-02    0.83       1.0  T
   5   -169.0744005 -0.142365E-02  0.568E-02    0.83       1.0  T
   6   -169.0748095 -0.408964E-03  0.387E-02    0.83       1.0  T
   7   -169.0747809  0.285879E-04  0.396E-02    0.83       1.0  T
   8   -169.0751955 -0.414619E-03  0.411E-03    0.84       2.3  T
   9   -169.0751553  0.402101E-04  0.128E-02    0.83       1.0  T
  10   -169.0751988 -0.435602E-04  0.146E-03    0.84       6.5  T
  11   -169.0751990 -0.174303E-06  0.111E-03    0.84       8.5  T
  12   -169.0751991 -0.722687E-07  0.925E-04    0.84      10.2  T
  13   -169.0751993 -0.224856E-06  0.109E-04    0.84      86.4  T
     SCC iter.                  ...        0 min,  1.243 sec
     gradient                   ...        0 min,  0.035 sec
 * total energy  :  -166.6517773 Eh     change       -0.1139689E-02 Eh
   gradient norm :     0.0197095 Eh/α   predicted    -0.1653255E-02 (  45.06%)
   displ. norm   :     0.3704934 α      lambda       -0.1298231E-02
   maximum displ.:     0.1596326 α      in ANC's #8, #7, #17, ...

........................................................................
.............................. CYCLE   32 ..............................
........................................................................

 iter      E             dE          RMSdq      gap      omega  full diag
   1   -169.0772672 -0.169077E+03  0.695E-02    0.83       0.0  T
   2   -169.0747008  0.256642E-02  0.107E-01    0.82       1.0  T
   3   -169.0512851  0.234157E-01  0.314E-01    0.79       1.0  T
   4   -169.0770989 -0.258138E-01  0.336E-02    0.83       1.0  T
   5   -169.0772551 -0.156210E-03  0.157E-02    0.83       1.0  T
   6   -169.0772797 -0.245485E-04  0.953E-03    0.84       1.0  T
   7   -169.0772848 -0.518565E-05  0.315E-03    0.83       3.0  T
   8   -169.0772839  0.963887E-06  0.330E-03    0.83       2.9  T
   9   -169.0772864 -0.256125E-05  0.877E-04    0.83      10.8  T
  10   -169.0772864 -0.791499E-08  0.638E-04    0.84      14.8  T
  11   -169.0772865 -0.381122E-07  0.419E-04    0.83      22.5  T
     SCC iter.                  ...        0 min,  0.599 sec
     gradient                   ...        0 min,  0.047 sec
 * total energy  :  -166.6522793 Eh     change       -0.5020133E-03 Eh
   gradient norm :     0.0181656 Eh/α   predicted    -0.7382248E-03 (  47.05%)
   displ. norm   :     0.2622538 α      lambda       -0.1089125E-02
   maximum displ.:     0.1200844 α      in ANC's #8, #7, #4, ...

........................................................................
.............................. CYCLE   33 ..............................
........................................................................

 iter      E             dE          RMSdq      gap      omega  full diag
   1   -169.0818643 -0.169082E+03  0.722E-02    0.83       0.0  T
   2   -169.0817788  0.854949E-04  0.461E-02    0.83       1.0  T
   3   -169.0373850  0.443939E-01  0.410E-01    0.76       1.0  T
   4   -169.0818728 -0.444878E-01  0.228E-02    0.83       1.0  T
   5   -169.0818585  0.142517E-04  0.140E-02    0.83       1.0  T
   6   -169.0818793 -0.207577E-04  0.857E-03    0.83       1.1  T
   7   -169.0818655  0.137628E-04  0.824E-03    0.83       1.1  T
   8   -169.0818816 -0.160766E-04  0.186E-03    0.83       5.1  T
   9   -169.0818820 -0.412801E-06  0.118E-03    0.83       8.0  T
  10   -169.0818822 -0.223278E-06  0.640E-04    0.83      14.8  T
  11   -169.0818823 -0.857781E-07  0.155E-04    0.83      61.1  T
     SCC iter.                  ...        0 min,  0.671 sec
     gradient                   ...        0 min,  0.037 sec
 * total energy  :  -166.6526600 Eh     change       -0.3807216E-03 Eh
   gradient norm :     0.0168428 Eh/α   predicted    -0.5820201E-03 (  52.87%)
   displ. norm   :     0.2849441 α      lambda       -0.1195101E-02
   maximum displ.:     0.1191296 α      in ANC's #17, #7, #8, ...

........................................................................
.............................. CYCLE   34 ..............................
[...]
   107   1 H        0.925     0.036     2.505     2.475
   108   1 H        0.925     0.032     2.561     2.503
   109   1 H        0.925     0.059     2.205     2.322
   110   1 H        0.925     0.046     2.374     2.410
   111   1 H        0.925     0.067     2.123     2.279
   112   1 H        0.925     0.027     2.634     2.538

 Mol. C6AA /au·bohr⁶  :     146630.671294
 Mol. C8AA /au·bohr⁸  :    3587341.755149
 Mol. α(0) /au        :        597.691857


Wiberg/Mayer (AO) data.
largest (>0.10) Wiberg bond orders for each atom

 ---------------------------------------------------------------------------
     #   Z sym  total        # sym  WBO       # sym  WBO       # sym  WBO
 ---------------------------------------------------------------------------
     1   6 C    3.982 --     2 C    1.543     6 C    1.299   100 H    0.968
     2   6 C    3.974 --     1 C    1.543     3 C    1.286    99 H    0.954
     3   6 C    3.978 --     4 C    1.426     2 C    1.286    30 C    1.092
     4   6 C    3.981 --     3 C    1.426     5 C    1.336    98 H    0.945
     5   6 C    3.987 --     4 C    1.336     6 C    1.268     7 C    1.171
     6   6 C    3.986 --     1 C    1.299     5 C    1.268    10 C    1.222
     7   6 C    3.978 --     8 C    1.295    11 C    1.262     5 C    1.171
     8   6 C    3.985 --     7 C    1.295    14 C    1.289     9 C    1.215
     9   6 C    3.974 --    10 C    1.625     8 C    1.215    89 H    0.968
    10   6 C    3.979 --     9 C    1.625     6 C    1.222    90 H    0.967
    11   6 C    3.977 --    12 C    1.294     7 C    1.262    15 C    1.170
    12   6 C    3.945 --    13 C    1.307    11 C    1.294    43 N    1.125
    13   6 C    3.976 --    14 C    1.525    12 C    1.307    87 H    0.965
    14   6 C    3.960 --    13 C    1.525     8 C    1.289    88 H    0.969
    15   6 C    3.977 --    16 C    1.295    17 C    1.261    11 C    1.170
    16   6 C    3.944 --    20 C    1.307    15 C    1.295    43 N    1.124
    17   6 C    3.978 --    18 C    1.295    15 C    1.261    21 C    1.172
    18   6 C    3.985 --    17 C    1.295    19 C    1.288    24 C    1.216
    19   6 C    3.960 --    20 C    1.525    18 C    1.288    96 H    0.969
    20   6 C    3.976 --    19 C    1.525    16 C    1.307    97 H    0.965
    21   6 C    3.987 --    28 C    1.335    22 C    1.268    17 C    1.172
    22   6 C    3.986 --    27 C    1.298    21 C    1.268    23 C    1.223
    23   6 C    3.979 --    24 C    1.625    22 C    1.223    94 H    0.967
    24   6 C    3.974 --    23 C    1.625    18 C    1.216    95 H    0.968
    25   6 C    3.978 --    28 C    1.427    26 C    1.285    29 C    1.092
    26   6 C    3.974 --    27 C    1.543    25 C    1.285    92 H    0.953
    27   6 C    3.982 --    26 C    1.543    22 C    1.298    93 H    0.968
    28   6 C    3.981 --    25 C    1.427    21 C    1.335    91 H    0.945
    29   6 C    3.948 --    56 N    1.258    58 N    1.253    25 C    1.092
                            57 O    0.136    59 O    0.133
    30   6 C    3.948 --    54 N    1.258    52 N    1.252     3 C    1.092
                            55 O    0.137    53 O    0.133
    31   6 C    3.975 --    33 C    0.998    34 C    0.986    32 C    0.962
                            54 N    0.926
    32   6 C    3.976 --    35 C    0.998    36 C    0.985    31 C    0.962
                            52 N    0.928
    33   6 C    3.991 --    31 C    0.998   106 H    0.985   104 H    0.982
                           105 H    0.978
    34   6 C    3.987 --    31 C    0.986   102 H    0.984   101 H    0.983
                           103 H    0.978
    35   6 C    3.991 --    32 C    0.998   112 H    0.985   110 H    0.982
                           111 H    0.978
    36   6 C    3.988 --    32 C    0.985   108 H    0.984   107 H    0.984
                           109 H    0.981
    37   6 C    3.975 --    40 C    0.998    39 C    0.986    38 C    0.962
                            56 N    0.926
    38   6 C    3.976 --    41 C    0.998    42 C    0.985    37 C    0.962
                            58 N    0.928
    39   6 C    3.987 --    37 C    0.986    61 H    0.984    60 H    0.982
                            62 H    0.979
    40   6 C    3.991 --    37 C    0.998    65 H    0.985    63 H    0.982
                            64 H    0.978
    41   6 C    3.991 --    38 C    0.998    71 H    0.985    69 H    0.982
                            70 H    0.978
    42   6 C    3.988 --    38 C    0.985    67 H    0.984    66 H    0.984
                            68 H    0.981
    43   7 N    3.526 --    12 C    1.125    16 C    1.124    51 C    1.021
    44  14 Si   3.617 --    50 C    0.900    49 C    0.898    48 C    0.891
                            45 C    0.856
    45   6 C    3.973 --    46 C    1.021    73 H    0.981    72 H    0.978
                            44 Si   0.856
    46   6 C    3.951 --    45 C    1.021    47 O    0.977    74 H    0.971
                            75 H    0.970
    47   8 O    2.070 --    46 C    0.977    51 C    0.967
    48   6 C    3.979 --    82 H    0.992    83 H    0.989    81 H    0.989
                            44 Si   0.891
    49   6 C    3.980 --    84 H    0.988    85 H    0.988    86 H    0.987
                            44 Si   0.898
    50   6 C    3.981 --    80 H    0.988    78 H    0.988    79 H    0.986
                            44 Si   0.900
    51   6 C    3.958 --    43 N    1.021    47 O    0.967    76 H    0.955
                            77 H    0.955
    52   7 N    3.567 --    30 C    1.252    53 O    1.168    32 C    0.928
    53   8 O    1.493 --    52 N    1.168    30 C    0.133
    54   7 N    3.578 --    30 C    1.258    55 O    1.174    31 C    0.926
    55   8 O    1.512 --    54 N    1.174    30 C    0.137
    56   7 N    3.577 --    29 C    1.258    57 O    1.171    37 C    0.926
    57   8 O    1.507 --    56 N    1.171    29 C    0.136
    58   7 N    3.567 --    29 C    1.253    59 O    1.166    38 C    0.928
    59   8 O    1.492 --    58 N    1.166    29 C    0.133
    60   1 H    0.998 --    39 C    0.982
    61   1 H    0.998 --    39 C    0.984
    62   1 H    0.996 --    39 C    0.979
    63   1 H    0.998 --    40 C    0.982
    64   1 H    0.995 --    40 C    0.978
    65   1 H    0.999 --    40 C    0.985
    66   1 H    0.999 --    42 C    0.984
    67   1 H    0.998 --    42 C    0.984
    68   1 H    0.996 --    42 C    0.981
    69   1 H    0.998 --    41 C    0.982
    70   1 H    0.995 --    41 C    0.978
    71   1 H    0.999 --    41 C    0.985
    72   1 H    0.998 --    45 C    0.978
    73   1 H    0.998 --    45 C    0.981
    74   1 H    1.000 --    46 C    0.971
    75   1 H    1.000 --    46 C    0.970
    76   1 H    0.999 --    51 C    0.955
    77   1 H    0.999 --    51 C    0.955
    78   1 H    0.999 --    50 C    0.988
    79   1 H    0.999 --    50 C    0.986
    80   1 H    0.999 --    50 C    0.988
    81   1 H    0.999 --    48 C    0.989
    82   1 H    0.999 --    48 C    0.992
    83   1 H    0.999 --    48 C    0.989
    84   1 H    0.999 --    49 C    0.988
    85   1 H    0.999 --    49 C    0.988
    86   1 H    0.999 --    49 C    0.987
    87   1 H    0.998 --    13 C    0.965
    88   1 H    0.999 --    14 C    0.969
    89   1 H    0.999 --     9 C    0.968
    90   1 H    0.998 --    10 C    0.967
    91   1 H    0.993 --    28 C    0.945
    92   1 H    0.993 --    26 C    0.953
    93   1 H    0.999 --    27 C    0.968
    94   1 H    0.998 --    23 C    0.967
    95   1 H    0.999 --    24 C    0.968
    96   1 H    0.999 --    19 C    0.969
    97   1 H    0.998 --    20 C    0.965
    98   1 H    0.993 --     4 C    0.945
    99   1 H    0.993 --     2 C    0.954
   100   1 H    0.999 --     1 C    0.968
   101   1 H    0.998 --    34 C    0.983
   102   1 H    0.998 --    34 C    0.984
   103   1 H    0.996 --    34 C    0.978
   104   1 H    0.998 --    33 C    0.982
   105   1 H    0.995 --    33 C    0.978
   106   1 H    0.999 --    33 C    0.985
   107   1 H    0.999 --    36 C    0.984
   108   1 H    0.998 --    36 C    0.984
   109   1 H    0.996 --    36 C    0.981
   110   1 H    0.998 --    35 C    0.982
   111   1 H    0.995 --    35 C    0.978
   112   1 H    0.999 --    35 C    0.985
 ---------------------------------------------------------------------------

Topologies differ in bond orders
Writing corrected topology to xtbtopo.mol

molecular dipole:
                 x           y           z       tot (Debye)
 q only:        5.804       0.119       3.346
   full:        5.988       0.325       3.217      17.297
molecular quadrupole (traceless):
                xx          xy          yy          xz          yz          zz
 q only:      -21.780      -8.607      21.991     -27.314       6.407      -0.211
  q+dip:      -20.947     -13.635      35.514     -29.150       5.749     -14.567
   full:      -24.000     -11.540      30.057     -32.984       2.681      -6.058

           -------------------------------------------------
          |                Geometry Summary                 |
           -------------------------------------------------

      molecular mass/u    :      808.0522223
   center of mass at/Å    :       -0.8803777       1.0876437      -0.3056572
  moments of inertia/u·Å² :        0.9180027E+04   0.1736515E+05   0.2248750E+05
rotational constants/cm⁻¹ :        0.1836338E-02   0.9707736E-03   0.7496445E-03

 * 112 selected distances

     #   Z          #   Z                                           value/Å
     1   6 C        2   6 C                                       1.3664737
     2   6 C        3   6 C                                       1.4105375
     3   6 C        4   6 C                                       1.3864520
     4   6 C        5   6 C                                       1.4003262
     1   6 C        6   6 C                                       1.4050735
     5   6 C        6   6 C                                       1.4144095
     7   6 C        8   6 C                                       1.4140743
     8   6 C        9   6 C                                       1.4216400
     6   6 C       10   6 C                                       1.4186140
     9   6 C       10   6 C                                       1.3538256
     7   6 C       11   6 C                                       1.4158903
    11   6 C       12   6 C                                       1.4111067
    12   6 C       13   6 C                                       1.3938863
     8   6 C       14   6 C                                       1.4085522
    13   6 C       14   6 C                                       1.3691598
    11   6 C       15   6 C                                       1.4429565
    15   6 C       16   6 C                                       1.4104149
    15   6 C       17   6 C                                       1.4163084
    17   6 C       18   6 C                                       1.4141292
    18   6 C       19   6 C                                       1.4086892
    16   6 C       20   6 C                                       1.3938768
    19   6 C       20   6 C                                       1.3691911
    21   6 C       22   6 C                                       1.4143665
    22   6 C       23   6 C                                       1.4184332
    18   6 C       24   6 C                                       1.4214680
    23   6 C       24   6 C                                       1.3537617
    25   6 C       26   6 C                                       1.4106217
    22   6 C       27   6 C                                       1.4050853
    26   6 C       27   6 C                                       1.3663721
    21   6 C       28   6 C                                       1.4005227
    25   6 C       28   6 C                                       1.3863358
    31   6 C       32   6 C                                       1.5386404
    31   6 C       33   6 C                                       1.5252682
    31   6 C       34   6 C                                       1.5328509
    32   6 C       35   6 C                                       1.5251685
    32   6 C       36   6 C                                       1.5354570
    37   6 C       38   6 C                                       1.5388360
    37   6 C       39   6 C                                       1.5328858
    37   6 C       40   6 C                                       1.5253520
    38   6 C       41   6 C                                       1.5251928
    38   6 C       42   6 C                                       1.5355560
    12   6 C       43   7 N                                       1.3781944
    16   6 C       43   7 N                                       1.3784994
    44  14 Si      45   6 C                                       1.9092441
    45   6 C       46   6 C                                       1.5181710
    46   6 C       47   8 O                                       1.4058331
    44  14 Si      48   6 C                                       1.9088413
    44  14 Si      49   6 C                                       1.9115842 (max)
    44  14 Si      50   6 C                                       1.9107116
    43   7 N       51   6 C                                       1.4163070
    47   8 O       51   6 C                                       1.4109407
    30   6 C       52   7 N                                       1.3452431
    32   6 C       52   7 N                                       1.4771230
    30   6 C       54   7 N                                       1.3431956
    31   6 C       54   7 N                                       1.4780253
    29   6 C       56   7 N                                       1.3432464
    37   6 C       56   7 N                                       1.4778861
    29   6 C       58   7 N                                       1.3451101
    38   6 C       58   7 N                                       1.4769921
    39   6 C       60   1 H                                       1.0870197
    39   6 C       61   1 H                                       1.0875354
    39   6 C       62   1 H                                       1.0879719
    40   6 C       63   1 H                                       1.0854301
    40   6 C       64   1 H                                       1.0878007
    40   6 C       65   1 H                                       1.0875124
    42   6 C       66   1 H                                       1.0878350
    42   6 C       67   1 H                                       1.0872358
    42   6 C       68   1 H                                       1.0884650
    41   6 C       69   1 H                                       1.0850644
    41   6 C       70   1 H                                       1.0878453
    41   6 C       71   1 H                                       1.0875589
    45   6 C       72   1 H                                       1.0900084
    45   6 C       73   1 H                                       1.0898607
    46   6 C       74   1 H                                       1.1024825
    46   6 C       75   1 H                                       1.1030876
    51   6 C       76   1 H                                       1.1050341
    51   6 C       77   1 H                                       1.1045643
    50   6 C       78   1 H                                       1.0860411
    50   6 C       79   1 H                                       1.0858383
    50   6 C       80   1 H                                       1.0860438
    48   6 C       81   1 H                                       1.0853542
    48   6 C       82   1 H                                       1.0854442
    48   6 C       83   1 H                                       1.0851777
    49   6 C       84   1 H                                       1.0860049
Note: The following floating-point exceptions are signalling: IEEE_UNDERFLOW_FLAG
normal termination of xtb
    49   6 C       85   1 H                                       1.0860963
    49   6 C       86   1 H                                       1.0861008
    13   6 C       87   1 H                                       1.0805518
    14   6 C       88   1 H                                       1.0816793
     9   6 C       89   1 H                                       1.0827433
    10   6 C       90   1 H                                       1.0823010
    28   6 C       91   1 H                                       1.0769082
    26   6 C       92   1 H                                       1.0780734
    27   6 C       93   1 H                                       1.0824647
    23   6 C       94   1 H                                       1.0823286
    24   6 C       95   1 H                                       1.0827769
    19   6 C       96   1 H                                       1.0815855
    20   6 C       97   1 H                                       1.0805979
     4   6 C       98   1 H                                       1.0768677 (min)
     2   6 C       99   1 H                                       1.0779762
     1   6 C      100   1 H                                       1.0823938
    34   6 C      101   1 H                                       1.0871278
    34   6 C      102   1 H                                       1.0875209
    34   6 C      103   1 H                                       1.0879170
    33   6 C      104   1 H                                       1.0853631
    33   6 C      105   1 H                                       1.0878312
    33   6 C      106   1 H                                       1.0875167
    36   6 C      107   1 H                                       1.0877972
    36   6 C      108   1 H                                       1.0871975
    36   6 C      109   1 H                                       1.0883939
    35   6 C      110   1 H                                       1.0851102
    35   6 C      111   1 H                                       1.0878327
    35   6 C      112   1 H                                       1.0875341

 * 5 distinct bonds (by element types)

   Z      Z             #   av. dist./Å        max./Å        min./Å
   1 H    6 C          53     1.0866189     1.1050341     1.0768677
   6 C    6 C          42     1.4346651     1.5388360     1.3537617
   6 C    7 N          11     1.4054384     1.4780253     1.3431956
   6 C    8 O           2     1.4083869     1.4109407     1.4058331
   6 C   14 Si          4     1.9100953     1.9115842     1.9088413


optimized geometry written to: xtbopt.mol


           -------------------------------------------------
          | TOTAL ENERGY             -166.658768588583 Eh   |
          | GRADIENT NORM               0.000457318233 Eh/α |
          | HOMO-LUMO GAP               0.809727435779 eV   |
           -------------------------------------------------
########################################################################
[WARNING] Runtime exception occurred
-2- restart_readRestart: Multiplicity missmatch in restart file.
-1- restart_readRestart: Number of electron missmatch in restart file.
########################################################################

------------------------------------------------------------------------
 * finished run on 2024/11/14 at 10:48:24.888     
------------------------------------------------------------------------
 total:
 * wall-time:     0 d,  0 h,  1 min, 16.225 sec
 *  cpu-time:     0 d,  0 h,  4 min, 14.202 sec
 * ratio c/w:     3.335 speedup
 SCF:
 * wall-time:     0 d,  0 h,  0 min,  3.473 sec
 *  cpu-time:     0 d,  0 h,  0 min, 13.780 sec
 * ratio c/w:     3.968 speedup
 ANC optimizer:
 * wall-time:     0 d,  0 h,  1 min, 12.731 sec
 *  cpu-time:     0 d,  0 h,  4 min,  0.392 sec
 * ratio c/w:     3.305 speedup

