      -----------------------------------------------------------      
     |                   =====================                   |     
     |                           x T B                           |     
     |                   =====================                   |     
     |                         S. Grimme                         |     
     |          Mulliken Center for Theoretical Chemistry        |     
     |                    University of Bonn                     |     
      -----------------------------------------------------------      

   * xtb version 6.6.1 (8d0f1dd) compiled by 'runner@Mac-1690902418499.local' on 2023-08-01

   xtb is free software: you can redistribute it and/or modify it under
   the terms of the GNU Lesser General Public License as published by
   the Free Software Foundation, either version 3 of the License, or
   (at your option) any later version.
   
   xtb is distributed in the hope that it will be useful,
   but WITHOUT ANY WARRANTY; without even the implied warranty of
   MERCHANTABILITY or FITNESS FOR A PARTICULAR PURPOSE.  See the
   GNU Lesser General Public License for more details.
   
   Cite this work as:
   * C. Bannwarth, E. Caldeweyher, S. Ehlert, A. Hansen, P. Pracht,
     J. Seibert, S. Spicher, S. Grimme, WIREs Comput. Mol. Sci., 2020, 11,
     e01493. DOI: 10.1002/wcms.1493
   
   for GFN2-xTB:
   * C. Bannwarth, S. Ehlert and S. Grimme., J. Chem. Theory Comput., 2019,
     15, 1652-1671. DOI: 10.1021/acs.jctc.8b01176
   for GFN1-xTB:
   * S. Grimme, C. Bannwarth, P. Shushkov, J. Chem. Theory Comput., 2017,
     13, 1989-2009. DOI: 10.1021/acs.jctc.7b00118
   for GFN0-xTB:
   * P. Pracht, E. Caldeweyher, S. Ehlert, S. Grimme, ChemRxiv, 2019, preprint.
     DOI: 10.26434/chemrxiv.8326202.v1
   for GFN-FF:
   * S. Spicher and S. Grimme, Angew. Chem. Int. Ed., 2020, 59, 15665-15673.
     DOI: 10.1002/anie.202004239
   
   for ALPB and GBSA implicit solvation:
   * S. Ehlert, M. Stahn, S. Spicher, S. Grimme, J. Chem. Theory Comput.,
     2021, 17, 4250-4261. DOI: 10.1021/acs.jctc.1c00471
   
   for DFT-D4:
   * E. Caldeweyher, C. Bannwarth and S. Grimme, J. Chem. Phys., 2017,
     147, 034112. DOI: 10.1063/1.4993215
   * E. Caldeweyher, S. Ehlert, A. Hansen, H. Neugebauer, S. Spicher,
     C. Bannwarth and S. Grimme, J. Chem. Phys., 2019, 150, 154122.
     DOI: 10.1063/1.5090222
   * E. Caldeweyher, J.-M. Mewes, S. Ehlert and S. Grimme, Phys. Chem. Chem. Phys.
     2020, 22, 8499-8512. DOI: 10.1039/D0CP00502A
   
   for sTDA-xTB:
   * S. Grimme and C. Bannwarth, J. Chem. Phys., 2016, 145, 054103.
     DOI: 10.1063/1.4959605
   
   in the mass-spec context:
   * V. Asgeirsson, C. Bauer and S. Grimme, Chem. Sci., 2017, 8, 4879.
     DOI: 10.1039/c7sc00601b
   * J. Koopman and S. Grimme, ACS Omega 2019, 4, 12, 15120-15133.
     DOI: 10.1021/acsomega.9b02011
   
   for metadynamics refer to:
   * S. Grimme, J. Chem. Theory Comput., 2019, 155, 2847-2862
     DOI: 10.1021/acs.jctc.9b00143
   
   for SPH calculations refer to:
   * S. Spicher and S. Grimme, J. Chem. Theory Comput., 2021, 17, 1701-1714
     DOI: 10.1021/acs.jctc.0c01306
   
   with help from (in alphabetical order)
   P. Atkinson, C. Bannwarth, F. Bohle, G. Brandenburg, E. Caldeweyher
   M. Checinski, S. Dohm, S. Ehlert, S. Ehrlich, I. Gerasimov, C. Hölzer
   A. Katbashev, J. Koopman, C. Lavigne, S. Lehtola, F. März, M. Müller,
   F. Musil, H. Neugebauer, J. Pisarek, C. Plett, P. Pracht, F. Pultar,
   J. Seibert, P. Shushkov, S. Spicher, M. Stahn, M. Steiner, T. Strunk,
   J. Stückrath, T. Rose, and J. Unsleber
   
 * started run on 2024/11/14 at 11:13:45.943     

           -------------------------------------------------
          |                Calculation Setup                |
           -------------------------------------------------

          program call               : xtb stacked_dimer_Nitro3.mol --opt --gfn2 --chrg -2 --uhf 2 --tight
          coordinate file            : stacked_dimer_Nitro3.mol
          omp threads                :                     8

   ID    Z sym.   atoms
    1    6 C      1-42, 45, 46, 48-51, 113-154, 157, 158, 160-163
    2    7 N      43, 52, 54, 56, 58, 155, 164, 166, 168, 170
    3   14 Si     44, 156
    4    8 O      47, 53, 55, 57, 59, 159, 165, 167, 169, 171
    5    1 H      60-112, 172-224

molecular fragmentation (1/2 indicates fragments):
111111111111111111111111111111111111111111111111111111111111111111111111
111111111111111111111111111111111111111122222222222222222222222222222222
222222222222222222222222222222222222222222222222222222222222222222222222
22222222
# atoms in fragment 1/2:   112   112
 fragment masses (1/2) :      808.05      808.05
CMA distance (Bohr)    :  15.695
constraining FC (au)   :  0.0500
########################################################################
[WARNING] Please study the warnings concerning your input carefully
-1- prog_main_parseArguments: Unknown option '--tight' provided
########################################################################

           -------------------------------------------------
          |                 G F N 2 - x T B                 |
           -------------------------------------------------

        Reference                      10.1021/acs.jctc.8b01176
      * Hamiltonian:
        H0-scaling (s, p, d)           1.850000    2.230000    2.230000
        zeta-weighting                 0.500000
      * Dispersion:
        s8                             2.700000
        a1                             0.520000
        a2                             5.000000
        s9                             5.000000
      * Repulsion:
        kExp                           1.500000    1.000000
        rExp                           1.000000
      * Coulomb:
        alpha                          2.000000
        third order                    shell-resolved
        anisotropic                    true
        a3                             3.000000
        a5                             4.000000
        cn-shift                       1.200000
        cn-exp                         4.000000
        max-rad                        5.000000

q/qsh data taken from xtbrestart
CAMM data taken from xtbrestart

          ...................................................
          :                      SETUP                      :
          :.................................................:
          :  # basis functions                 590          :
          :  # atomic orbitals                 588          :
          :  # shells                          344          :
          :  # electrons                       610          :
          :  max. iterations                   250          :
          :  Hamiltonian                  GFN2-xTB          :
          :  restarted?                       true          :
          :  GBSA solvation                  false          :
          :  PC potential                    false          :
          :  electronic temp.          300.0000000     K    :
          :  accuracy                    1.0000000          :
          :  -> integral cutoff          0.2500000E+02      :
          :  -> integral neglect         0.1000000E-07      :
          :  -> SCF convergence          0.1000000E-05 Eh   :
          :  -> wf. convergence          0.1000000E-03 e    :
          :  Broyden damping             0.4000000          :
          ...................................................

 iter      E             dE          RMSdq      gap      omega  full diag
   1   -337.4454368 -0.337445E+03  0.214E+00    1.47       0.0  T
   2   -337.0193666  0.426070E+00  0.174E+00    0.02       1.0  T
   3   -336.6097724  0.409594E+00  0.158E+00    0.16       1.0  T
   4   -337.3697833 -0.760011E+00  0.101E+00    0.27       1.0  T
   5   -337.5816903 -0.211907E+00  0.628E-01    0.36       1.0  T
   6   -337.5687231  0.129672E-01  0.533E-01    0.78       1.0  T
   7   -337.5445966  0.241264E-01  0.616E-01    0.71       1.0  T
   8   -337.6048613 -0.602647E-01  0.499E-01    0.63       1.0  T
   9   -337.5597477  0.451135E-01  0.550E-01    0.63       1.0  T
  10   -337.5956625 -0.359147E-01  0.446E-01    0.52       1.0  T
  11   -337.5797316  0.159309E-01  0.493E-01    0.42       1.0  T
  12   -337.6011253 -0.213937E-01  0.436E-01    0.48       1.0  T
  13   -337.6405283 -0.394030E-01  0.369E-01    0.44       1.0  T
  14   -337.6815368 -0.410085E-01  0.203E-01    0.50       1.0  T
  15   -337.6874198 -0.588297E-02  0.175E-01    0.48       1.0  T
  16   -337.6802087  0.721112E-02  0.212E-01    0.51       1.0  T
  17   -337.6985779 -0.183693E-01  0.812E-02    0.52       1.0  T
  18   -337.6981816  0.396294E-03  0.838E-02    0.52       1.0  T
  19   -337.7001860 -0.200434E-02  0.570E-02    0.53       1.0  T
  20   -337.7006018 -0.415839E-03  0.555E-02    0.53       1.0  T
  21   -337.7019918 -0.138999E-02  0.979E-03    0.53       1.0  T
  22   -337.7020264 -0.346083E-04  0.586E-03    0.54       1.1  T
  23   -337.7020365 -0.100404E-04  0.390E-03    0.53       1.7  T
  24   -337.7020434 -0.694834E-05  0.183E-03    0.53       3.7  T
  25   -337.7020449 -0.149726E-05  0.718E-04    0.53       9.3  T
  26   -337.7020451 -0.170772E-06  0.343E-04    0.53      19.5  T
  27   -337.7020451 -0.537876E-07  0.126E-04    0.53      53.2  T

   *** convergence criteria satisfied after 27 iterations ***

         #    Occupation            Energy/Eh            Energy/eV
      -------------------------------------------------------------
         1        2.0000           -0.6702472             -18.2384
       ...           ...                  ...                  ...
       300        2.0000           -0.1850074              -5.0343
       301        2.0000           -0.1843901              -5.0175
       302        2.0000           -0.1838837              -5.0037
       303        1.5916           -0.1272415              -3.4624
       304        1.5667           -0.1271445              -3.4598
       305        1.4438           -0.1266753              -3.4470
       306        1.3978           -0.1264958              -3.4421 (HOMO)
       307        0.0001           -0.1068670              -2.9080 (LUMO)
       308        0.0000           -0.1038416              -2.8257
       309        0.0000           -0.1017492              -2.7687
       310        0.0000           -0.1013587              -2.7581
       311                         -0.0900150              -2.4494
       ...                                ...                  ...
       588                          0.9220345              25.0898
      -------------------------------------------------------------
                  HL-Gap            0.0196288 Eh            0.5341 eV
             Fermi-level           -0.1215532 Eh           -3.3076 eV

 transition dipole moment (au) for excitation:         305         306
     X       Y       Z   
  -0.1774   0.6682   0.7155  total (au/Debye):    0.995   2.529
 dE (eV)             :    0.005
 oscillator strength :  0.16749E-03

 SCC (total)                   0 d,  0 h,  0 min,  5.200 sec
 SCC setup                      ...        0 min,  0.001 sec (  0.017%)
 Dispersion                     ...        0 min,  0.004 sec (  0.081%)
 classical contributions        ...        0 min,  0.001 sec (  0.019%)
 integral evaluation            ...        0 min,  0.020 sec (  0.381%)
 iterations                     ...        0 min,  4.897 sec ( 94.179%)
 molecular gradient             ...        0 min,  0.212 sec (  4.075%)
 printout                       ...        0 min,  0.065 sec (  1.246%)

         :::::::::::::::::::::::::::::::::::::::::::::::::::::
         ::                     SUMMARY                     ::
         :::::::::::::::::::::::::::::::::::::::::::::::::::::
         :: total energy            -333.055298613300 Eh    ::
         :: gradient norm              0.445442146702 Eh/a0 ::
         :: HOMO-LUMO gap              0.534126242571 eV    ::
         ::.................................................::
         :: SCC energy              -337.702045132073 Eh    ::
         :: -> isotropic ES            0.628307171252 Eh    ::
         :: -> anisotropic ES          0.059704887585 Eh    ::
         :: -> anisotropic XC          0.106881275494 Eh    ::
         :: -> dispersion             -0.350824829688 Eh    ::
         :: repulsion energy           4.622320890233 Eh    ::
         :: add. restraining           0.000000000000 Eh    ::
         :: total charge              -1.999999891847 e     ::
         :::::::::::::::::::::::::::::::::::::::::::::::::::::

      ----------------------------------------------------------- 
     |                   =====================                   |
     |                        A N C O P T                        |
     |                   =====================                   |
     |               Approximate Normal Coordinate               |
     |                Rational Function Optimizer                |
      ----------------------------------------------------------- 

          ...................................................
          :                      SETUP                      :
          :.................................................:
          :   optimization level            normal          :
          :   max. optcycles                   672          :
          :   ANC micro-cycles                  20          :
          :   degrees of freedom               666          :
          :.................................................:
          :   RF solver                   davidson          :
          :   write xtbopt.log                true          :
          :   linear?                        false          :
          :   energy convergence         0.5000000E-05 Eh   :
          :   grad. convergence          0.1000000E-02 Eh/α :
          :   maxmium RF displ.          1.0000000          :
          :   Hlow (freq-cutoff)         0.1000000E-01      :
          :   Hmax (freq-cutoff)         5.0000000          :
          :   S6 in model hess.         20.0000000          :
          ...................................................

generating ANC from model Hessian ...
Using Lindh-Hessian (1995)
 Shifting diagonal of input Hessian by    1.0048266087585363E-002
 Lowest  eigenvalues of input Hessian
    0.010000    0.010023    0.010036    0.010045    0.000000    0.000000
    0.000000    0.000000    0.000000    0.000000    0.010076    0.010091
    0.010106    0.010109    0.010123    0.010169    0.010183    0.010191
 Highest eigenvalues
    2.218707    2.221075    2.573764    2.574432    2.588008    2.594682


........................................................................
.............................. CYCLE    1 ..............................
........................................................................

 iter      E             dE          RMSdq      gap      omega  full diag
   1   -337.7020451 -0.337702E+03  0.830E-05    0.53       0.0  T
   2   -337.7020433  0.183930E-05  0.193E-03    0.53       3.5  T
   3   -337.7020451 -0.183083E-05  0.142E-04    0.53      47.1  T
   4   -337.7020451 -0.115948E-07  0.181E-05    0.53     369.0  T
   5   -337.7020451  0.168598E-09  0.246E-05    0.53     271.5  T
     SCC iter.                  ...        0 min,  0.592 sec
     gradient                   ...        0 min,  0.207 sec
 * total energy  :  -333.0552986 Eh     change       -0.8708639E-08 Eh
   gradient norm :     0.4454435 Eh/α   predicted     0.0000000E+00 (-100.00%)
   displ. norm   :     0.4665212 α      lambda       -0.1596846E+00
   maximum displ.:     0.0921815 α      in ANC's #156, #157, #368, ...

........................................................................
.............................. CYCLE    2 ..............................
........................................................................

 iter      E             dE          RMSdq      gap      omega  full diag
   1   -337.8082177 -0.337808E+03  0.488E-01    0.65       0.0  T
   2   -337.5537562  0.254462E+00  0.935E-01    0.11       1.0  T
   3   -337.8161700 -0.262414E+00  0.429E-01    0.65       1.0  T
   4   -337.7437678  0.724022E-01  0.575E-01    0.62       1.0  T
   5   -337.8561453 -0.112377E+00  0.289E-01    0.61       1.0  T
   6   -337.8025873  0.535579E-01  0.429E-01    0.55       1.0  T
   7   -337.8361786 -0.335912E-01  0.340E-01    0.39       1.0  T
   8   -337.8248585  0.113200E-01  0.379E-01    0.45       1.0  T
   9   -337.8627205 -0.378620E-01  0.246E-01    0.52       1.0  T
  10   -337.8834042 -0.206836E-01  0.137E-01    0.59       1.0  T
  11   -337.8903079 -0.690378E-02  0.716E-02    0.59       1.0  T
  12   -337.8925027 -0.219480E-02  0.207E-02    0.61       1.0  T
  13   -337.8925203 -0.175620E-04  0.208E-02    0.61       1.0  T
  14   -337.8925045  0.157576E-04  0.213E-02    0.62       1.0  T
  15   -337.8926661 -0.161519E-03  0.104E-02    0.61       1.0  T
  16   -337.8927081 -0.420301E-04  0.454E-03    0.62       1.5  T
  17   -337.8927124 -0.430056E-05  0.341E-03    0.62       2.0  T
  18   -337.8927153 -0.295805E-05  0.229E-03    0.62       2.9  T
  19   -337.8927178 -0.245825E-05  0.808E-04    0.62       8.3  T
  20   -337.8927177  0.629075E-07  0.899E-04    0.61       7.4  T
  21   -337.8927181 -0.327748E-06  0.361E-04    0.61      18.5  T
     SCC iter.                  ...        0 min,  3.067 sec
     gradient                   ...        0 min,  0.220 sec
 * total energy  :  -333.1713884 Eh     change       -0.1160898E+00 Eh
   gradient norm :     0.1930745 Eh/α   predicted    -0.9726745E-01 ( -16.21%)
   displ. norm   :     0.5315825 α      lambda       -0.6789707E-01
   maximum displ.:     0.1273697 α      in ANC's #156, #157, #154, ...

........................................................................
.............................. CYCLE    3 ..............................
........................................................................

 iter      E             dE          RMSdq      gap      omega  full diag
   1   -337.9846770 -0.337985E+03  0.362E-01    0.65       0.0  T
   2   -337.7811112  0.203566E+00  0.794E-01    0.20       1.0  T
   3   -337.9598919 -0.178781E+00  0.401E-01    0.54       1.0  T
   4   -337.9104615  0.494304E-01  0.505E-01    0.61       1.0  T
   5   -338.0089891 -0.985276E-01  0.215E-01    0.58       1.0  T
   6   -337.9774367  0.315524E-01  0.317E-01    0.52       1.0  T
   7   -337.9581695  0.192672E-01  0.377E-01    0.50       1.0  T
   8   -337.9785046 -0.203352E-01  0.323E-01    0.55       1.0  T
   9   -338.0207812 -0.422766E-01  0.130E-01    0.61       1.0  T
  10   -338.0269566 -0.617533E-02  0.686E-02    0.64       1.0  T
  11   -338.0266939  0.262682E-03  0.740E-02    0.62       1.0  T
  12   -338.0292680 -0.257413E-02  0.130E-02    0.63       1.0  T
  13   -338.0291818  0.861788E-04  0.187E-02    0.64       1.0  T
  14   -338.0293291 -0.147315E-03  0.667E-03    0.64       1.0  T
  15   -338.0293487 -0.196070E-04  0.268E-03    0.64       2.5  T
  16   -338.0293456  0.311846E-05  0.370E-03    0.64       1.8  T
  17   -338.0293503 -0.468746E-05  0.194E-03    0.64       3.4  T
  18   -338.0293520 -0.173504E-05  0.544E-04    0.64      12.3  T
  19   -338.0293521 -0.872973E-07  0.330E-04    0.64      20.3  T
  20   -338.0293522 -0.373163E-07  0.188E-04    0.64      35.5  T
     SCC iter.                  ...        0 min,  4.013 sec
     gradient                   ...        0 min,  0.228 sec
 * total energy  :  -333.2171140 Eh     change       -0.4572565E-01 Eh
   gradient norm :     0.0564582 Eh/α   predicted    -0.4354173E-01 (  -4.78%)
   displ. norm   :     0.6090631 α      lambda       -0.2323668E-01
   maximum displ.:     0.1395024 α      in ANC's #156, #157, #135, ...

........................................................................
.............................. CYCLE    4 ..............................
........................................................................

 iter      E             dE          RMSdq      gap      omega  full diag
   1   -338.0684133 -0.338068E+03  0.167E-01    0.65       0.0  T
   2   -337.9757349  0.926784E-01  0.472E-01    0.47       1.0  T
   3   -338.0080976 -0.323627E-01  0.379E-01    0.55       1.0  T
   4   -338.0154563 -0.735864E-02  0.341E-01    0.60       1.0  T
   5   -338.0365701 -0.211138E-01  0.267E-01    0.63       1.0  T
   6   -338.0430343 -0.646422E-02  0.234E-01    0.62       1.0  T
   7   -338.0563768 -0.133425E-01  0.197E-01    0.59       1.0  T
   8   -338.0708652 -0.144884E-01  0.881E-02    0.64       1.0  T
   9   -338.0742949 -0.342976E-02  0.273E-02    0.66       1.0  T
  10   -338.0747004 -0.405439E-03  0.778E-03    0.65       1.0  T
  11   -338.0747137 -0.133116E-04  0.529E-03    0.65       1.3  T
  12   -338.0747013  0.124021E-04  0.721E-03    0.65       1.0  T
  13   -338.0747288 -0.275467E-04  0.107E-03    0.65       6.2  T
  14   -338.0747278  0.983430E-06  0.167E-03    0.65       4.0  T
  15   -338.0747270  0.860015E-06  0.214E-03    0.65       3.1  T
  16   -338.0747294 -0.236171E-05  0.271E-04    0.65      24.7  T
  17   -338.0747294 -0.149681E-07  0.191E-04    0.65      35.0  T
  18   -338.0747294 -0.126279E-07  0.101E-04    0.65      66.2  T
     SCC iter.                  ...        0 min,  2.678 sec
     gradient                   ...        0 min,  0.203 sec
 * total energy  :  -333.2344610 Eh     change       -0.1734694E-01 Eh
   gradient norm :     0.0294686 Eh/α   predicted    -0.1592826E-01 (  -8.18%)
   displ. norm   :     0.6292998 α      lambda       -0.1200567E-01
   maximum displ.:     0.1573173 α      in ANC's #88, #66, #135, ...

........................................................................
.............................. CYCLE    5 ..............................
........................................................................

 iter      E             dE          RMSdq      gap      omega  full diag
   1   -338.0987023 -0.338099E+03  0.102E-01    0.66       0.0  T
   2   -338.0333396  0.653627E-01  0.369E-01    0.56       1.0  T
   3   -338.0628133 -0.294737E-01  0.268E-01    0.62       1.0  T
   4   -338.0478877  0.149256E-01  0.303E-01    0.62       1.0  T
   5   -338.0732294 -0.253416E-01  0.219E-01    0.64       1.0  T
   6   -338.0496202  0.236092E-01  0.326E-01    0.58       1.0  T
   7   -338.0973204 -0.477003E-01  0.712E-02    0.66       1.0  T
   8   -338.0993480 -0.202751E-02  0.287E-02    0.67       1.0  T
   9   -338.0997258 -0.377863E-03  0.979E-03    0.67       1.0  T
  10   -338.0997563 -0.304784E-04  0.707E-03    0.67       1.0  T
  11   -338.0997412  0.150715E-04  0.832E-03    0.67       1.0  T
  12   -338.0997790 -0.377998E-04  0.971E-04    0.67       6.9  T
  13   -338.0997763  0.277014E-05  0.234E-03    0.67       2.9  T
  14   -338.0997784 -0.214645E-05  0.140E-03    0.67       4.8  T
  15   -338.0997793 -0.877217E-06  0.394E-04    0.67      16.9  T
  16   -338.0997793 -0.314544E-07  0.351E-04    0.67      19.1  T
     SCC iter.                  ...        0 min,  2.033 sec
     gradient                   ...        0 min,  0.265 sec
 * total energy  :  -333.2435215 Eh     change       -0.9060501E-02 Eh
   gradient norm :     0.0197756 Eh/α   predicted    -0.8380069E-02 (  -7.51%)
   displ. norm   :     0.6328426 α      lambda       -0.6546671E-02
   maximum displ.:     0.1706900 α      in ANC's #18, #21, #88, ...

........................................................................
.............................. CYCLE    6 ..............................
........................................................................

 iter      E             dE          RMSdq      gap      omega  full diag
   1   -338.1175754 -0.338118E+03  0.741E-02    0.67       0.0  T
   2   -338.0775153  0.400601E-01  0.295E-01    0.56       1.0  T
   3   -338.1079416 -0.304262E-01  0.145E-01    0.66       1.0  T
   4   -338.0829826  0.249590E-01  0.260E-01    0.64       1.0  T
   5   -338.1100857 -0.271031E-01  0.128E-01    0.66       1.0  T
   6   -338.0889658  0.211200E-01  0.228E-01    0.64       1.0  T
   7   -338.1175192 -0.285535E-01  0.358E-02    0.67       1.0  T
   8   -338.1177665 -0.247340E-03  0.286E-02    0.68       1.0  T
   9   -338.1180984 -0.331837E-03  0.131E-02    0.67       1.0  T
  10   -338.1181430 -0.446632E-04  0.100E-02    0.67       1.0  T
  11   -338.1181216  0.214617E-04  0.115E-02    0.67       1.0  T
  12   -338.1181930 -0.713937E-04  0.737E-04    0.67       9.1  T
  13   -338.1181919  0.107933E-05  0.147E-03    0.67       4.5  T
  14   -338.1181926 -0.731060E-06  0.101E-03    0.67       6.6  T
  15   -338.1181930 -0.403987E-06  0.442E-04    0.67      15.1  T
  16   -338.1181931 -0.938693E-07  0.208E-04    0.67      32.1  T
     SCC iter.                  ...        0 min,  2.292 sec
     gradient                   ...        0 min,  0.216 sec
 * total energy  :  -333.2486130 Eh     change       -0.5091537E-02 Eh
   gradient norm :     0.0139356 Eh/α   predicted    -0.4584276E-02 (  -9.96%)
   displ. norm   :     0.6527146 α      lambda       -0.4232403E-02
   maximum displ.:     0.2210191 α      in ANC's #18, #21, #16, ...

........................................................................
.............................. CYCLE    7 ..............................
........................................................................

 iter      E             dE          RMSdq      gap      omega  full diag
   1   -338.1292627 -0.338129E+03  0.726E-02    0.67       0.0  T
   2   -338.0680593  0.612033E-01  0.366E-01    0.54       1.0  T
   3   -338.0826891 -0.146297E-01  0.288E-01    0.61       1.0  T
   4   -338.1289822 -0.462931E-01  0.600E-02    0.67       1.0  T
   5   -338.0978945  0.310877E-01  0.255E-01    0.62       1.0  T
   6   -338.1240401 -0.261456E-01  0.115E-01    0.67       1.0  T
   7   -338.1298447 -0.580463E-02  0.388E-02    0.67       1.0  T
   8   -338.1305736 -0.728869E-03  0.974E-03    0.67       1.0  T
   9   -338.1305876 -0.139497E-04  0.800E-03    0.67       1.0  T
  10   -338.1305701  0.174745E-04  0.971E-03    0.67       1.0  T
  11   -338.1306016 -0.315521E-04  0.535E-03    0.67       1.2  T
  12   -338.1306133 -0.116255E-04  0.270E-03    0.67       2.5  T
  13   -338.1306168 -0.354059E-05  0.472E-04    0.67      14.1  T
  14   -338.1306169 -0.560299E-07  0.287E-04    0.67      23.3  T
  15   -338.1306169 -0.197307E-07  0.184E-04    0.67      36.3  T
     SCC iter.                  ...        0 min,  4.331 sec
     gradient                   ...        0 min,  0.211 sec
 * total energy  :  -333.2520128 Eh     change       -0.3399755E-02 Eh
   gradient norm :     0.0100650 Eh/α   predicted    -0.3017783E-02 ( -11.24%)
   displ. norm   :     0.6789934 α      lambda       -0.3133556E-02
   maximum displ.:     0.2610971 α      in ANC's #18, #21, #16, ...

........................................................................
.............................. CYCLE    8 ..............................
........................................................................

 iter      E             dE          RMSdq      gap      omega  full diag
   1   -338.1357659 -0.338136E+03  0.755E-02    0.67       0.0  T
   2   -338.0723353  0.634306E-01  0.377E-01    0.52       1.0  T
   3   -338.0781282 -0.579295E-02  0.318E-01    0.58       1.0  T
   4   -338.1350439 -0.569157E-01  0.777E-02    0.66       1.0  T
   5   -338.1020158  0.330281E-01  0.271E-01    0.63       1.0  T
   6   -338.1058466 -0.383079E-02  0.249E-01    0.64       1.0  T
   7   -338.1311794 -0.253328E-01  0.111E-01    0.65       1.0  T
   8   -338.1375868 -0.640733E-02  0.138E-02    0.67       1.0  T
   9   -338.1374663  0.120494E-03  0.205E-02    0.66       1.0  T
  10   -338.1376500 -0.183709E-03  0.767E-03    0.67       1.0  T
  11   -338.1376743 -0.243262E-04  0.355E-03    0.67       1.9  T
  12   -338.1376803 -0.596844E-05  0.134E-03    0.67       5.0  T
  13   -338.1376791  0.114097E-05  0.194E-03    0.67       3.4  T
  14   -338.1376811 -0.198822E-05  0.464E-04    0.67      14.4  T
  15   -338.1376812 -0.656104E-07  0.292E-04    0.67      22.9  T
  16   -338.1376812 -0.399087E-07  0.133E-04    0.67      50.4  T
     SCC iter.                  ...        0 min,  2.904 sec
     gradient                   ...        0 min,  0.211 sec
 * total energy  :  -333.2546269 Eh     change       -0.2614145E-02 Eh
   gradient norm :     0.0084826 Eh/α   predicted    -0.2289114E-02 ( -12.43%)
   displ. norm   :     0.7125264 α      lambda       -0.2628718E-02
   maximum displ.:     0.2915857 α      in ANC's #18, #21, #16, ...

........................................................................
.............................. CYCLE    9 ..............................
........................................................................

 iter      E             dE          RMSdq      gap      omega  full diag
   1   -338.1389649 -0.338139E+03  0.731E-02    0.67       0.0  T
   2   -338.0847912  0.541736E-01  0.351E-01    0.51       1.0  T
   3   -338.0811646  0.362661E-02  0.318E-01    0.58       1.0  T
   4   -338.1376014 -0.564368E-01  0.839E-02    0.65       1.0  T
   5   -338.1077689  0.298326E-01  0.260E-01    0.63       1.0  T
   6   -338.1010088  0.676008E-02  0.276E-01    0.63       1.0  T
   7   -338.1370726 -0.360638E-01  0.838E-02    0.65       1.0  T
   8   -338.1406559 -0.358334E-02  0.176E-02    0.66       1.0  T
   9   -338.1405372  0.118779E-03  0.229E-02    0.66       1.0  T
  10   -338.1407845 -0.247356E-03  0.752E-03    0.66       1.0  T
  11   -338.1408137 -0.291847E-04  0.189E-03    0.66       3.5  T
  12   -338.1408124  0.134201E-05  0.234E-03    0.66       2.8  T
  13   -338.1408145 -0.214630E-05  0.123E-03    0.66       5.4  T
  14   -338.1408153 -0.842833E-06  0.224E-04    0.66      29.8  T
  15   -338.1408153  0.445236E-07  0.341E-04    0.66      19.6  T
     SCC iter.                  ...        0 min,  2.536 sec
     gradient                   ...        0 min,  0.218 sec
 * total energy  :  -333.2569067 Eh     change       -0.2279745E-02 Eh
   gradient norm :     0.0084016 Eh/α   predicted    -0.1981651E-02 ( -13.08%)
   displ. norm   :     0.7577874 α      lambda       -0.2422993E-02
   maximum displ.:     0.3166439 α      in ANC's #18, #21, #16, ...

........................................................................
.............................. CYCLE   10 ..............................
........................................................................

 iter      E             dE          RMSdq      gap      omega  full diag
   1   -338.1403167 -0.338140E+03  0.586E-02    0.67       0.0  T
   2   -338.1005320  0.397846E-01  0.295E-01    0.54       1.0  T
   3   -338.1203864 -0.198543E-01  0.193E-01    0.64       1.0  T
   4   -338.1396632 -0.192768E-01  0.565E-02    0.66       1.0  T
   5   -338.1014930  0.381702E-01  0.274E-01    0.62       1.0  T
   6   -338.1354839 -0.339909E-01  0.103E-01    0.66       1.0  T
   7   -338.1408297 -0.534579E-02  0.265E-02    0.66       1.0  T
   8   -338.1411747 -0.345079E-03  0.547E-03    0.66       1.2  T
   9   -338.1411810 -0.621713E-05  0.398E-03    0.66       1.7  T
  10   -338.1411699  0.110082E-04  0.594E-03    0.66       1.1  T
  11   -338.1411770 -0.709651E-05  0.461E-03    0.66       1.5  T
  12   -338.1411865 -0.947043E-05  0.194E-03    0.66       3.5  T
  13   -338.1411885 -0.194077E-05  0.156E-04    0.66      43.0  T
  14   -338.1411884  0.220455E-07  0.229E-04    0.66      29.2  T
  15   -338.1411884 -0.471039E-08  0.202E-04    0.66      33.1  T
     SCC iter.                  ...        0 min,  3.722 sec
     gradient                   ...        0 min,  0.210 sec
 * total energy  :  -333.2590526 Eh     change       -0.2145946E-02 Eh
   gradient norm :     0.0082406 Eh/α   predicted    -0.1907190E-02 ( -11.13%)
   displ. norm   :     0.7945457 α      lambda       -0.2228931E-02
   maximum displ.:     0.3329604 α      in ANC's #18, #21, #16, ...

........................................................................
.............................. CYCLE   11 ..............................
........................................................................

 iter      E             dE          RMSdq      gap      omega  full diag
   1   -338.1396068 -0.338140E+03  0.476E-02    0.66       0.0  T
   2   -338.1032468  0.363600E-01  0.259E-01    0.60       1.0  T
   3   -338.1330289 -0.297821E-01  0.114E-01    0.64       1.0  T
   4   -338.1295013  0.352763E-02  0.144E-01    0.66       1.0  T
   5   -338.1313701 -0.186883E-02  0.129E-01    0.63       1.0  T
   6   -338.1382970 -0.692688E-02  0.566E-02    0.65       1.0  T
   7   -338.1398388 -0.154180E-02  0.103E-02    0.66       1.0  T
   8   -338.1398857 -0.469762E-04  0.393E-03    0.66       1.7  T
   9   -338.1398924 -0.660695E-05  0.160E-03    0.66       4.2  T
  10   -338.1398914  0.909447E-06  0.180E-03    0.66       3.7  T
  11   -338.1398932 -0.173670E-05  0.470E-04    0.66      14.2  T
  12   -338.1398932 -0.414076E-07  0.286E-04    0.66      23.3  T
  13   -338.1398932 -0.221732E-07  0.159E-04    0.66      42.0  T
     SCC iter.                  ...        0 min,  2.762 sec
     gradient                   ...        0 min,  0.208 sec
 * total energy  :  -333.2610325 Eh     change       -0.1979928E-02 Eh
   gradient norm :     0.0071496 Eh/α   predicted    -0.1818042E-02 (  -8.18%)
   displ. norm   :     0.8128365 α      lambda       -0.1945804E-02
   maximum displ.:     0.3404790 α      in ANC's #18, #21, #16, ...

........................................................................
.............................. CYCLE   12 ..............................
........................................................................

 iter      E             dE          RMSdq      gap      omega  full diag
   1   -338.1383390 -0.338138E+03  0.418E-02    0.66       0.0  T
   2   -338.1274185  0.109205E-01  0.150E-01    0.63       1.0  T
   3   -338.1336159 -0.619746E-02  0.997E-02    0.66       1.0  T
   4   -338.0916635  0.419525E-01  0.279E-01    0.60       1.0  T
   5   -338.1378667 -0.462032E-01  0.311E-02    0.65       1.0  T
   6   -338.1327791  0.508768E-02  0.107E-01    0.64       1.0  T
   7   -338.1383232 -0.554412E-02  0.106E-02    0.65       1.0  T
   8   -338.1383832 -0.600541E-04  0.315E-03    0.66       2.1  T
   9   -338.1383865 -0.328669E-05  0.157E-03    0.66       4.3  T
  10   -338.1383864  0.880477E-07  0.153E-03    0.66       4.4  T
  11   -338.1383873 -0.918602E-06  0.559E-04    0.66      11.9  T
  12   -338.1383874 -0.728091E-07  0.388E-04    0.66      17.2  T
     SCC iter.                  ...        0 min,  2.782 sec
     gradient                   ...        0 min,  0.431 sec
 * total energy  :  -333.2627570 Eh     change       -0.1724486E-02 Eh
   gradient norm :     0.0057309 Eh/α   predicted    -0.1615709E-02 (  -6.31%)
   displ. norm   :     0.8182333 α      lambda       -0.1646004E-02
   maximum displ.:     0.3429741 α      in ANC's #18, #21, #16, ...

........................................................................
.............................. CYCLE   13 ..............................
........................................................................

 iter      E             dE          RMSdq      gap      omega  full diag
   1   -338.1377823 -0.338138E+03  0.419E-02    0.66       0.0  T
   2   -338.1149386  0.228437E-01  0.201E-01    0.62       1.0  T
   3   -338.1339656 -0.190270E-01  0.833E-02    0.65       1.0  T
   4   -338.0969056  0.370599E-01  0.282E-01    0.62       1.0  T
   5   -338.1361609 -0.392553E-01  0.547E-02    0.65       1.0  T
   6   -338.1269881  0.917277E-02  0.149E-01    0.63       1.0  T
   7   -338.1377229 -0.107348E-01  0.179E-02    0.65       1.0  T
   8   -338.1379069 -0.183963E-03  0.205E-03    0.65       3.3  T
   9   -338.1379060  0.872196E-06  0.203E-03    0.65       3.3  T
  10   -338.1379071 -0.110314E-05  0.141E-03    0.65       4.7  T
  11   -338.1379073 -0.246466E-06  0.111E-03    0.65       6.0  T
  12   -338.1379080 -0.673997E-06  0.243E-04    0.65      27.5  T
  13   -338.1379080  0.564365E-07  0.365E-04    0.65      18.3  T
     SCC iter.                  ...        0 min,  3.455 sec
     gradient                   ...        0 min,  0.226 sec
 * total energy  :  -333.2642208 Eh     change       -0.1463826E-02 Eh
   gradient norm :     0.0051154 Eh/α   predicted    -0.1374015E-02 (  -6.14%)
   displ. norm   :     0.8196058 α      lambda       -0.1409168E-02
   maximum displ.:     0.3430808 α      in ANC's #18, #21, #17, ...

........................................................................
.............................. CYCLE   14 ..............................
........................................................................

 iter      E             dE          RMSdq      gap      omega  full diag
   1   -338.1380473 -0.338138E+03  0.487E-02    0.66       0.0  T
   2   -338.0967340  0.413132E-01  0.286E-01    0.56       1.0  T
   3   -338.1322833 -0.355492E-01  0.112E-01    0.65       1.0  T
   4   -338.1314624  0.820853E-03  0.114E-01    0.63       1.0  T
   5   -338.1099514  0.215110E-01  0.231E-01    0.64       1.0  T
   6   -338.1379152 -0.279638E-01  0.369E-02    0.65       1.0  T
   7   -338.1384006 -0.485457E-03  0.172E-02    0.65       1.0  T
   8   -338.1385552 -0.154549E-03  0.187E-03    0.65       3.6  T
   9   -338.1385537  0.150752E-05  0.226E-03    0.65       3.0  T
  10   -338.1385529  0.763441E-06  0.244E-03    0.65       2.7  T
  11   -338.1385558 -0.287776E-05  0.591E-04    0.65      11.3  T
  12   -338.1385557  0.879588E-07  0.666E-04    0.65      10.0  T
  13   -338.1385552  0.521965E-06  0.115E-03    0.65       5.8  T
  14   -338.1385559 -0.752682E-06  0.119E-04    0.65      55.9  T
     SCC iter.                  ...        0 min,  2.834 sec
     gradient                   ...        0 min,  0.216 sec
 * total energy  :  -333.2654814 Eh     change       -0.1260527E-02 Eh
   gradient norm :     0.0048940 Eh/α   predicted    -0.1177891E-02 (  -6.56%)
   displ. norm   :     0.8217944 α      lambda       -0.1233851E-02
   maximum displ.:     0.3414155 α      in ANC's #18, #17, #21, ...

........................................................................
.............................. CYCLE   15 ..............................
........................................................................

 iter      E             dE          RMSdq      gap      omega  full diag
   1   -338.1393519 -0.338139E+03  0.499E-02    0.65       0.0  T
   2   -338.0913930  0.479589E-01  0.312E-01    0.55       1.0  T
   3   -338.1269647 -0.355717E-01  0.160E-01    0.64       1.0  T
   4   -338.1364123 -0.944763E-02  0.808E-02    0.64       1.0  T
   5   -338.1016159  0.347964E-01  0.265E-01    0.63       1.0  T
   6   -338.1393463 -0.377304E-01  0.340E-02    0.65       1.0  T
   7   -338.1397665 -0.420137E-03  0.174E-02    0.65       1.0  T
   8   -338.1399153 -0.148805E-03  0.194E-03    0.65       3.4  T
   9   -338.1399116  0.369320E-05  0.321E-03    0.65       2.1  T
  10   -338.1399132 -0.166946E-05  0.253E-03    0.65       2.6  T
  11   -338.1399157 -0.243272E-05  0.121E-03    0.65       5.5  T
  12   -338.1399159 -0.182424E-06  0.976E-04    0.65       6.8  T
  13   -338.1399160 -0.123127E-06  0.830E-04    0.65       8.1  T
     SCC iter.                  ...        0 min,  3.654 sec
     gradient                   ...        0 min,  0.221 sec
 * total energy  :  -333.2665849 Eh     change       -0.1103526E-02 Eh
   gradient norm :     0.0044358 Eh/α   predicted    -0.1033564E-02 (  -6.34%)
   displ. norm   :     0.8210663 α      lambda       -0.1074013E-02
   maximum displ.:     0.3374957 α      in ANC's #18, #17, #21, ...

........................................................................
.............................. CYCLE   16 ..............................
........................................................................

 iter      E             dE          RMSdq      gap      omega  full diag
   1   -338.1400158 -0.338140E+03  0.607E-02    0.65       0.0  T
   2   -338.0847480  0.552678E-01  0.341E-01    0.50       1.0  T
   3   -338.1031977 -0.184497E-01  0.270E-01    0.61       1.0  T
   4   -338.1388425 -0.356449E-01  0.692E-02    0.64       1.0  T
   5   -338.1259485  0.128940E-01  0.165E-01    0.65       1.0  T
   6   -338.1380010 -0.120525E-01  0.789E-02    0.65       1.0  T
   7   -338.1410261 -0.302509E-02  0.165E-02    0.65       1.0  T
   8   -338.1411760 -0.149873E-03  0.296E-03    0.65       2.3  T
   9   -338.1411781 -0.211324E-05  0.226E-03    0.65       3.0  T
  10   -338.1411765  0.159591E-05  0.274E-03    0.65       2.4  T
  11   -338.1411770 -0.548930E-06  0.240E-03    0.65       2.8  T
  12   -338.1411794 -0.239003E-05  0.125E-03    0.65       5.4  T
  13   -338.1411802 -0.768766E-06  0.310E-04    0.65      21.5  T
  14   -338.1411802 -0.290668E-07  0.175E-04    0.65      38.2  T
     SCC iter.                  ...        0 min,  1.925 sec
     gradient                   ...        0 min,  0.225 sec
 * total energy  :  -333.2675390 Eh     change       -0.9540718E-03 Eh
   gradient norm :     0.0038075 Eh/α   predicted    -0.8990298E-03 (  -5.77%)
   displ. norm   :     0.8138537 α      lambda       -0.9078133E-03
   maximum displ.:     0.3280342 α      in ANC's #18, #17, #21, ...

........................................................................
.............................. CYCLE   17 ..............................
........................................................................

 iter      E             dE          RMSdq      gap      omega  full diag
   1   -338.1415466 -0.338142E+03  0.506E-02    0.65       0.0  T
   2   -338.0889483  0.525984E-01  0.330E-01    0.54       1.0  T
   3   -338.1281067 -0.391584E-01  0.169E-01    0.63       1.0  T
   4   -338.1393830 -0.112764E-01  0.744E-02    0.64       1.0  T
   5   -338.1062497  0.331334E-01  0.247E-01    0.63       1.0  T
   6   -338.1414506 -0.352010E-01  0.370E-02    0.64       1.0  T
   7   -338.1420226 -0.571952E-03  0.113E-02    0.65       1.0  T
   8   -338.1420721 -0.495589E-04  0.500E-03    0.65       1.3  T
   9   -338.1420809 -0.873830E-05  0.302E-03    0.65       2.2  T
  10   -338.1420847 -0.378442E-05  0.935E-04    0.65       7.1  T
  11   -338.1420826  0.207434E-05  0.219E-03    0.65       3.0  T
  12   -338.1420848 -0.216010E-05  0.576E-04    0.65      11.6  T
  13   -338.1420849 -0.972493E-07  0.333E-04    0.65      20.1  T
  14   -338.1420848  0.171752E-07  0.377E-04    0.65      17.7  T
     SCC iter.                  ...        0 min,  3.521 sec
     gradient                   ...        0 min,  0.210 sec
 * total energy  :  -333.2683371 Eh     change       -0.7981656E-03 Eh
   gradient norm :     0.0035808 Eh/α   predicted    -0.7545575E-03 (  -5.46%)
   displ. norm   :     0.7995729 α      lambda       -0.7472277E-03
   maximum displ.:     0.3170006 α      in ANC's #18, #17, #21, ...

........................................................................
.............................. CYCLE   18 ..............................
........................................................................

 iter      E             dE          RMSdq      gap      omega  full diag
   1   -338.1413909 -0.338141E+03  0.577E-02    0.65       0.0  T
   2   -338.0903566  0.510344E-01  0.329E-01    0.49       1.0  T
   3   -338.1086025 -0.182460E-01  0.261E-01    0.61       1.0  T
   4   -338.1420059 -0.334033E-01  0.317E-02    0.64       1.0  T
   5   -338.1010662  0.409397E-01  0.268E-01    0.62       1.0  T
   6   -338.1413080 -0.402418E-01  0.469E-02    0.65       1.0  T
   7   -338.1422690 -0.960940E-03  0.992E-03    0.65       1.0  T
   8   -338.1422771 -0.813263E-05  0.960E-03    0.64       1.0  T
   9   -338.1423148 -0.377414E-04  0.340E-03    0.65       2.0  T
  10   -338.1423185 -0.369525E-05  0.219E-03    0.65       3.0  T
  11   -338.1423208 -0.221596E-05  0.985E-04    0.65       6.8  T
  12   -338.1423211 -0.306982E-06  0.453E-04    0.65      14.8  T
  13   -338.1423211 -0.623605E-07  0.285E-04    0.65      23.4  T
     SCC iter.                  ...        0 min,  2.916 sec
     gradient                   ...        0 min,  0.256 sec
 * total energy  :  -333.2689894 Eh     change       -0.6523038E-03 Eh
   gradient norm :     0.0038410 Eh/α   predicted    -0.6124743E-03 (  -6.11%)
   displ. norm   :     0.7776755 α      lambda       -0.6155898E-03
   maximum displ.:     0.2992240 α      in ANC's #18, #17, #21, ...

........................................................................
.............................. CYCLE   19 ..............................
........................................................................

 iter      E             dE          RMSdq      gap      omega  full diag
   1   -338.1423712 -0.338142E+03  0.482E-02    0.64       0.0  T
   2   -338.1038719  0.384993E-01  0.281E-01    0.54       1.0  T
   3   -338.1296290 -0.257572E-01  0.164E-01    0.63       1.0  T
   4   -338.1410476 -0.114186E-01  0.631E-02    0.63       1.0  T
   5   -338.1308586  0.101889E-01  0.140E-01    0.64       1.0  T
   6   -338.1418641 -0.110055E-01  0.446E-02    0.64       1.0  T
   7   -338.1427901 -0.926018E-03  0.943E-03    0.64       1.0  T
   8   -338.1428318 -0.417058E-04  0.191E-03    0.64       3.5  T
   9   -338.1428303  0.158757E-05  0.254E-03    0.64       2.6  T
  10   -338.1428316 -0.130487E-05  0.182E-03    0.64       3.7  T
  11   -338.1428325 -0.990319E-06  0.108E-03    0.64       6.2  T
  12   -338.1428326 -0.449127E-07  0.993E-04    0.64       6.7  T
  13   -338.1428328 -0.227215E-06  0.739E-04    0.64       9.0  T
     SCC iter.                  ...        0 min,  2.114 sec
     gradient                   ...        0 min,  0.205 sec
 * total energy  :  -333.2695239 Eh     change       -0.5344561E-03 Eh
   gradient norm :     0.0037400 Eh/α   predicted    -0.4939470E-03 (  -7.58%)
   displ. norm   :     0.7547772 α      lambda       -0.5168849E-03
   maximum displ.:     0.2856731 α      in ANC's #18, #17, #21, ...

........................................................................
.............................. CYCLE   20 ..............................
........................................................................

 iter      E             dE          RMSdq      gap      omega  full diag
   1   -338.1412229 -0.338141E+03  0.665E-02    0.64       0.0  T
   2   -338.1019292  0.392938E-01  0.291E-01    0.44       1.0  T
   3   -338.0936972  0.823201E-02  0.314E-01    0.59       1.0  T
   4   -338.1379572 -0.442601E-01  0.956E-02    0.62       1.0  T
   5   -338.1330584  0.489885E-02  0.135E-01    0.62       1.0  T
   6   -338.1030651  0.299933E-01  0.278E-01    0.62       1.0  T
   7   -338.1426229 -0.395578E-01  0.198E-02    0.64       1.0  T
   8   -338.1427052 -0.822166E-04  0.151E-02    0.64       1.0  T
   9   -338.1428169 -0.111729E-03  0.235E-03    0.64       2.8  T
  10   -338.1428185 -0.156855E-05  0.129E-03    0.64       5.2  T
  11   -338.1428176  0.805749E-06  0.175E-03    0.64       3.8  T
  12   -338.1428191 -0.141700E-05  0.267E-04    0.64      25.0  T
  13   -338.1428190  0.222468E-07  0.304E-04    0.64      22.0  T
  14   -338.1428191 -0.154872E-07  0.237E-04    0.64      28.2  T
     SCC iter.                  ...        0 min,  2.057 sec
     gradient                   ...        0 min,  0.212 sec
 * total energy  :  -333.2699707 Eh     change       -0.4468159E-03 Eh
   gradient norm :     0.0038250 Eh/α   predicted    -0.4056794E-03 (  -9.21%)
   displ. norm   :     0.7254399 α      lambda       -0.4470496E-03
   maximum displ.:     0.2574454 α      in ANC's #18, #21, #17, ...
 * RMSD in coord.:     0.7953690 α      energy gain  -0.2146721E+00 Eh

generating ANC from model Hessian ...
Using Lindh-Hessian (1995)
 Shifting diagonal of input Hessian by    1.0026832126212949E-002
 Lowest  eigenvalues of input Hessian
    0.010000    0.010008    0.010020    0.000000    0.000000    0.000000
    0.000000    0.000000    0.000000    0.010030    0.010059    0.010085
    0.010088    0.010107    0.010114    0.010117    0.010132    0.010170
 Highest eigenvalues
    2.184168    2.192504    2.314191    2.315978    2.331955    2.344787


........................................................................
.............................. CYCLE   21 ..............................
........................................................................

 iter      E             dE          RMSdq      gap      omega  full diag
   1   -338.1442243 -0.338144E+03  0.401E-02    0.64       0.0  T
   2   -338.1178282  0.263961E-01  0.226E-01    0.57       1.0  T
   3   -338.1401433 -0.223150E-01  0.867E-02    0.63       1.0  T
   4   -338.1314711  0.867219E-02  0.157E-01    0.63       1.0  T
   5   -338.1315086 -0.375307E-04  0.161E-01    0.60       1.0  T
   6   -338.1427959 -0.112872E-01  0.536E-02    0.63       1.0  T
   7   -338.1444082 -0.161231E-02  0.726E-03    0.64       1.0  T
   8   -338.1444170 -0.885363E-05  0.566E-03    0.64       1.2  T
   9   -338.1444332 -0.162266E-04  0.127E-03    0.64       5.3  T
  10   -338.1444328  0.401522E-06  0.143E-03    0.64       4.7  T
  11   -338.1444336 -0.707962E-06  0.717E-04    0.64       9.3  T
  12   -338.1444337 -0.124808E-06  0.466E-04    0.64      14.3  T
     SCC iter.                  ...        0 min,  2.509 sec
     gradient                   ...        0 min,  0.230 sec
 * total energy  :  -333.2703503 Eh     change       -0.3795979E-03 Eh
   gradient norm :     0.0034369 Eh/α   predicted     0.0000000E+00 (-100.00%)
   displ. norm   :     0.0686608 α      lambda       -0.7719060E-04
   maximum displ.:     0.0251087 α      in ANC's #10, #34, #18, ...

........................................................................
.............................. CYCLE   22 ..............................
........................................................................

 iter      E             dE          RMSdq      gap      omega  full diag
   1   -338.1443557 -0.338144E+03  0.124E-02    0.64       0.0  T
   2   -338.1208122  0.235435E-01  0.214E-01    0.62       1.0  T
   3   -338.1441762 -0.233640E-01  0.216E-02    0.64       1.0  T
   4   -338.1441354  0.407462E-04  0.233E-02    0.64       1.0  T
   5   -338.1439402  0.195249E-03  0.292E-02    0.64       1.0  T
   6   -338.1443473 -0.407090E-03  0.111E-02    0.64       1.0  T
   7   -338.1444157 -0.684424E-04  0.168E-03    0.64       4.0  T
   8   -338.1444154  0.291617E-06  0.164E-03    0.64       4.1  T
   9   -338.1444169 -0.145762E-05  0.184E-04    0.64      36.4  T
  10   -338.1444168  0.136139E-07  0.224E-04    0.64      29.9  T
  11   -338.1444169 -0.195659E-07  0.743E-05    0.64      90.0  T
     SCC iter.                  ...        0 min,  5.287 sec
     gradient                   ...        0 min,  0.227 sec
 * total energy  :  -333.2704212 Eh     change       -0.7085236E-04 Eh
   gradient norm :     0.0019330 Eh/α   predicted    -0.3927462E-04 ( -44.57%)
   displ. norm   :     0.5447349 α      lambda       -0.3242750E-03
   maximum displ.:     0.1976566 α      in ANC's #10, #34, #18, ...

........................................................................
.............................. CYCLE   23 ..............................
........................................................................

 iter      E             dE          RMSdq      gap      omega  full diag
   1   -338.1408451 -0.338141E+03  0.716E-02    0.63       0.0  T
   2   -338.0236032  0.117242E+00  0.496E-01    0.50       1.0  T
   3   -338.1285740 -0.104971E+00  0.170E-01    0.60       1.0  T
   4   -338.1410688 -0.124948E-01  0.593E-02    0.65       1.0  T
   5   -338.1107258  0.303430E-01  0.230E-01    0.60       1.0  T
   6   -338.1414176 -0.306918E-01  0.511E-02    0.63       1.0  T
   7   -338.1418112 -0.393639E-03  0.390E-02    0.64       1.0  T
   8   -338.1423097 -0.498477E-03  0.239E-02    0.64       1.0  T
   9   -338.1425820 -0.272282E-03  0.485E-03    0.64       1.4  T
  10   -338.1425871 -0.513716E-05  0.368E-03    0.64       1.8  T
  11   -338.1425931 -0.599733E-05  0.127E-03    0.64       5.3  T
  12   -338.1425937 -0.588466E-06  0.594E-04    0.64      11.3  T
  13   -338.1425938 -0.121595E-06  0.330E-04    0.64      20.2  T
     SCC iter.                  ...        0 min,  7.291 sec
     gradient                   ...        0 min,  0.287 sec
 * total energy  :  -333.2706706 Eh     change       -0.2494767E-03 Eh
   gradient norm :     0.0068046 Eh/α   predicted    -0.1835274E-03 ( -26.44%)
   displ. norm   :     0.1258067 α      lambda       -0.8901578E-04
   maximum displ.:     0.0522355 α      in ANC's #10, #18, #13, ...

........................................................................
.............................. CYCLE   24 ..............................
........................................................................

 iter      E             dE          RMSdq      gap      omega  full diag
   1   -338.1431222 -0.338143E+03  0.126E-02    0.64       0.0  T
   2   -338.1237059  0.194163E-01  0.187E-01    0.62       1.0  T
   3   -338.1426699 -0.189640E-01  0.311E-02    0.63       1.0  T
   4   -338.1428269 -0.157012E-03  0.254E-02    0.64       1.0  T
   5   -338.1431387 -0.311772E-03  0.916E-03    0.64       1.0  T
   6   -338.1426932  0.445493E-03  0.312E-02    0.64       1.0  T
   7   -338.1431772 -0.483994E-03  0.186E-03    0.64       3.6  T
   8   -338.1431782 -0.101458E-05  0.938E-04    0.64       7.1  T
   9   -338.1431785 -0.290540E-06  0.523E-04    0.64      12.8  T
  10   -338.1431785 -0.819708E-07  0.298E-04    0.64      22.4  T
     SCC iter.                  ...        0 min,  1.975 sec
     gradient                   ...        0 min,  0.211 sec
 * total energy  :  -333.2707521 Eh     change       -0.8148047E-04 Eh
   gradient norm :     0.0053265 Eh/α   predicted    -0.4521246E-04 ( -44.51%)
   displ. norm   :     0.4443604 α      lambda       -0.3020940E-03
   maximum displ.:     0.1857237 α      in ANC's #10, #18, #13, ...

........................................................................
.............................. CYCLE   25 ..............................
........................................................................

 iter      E             dE          RMSdq      gap      omega  full diag
   1   -338.1430813 -0.338143E+03  0.507E-02    0.64       0.0  T
   2   -338.0817791  0.613022E-01  0.345E-01    0.52       1.0  T
   3   -338.1059394 -0.241603E-01  0.280E-01    0.57       1.0  T
   4   -338.1417710 -0.358315E-01  0.645E-02    0.63       1.0  T
   5   -338.1392691  0.250184E-02  0.959E-02    0.62       1.0  T
   6   -338.1358016  0.346746E-02  0.125E-01    0.64       1.0  T
   7   -338.1432963 -0.749464E-02  0.395E-02    0.63       1.0  T
   8   -338.1440836 -0.787349E-03  0.494E-03    0.64       1.4  T
   9   -338.1440705  0.131572E-04  0.684E-03    0.64       1.0  T
  10   -338.1440864 -0.159505E-04  0.414E-03    0.64       1.6  T
  11   -338.1440933 -0.684630E-05  0.203E-03    0.64       3.3  T
  12   -338.1440953 -0.204074E-05  0.210E-04    0.64      31.8  T
  13   -338.1440952  0.123960E-06  0.527E-04    0.64      12.7  T
  14   -338.1440953 -0.127524E-06  0.137E-04    0.64      48.7  T
     SCC iter.                  ...        0 min,  1.737 sec
     gradient                   ...        0 min,  0.229 sec
 * total energy  :  -333.2709702 Eh     change       -0.2180539E-03 Eh
   gradient norm :     0.0024245 Eh/α   predicted    -0.1808726E-03 ( -17.05%)
   displ. norm   :     0.4167862 α      lambda       -0.1548058E-03
   maximum displ.:     0.1793339 α      in ANC's #10, #18, #13, ...

........................................................................
.............................. CYCLE   26 ..............................
........................................................................

 iter      E             dE          RMSdq      gap      omega  full diag
   1   -338.1434322 -0.338143E+03  0.289E-02    0.64       0.0  T
   2   -338.1163624  0.270698E-01  0.239E-01    0.58       1.0  T
   3   -338.1433185 -0.269561E-01  0.264E-02    0.64       1.0  T
   4   -338.1277077  0.156108E-01  0.170E-01    0.60       1.0  T
   5   -338.1403355 -0.126278E-01  0.750E-02    0.64       1.0  T
   6   -338.1422294 -0.189395E-02  0.501E-02    0.64       1.0  T
   7   -338.1435689 -0.133945E-02  0.706E-03    0.64       1.0  T
   8   -338.1435921 -0.232230E-04  0.222E-03    0.64       3.0  T
   9   -338.1435936 -0.148229E-05  0.125E-03    0.64       5.3  T
  10   -338.1435941 -0.547708E-06  0.540E-04    0.64      12.4  T
  11   -338.1435939  0.168109E-06  0.724E-04    0.64       9.2  T
     SCC iter.                  ...        0 min,  1.336 sec
     gradient                   ...        0 min,  0.220 sec
 * total energy  :  -333.2710899 Eh     change       -0.1196912E-03 Eh
   gradient norm :     0.0040910 Eh/α   predicted    -0.9087950E-04 ( -24.07%)
   displ. norm   :     0.4065489 α      lambda       -0.1366345E-03
   maximum displ.:     0.1809106 α      in ANC's #10, #18, #13, ...

........................................................................
.............................. CYCLE   27 ..............................
........................................................................

 iter      E             dE          RMSdq      gap      omega  full diag
   1   -338.1435186 -0.338144E+03  0.270E-02    0.64       0.0  T
   2   -338.1135589  0.299597E-01  0.239E-01    0.58       1.0  T
   3   -338.1428507 -0.292919E-01  0.418E-02    0.63       1.0  T
   4   -338.1405336  0.231718E-02  0.800E-02    0.63       1.0  T
   5   -338.1410301 -0.496578E-03  0.701E-02    0.63       1.0  T
   6   -338.1426079 -0.157780E-02  0.433E-02    0.64       1.0  T
   7   -338.1436766 -0.106868E-02  0.594E-03    0.64       1.1  T
   8   -338.1436916 -0.150177E-04  0.208E-03    0.64       3.2  T
   9   -338.1436936 -0.198553E-05  0.980E-04    0.64       6.8  T
  10   -338.1436939 -0.295168E-06  0.482E-04    0.64      13.9  T
  11   -338.1436938  0.144616E-06  0.659E-04    0.64      10.1  T
     SCC iter.                  ...        0 min,  1.657 sec
     gradient                   ...        0 min,  0.211 sec
 * total energy  :  -333.2712039 Eh     change       -0.1140177E-03 Eh
   gradient norm :     0.0042000 Eh/α   predicted    -0.7964937E-04 ( -30.14%)
   displ. norm   :     0.4523547 α      lambda       -0.1662131E-03
   maximum displ.:     0.2076348 α      in ANC's #10, #18, #13, ...

........................................................................
.............................. CYCLE   28 ..............................
........................................................................

 iter      E             dE          RMSdq      gap      omega  full diag
   1   -338.1440936 -0.338144E+03  0.340E-02    0.64       0.0  T
   2   -338.0935438  0.505498E-01  0.296E-01    0.58       1.0  T
   3   -338.1294256 -0.358818E-01  0.174E-01    0.60       1.0  T
   4   -338.1443981 -0.149725E-01  0.197E-02    0.64       1.0  T
   5   -338.1316553  0.127428E-01  0.160E-01    0.61       1.0  T
   6   -338.1441407 -0.124854E-01  0.275E-02    0.64       1.0  T
   7   -338.1445139 -0.373249E-03  0.559E-03    0.64       1.2  T
   8   -338.1445010  0.128883E-04  0.730E-03    0.64       1.0  T
   9   -338.1445314 -0.303912E-04  0.611E-04    0.64      10.9  T
  10   -338.1445310  0.381778E-06  0.981E-04    0.64       6.8  T
  11   -338.1445313 -0.248409E-06  0.676E-04    0.64       9.9  T
     SCC iter.                  ...        0 min,  1.451 sec
     gradient                   ...        0 min,  0.208 sec
 * total energy  :  -333.2713403 Eh     change       -0.1364659E-03 Eh
   gradient norm :     0.0030910 Eh/α   predicted    -0.1001159E-03 ( -26.64%)
   displ. norm   :     0.4760424 α      lambda       -0.1620918E-03
   maximum displ.:     0.2234558 α      in ANC's #10, #13, #18, ...

........................................................................
.............................. CYCLE   29 ..............................
........................................................................

 iter      E             dE          RMSdq      gap      omega  full diag
   1   -338.1450201 -0.338145E+03  0.252E-02    0.64       0.0  T
   2   -338.1049929  0.400272E-01  0.262E-01    0.61       1.0  T
   3   -338.1436509 -0.386581E-01  0.562E-02    0.63       1.0  T
   4   -338.1425349  0.111606E-02  0.738E-02    0.64       1.0  T
   5   -338.1450397 -0.250481E-02  0.136E-02    0.64       1.0  T
   6   -338.1451040 -0.643609E-04  0.751E-03    0.64       1.0  T
   7   -338.1447601  0.343986E-03  0.266E-02    0.64       1.0  T
   8   -338.1451315 -0.371476E-03  0.178E-03    0.64       3.8  T
   9   -338.1451331 -0.157718E-05  0.432E-04    0.64      15.5  T
  10   -338.1451330  0.880794E-07  0.491E-04    0.64      13.6  T
  11   -338.1451331 -0.997951E-07  0.172E-04    0.64      38.8  T
     SCC iter.                  ...        0 min,  2.878 sec
     gradient                   ...        0 min,  0.255 sec
 * total energy  :  -333.2714704 Eh     change       -0.1300119E-03 Eh
   gradient norm :     0.0025609 Eh/α   predicted    -0.9941489E-04 ( -23.53%)
   displ. norm   :     0.4471983 α      lambda       -0.1340936E-03
   maximum displ.:     0.2136331 α      in ANC's #10, #13, #18, ...

........................................................................
.............................. CYCLE   30 ..............................
........................................................................

 iter      E             dE          RMSdq      gap      omega  full diag
   1   -338.1455786 -0.338146E+03  0.235E-02    0.64       0.0  T
   2   -338.1212872  0.242915E-01  0.209E-01    0.60       1.0  T
   3   -338.1435437 -0.222566E-01  0.637E-02    0.63       1.0  T
   4   -338.1443043 -0.760553E-03  0.535E-02    0.64       1.0  T
   5   -338.1442625  0.418372E-04  0.529E-02    0.64       1.0  T
   6   -338.1447983 -0.535877E-03  0.402E-02    0.64       1.0  T
   7   -338.1456696 -0.871227E-03  0.310E-03    0.64       2.2  T
   8   -338.1456729 -0.335451E-05  0.141E-03    0.64       4.7  T
   9   -338.1456738 -0.936098E-06  0.414E-04    0.64      16.1  T
  10   -338.1456738  0.344549E-07  0.383E-04    0.64      17.4  T
     SCC iter.                  ...        0 min,  1.826 sec
     gradient                   ...        0 min,  0.221 sec
 * total energy  :  -333.2715778 Eh     change       -0.1074903E-03 Eh
   gradient norm :     0.0029424 Eh/α   predicted    -0.8045540E-04 ( -25.15%)
   displ. norm   :     0.4190282 α      lambda       -0.1160008E-03
   maximum displ.:     0.2028603 α      in ANC's #10, #13, #2, ...

........................................................................
.............................. CYCLE   31 ..............................
........................................................................

 iter      E             dE          RMSdq      gap      omega  full diag
   1   -338.1456053 -0.338146E+03  0.220E-02    0.64       0.0  T
   2   -338.1197055  0.258998E-01  0.228E-01    0.60       1.0  T
   3   -338.1447820 -0.250765E-01  0.410E-02    0.63       1.0  T
   4   -338.1420143  0.276770E-02  0.800E-02    0.64       1.0  T
   5   -338.1395980  0.241634E-02  0.107E-01    0.64       1.0  T
   6   -338.1455276 -0.592965E-02  0.189E-02    0.64       1.0  T
   7   -338.1456895 -0.161867E-03  0.308E-03    0.64       2.2  T
   8   -338.1456933 -0.383053E-05  0.118E-03    0.64       5.7  T
   9   -338.1456938 -0.520660E-06  0.481E-04    0.64      13.9  T
  10   -338.1456939 -0.448914E-07  0.285E-04    0.64      23.4  T
     SCC iter.                  ...        0 min,  1.666 sec
     gradient                   ...        0 min,  0.212 sec
 * total energy  :  -333.2716739 Eh     change       -0.9600415E-04 Eh
   gradient norm :     0.0027481 Eh/α   predicted    -0.6818503E-04 ( -28.98%)
   displ. norm   :     0.4119967 α      lambda       -0.1203548E-03
   maximum displ.:     0.2005879 α      in ANC's #10, #2, #13, ...

........................................................................
.............................. CYCLE   32 ..............................
........................................................................

 iter      E             dE          RMSdq      gap      omega  full diag
   1   -338.1461991 -0.338146E+03  0.214E-02    0.64       0.0  T
   2   -338.1203876  0.258114E-01  0.225E-01    0.60       1.0  T
   3   -338.1455469 -0.251593E-01  0.372E-02    0.63       1.0  T
   4   -338.1422083  0.333864E-02  0.853E-02    0.64       1.0  T
   5   -338.1425152 -0.306868E-03  0.840E-02    0.64       1.0  T
   6   -338.1459488 -0.343358E-02  0.262E-02    0.64       1.0  T
   7   -338.1462785 -0.329720E-03  0.244E-03    0.64       2.7  T
   8   -338.1462805 -0.198571E-05  0.123E-03    0.64       5.4  T
   9   -338.1462810 -0.589895E-06  0.470E-04    0.64      14.2  T
  10   -338.1462811 -0.151615E-07  0.368E-04    0.64      18.2  T
     SCC iter.                  ...        0 min,  2.188 sec
     gradient                   ...        0 min,  0.209 sec
 * total energy  :  -333.2717721 Eh     change       -0.9820223E-04 Eh
   gradient norm :     0.0027058 Eh/α   predicted    -0.7040003E-04 ( -28.31%)
   displ. norm   :     0.4333161 α      lambda       -0.1207592E-03
   maximum displ.:     0.2134455 α      in ANC's #10, #2, #13, ...

........................................................................
.............................. CYCLE   33 ..............................
........................................................................

 iter      E             dE          RMSdq      gap      omega  full diag
   1   -338.1455224 -0.338146E+03  0.176E-02    0.64       0.0  T
   2   -338.1401291  0.539325E-02  0.104E-01    0.62       1.0  T
   3   -338.1452015 -0.507233E-02  0.265E-02    0.64       1.0  T
   4   -338.1311023  0.140991E-01  0.156E-01    0.62       1.0  T
   5   -338.1453696 -0.142673E-01  0.184E-02    0.64       1.0  T
   6   -338.1421619  0.320766E-02  0.827E-02    0.62       1.0  T
   7   -338.1455376 -0.337565E-02  0.236E-03    0.64       2.8  T
   8   -338.1455399 -0.235872E-05  0.885E-04    0.64       7.5  T
   9   -338.1455401 -0.176655E-06  0.526E-04    0.64      12.7  T
  10   -338.1455401 -0.249550E-07  0.381E-04    0.64      17.5  T
     SCC iter.                  ...        0 min,  1.793 sec
     gradient                   ...        0 min,  0.202 sec
 * total energy  :  -333.2718681 Eh     change       -0.9604337E-04 Eh
   gradient norm :     0.0026454 Eh/α   predicted    -0.7172089E-04 ( -25.32%)
   displ. norm   :     0.4117954 α      lambda       -0.1139029E-03
   maximum displ.:     0.1992542 α      in ANC's #10, #2, #13, ...

........................................................................
.............................. CYCLE   34 ..............................
........................................................................

 iter      E             dE          RMSdq      gap      omega  full diag
   1   -338.1464021 -0.338146E+03  0.174E-02    0.63       0.0  T
   2   -338.1394746  0.692746E-02  0.113E-01    0.62       1.0  T
   3   -338.1458252 -0.635053E-02  0.333E-02    0.63       1.0  T
   4   -338.1359166  0.990855E-02  0.139E-01    0.63       1.0  T
   5   -338.1463542 -0.104376E-01  0.125E-02    0.64       1.0  T
   6   -338.1461446  0.209599E-03  0.230E-02    0.63       1.0  T
   7   -338.1464155 -0.270912E-03  0.367E-03    0.63       1.8  T
   8   -338.1464213 -0.579220E-05  0.845E-04    0.63       7.9  T
   9   -338.1464214 -0.142520E-06  0.557E-04    0.63      12.0  T
  10   -338.1464215 -0.782055E-07  0.307E-04    0.63      21.8  T
     SCC iter.                  ...        0 min,  1.174 sec
     gradient                   ...        0 min,  0.228 sec
 * total energy  :  -333.2719552 Eh     change       -0.8712214E-04 Eh
   gradient norm :     0.0033245 Eh/α   predicted    -0.6662880E-04 ( -23.52%)
   displ. norm   :     0.4067090 α      lambda       -0.1070456E-03
   maximum displ.:     0.2015677 α      in ANC's #10, #2, #13, ...

........................................................................
.............................. CYCLE   35 ..............................
........................................................................

 iter      E             dE          RMSdq      gap      omega  full diag
   1   -338.1451535 -0.338145E+03  0.192E-02    0.63       0.0  T
   2   -338.1113629  0.337906E-01  0.247E-01    0.61       1.0  T
   3   -338.1446786 -0.333157E-01  0.350E-02    0.63       1.0  T
   4   -338.1437983  0.880291E-03  0.542E-02    0.63       1.0  T
   5   -338.1451987 -0.140041E-02  0.112E-02    0.63       1.0  T
   6   -338.1439307  0.126804E-02  0.489E-02    0.62       1.0  T
   7   -338.1452447 -0.131404E-02  0.476E-03    0.63       1.4  T
   8   -338.1452546 -0.982935E-05  0.201E-03    0.63       3.3  T
   9   -338.1452568 -0.220491E-05  0.507E-04    0.63      13.2  T
  10   -338.1452566  0.186552E-06  0.678E-04    0.63       9.9  T
  11   -338.1452568 -0.206577E-06  0.236E-04    0.63      28.4  T
     SCC iter.                  ...        0 min,  1.519 sec
     gradient                   ...        0 min,  0.220 sec
 * total energy  :  -333.2720405 Eh     change       -0.8532143E-04 Eh
   gradient norm :     0.0029185 Eh/α   predicted    -0.6238185E-04 ( -26.89%)
   displ. norm   :     0.4058101 α      lambda       -0.1112798E-03
   maximum displ.:     0.1981605 α      in ANC's #10, #2, #13, ...

........................................................................
.............................. CYCLE   36 ..............................
........................................................................

 iter      E             dE          RMSdq      gap      omega  full diag
   1   -338.1451356 -0.338145E+03  0.264E-02    0.63       0.0  T
   2   -338.0864905  0.586451E-01  0.334E-01    0.58       1.0  T
   3   -338.1423644 -0.558739E-01  0.752E-02    0.62       1.0  T
   4   -338.1451712 -0.280678E-02  0.231E-02    0.63       1.0  T
   5   -338.1418869  0.328426E-02  0.816E-02    0.62       1.0  T
   6   -338.1453661 -0.347917E-02  0.106E-02    0.63       1.0  T
   7   -338.1453941 -0.280078E-04  0.704E-03    0.63       1.0  T
   8   -338.1454217 -0.276138E-04  0.173E-03    0.63       3.9  T
   9   -338.1454220 -0.261628E-06  0.154E-03    0.63       4.3  T
  10   -338.1454222 -0.199471E-06  0.139E-03    0.63       4.8  T
  11   -338.1454224 -0.194421E-06  0.125E-03    0.63       5.3  T
  12   -338.1454231 -0.715608E-06  0.593E-04    0.63      11.3  T
  13   -338.1454233 -0.209260E-06  0.799E-05    0.63      83.6  T
     SCC iter.                  ...        0 min,  1.575 sec
     gradient                   ...        0 min,  0.210 sec
 * total energy  :  -333.2721326 Eh     change       -0.9209172E-04 Eh
   gradient norm :     0.0025979 Eh/α   predicted    -0.6480578E-04 ( -29.63%)
   displ. norm   :     0.4448622 α      lambda       -0.1256325E-03
   maximum displ.:     0.2168175 α      in ANC's #10, #2, #13, ...

........................................................................
.............................. CYCLE   37 ..............................
........................................................................

 iter      E             dE          RMSdq      gap      omega  full diag
   1   -338.1451706 -0.338145E+03  0.259E-02    0.63       0.0  T
   2   -338.0848839  0.602866E-01  0.341E-01    0.58       1.0  T
   3   -338.1448515 -0.599676E-01  0.325E-02    0.62       1.0  T
   4   -338.1427401  0.211143E-02  0.687E-02    0.63       1.0  T
   5   -338.1438348 -0.109473E-02  0.554E-02    0.63       1.0  T
   6   -338.1453021 -0.146725E-02  0.155E-02    0.63       1.0  T
   7   -338.1454084 -0.106352E-03  0.396E-03    0.63       1.7  T
   8   -338.1454159 -0.746058E-05  0.121E-03    0.63       5.5  T
   9   -338.1454163 -0.390909E-06  0.712E-04    0.63       9.4  T
  10   -338.1454164 -0.126196E-06  0.454E-04    0.63      14.7  T
     SCC iter.                  ...        0 min,  1.250 sec
     gradient                   ...        0 min,  0.203 sec
 * total energy  :  -333.2722360 Eh     change       -0.1033987E-03 Eh
   gradient norm :     0.0029493 Eh/α   predicted    -0.7525144E-04 ( -27.22%)
   displ. norm   :     0.4771825 α      lambda       -0.1277899E-03
   maximum displ.:     0.2313838 α      in ANC's #10, #2, #13, ...

........................................................................
.............................. CYCLE   38 ..............................
........................................................................

 iter      E             dE          RMSdq      gap      omega  full diag
   1   -338.1455629 -0.338146E+03  0.200E-02    0.63       0.0  T
   2   -338.1157309  0.298319E-01  0.233E-01    0.61       1.0  T
   3   -338.1453123 -0.295813E-01  0.272E-02    0.63       1.0  T
   4   -338.1413560  0.395622E-02  0.928E-02    0.63       1.0  T
   5   -338.1455483 -0.419231E-02  0.140E-02    0.63       1.0  T
   6   -338.1426242  0.292410E-02  0.735E-02    0.62       1.0  T
   7   -338.1456440 -0.301973E-02  0.178E-03    0.63       3.8  T
   8   -338.1456447 -0.699031E-06  0.105E-03    0.63       6.4  T
   9   -338.1456450 -0.309758E-06  0.520E-04    0.63      12.8  T
  10   -338.1456450 -0.316595E-07  0.381E-04    0.63      17.5  T
     SCC iter.                  ...        0 min,  1.335 sec
     gradient                   ...        0 min,  0.203 sec
 * total energy  :  -333.2723428 Eh     change       -0.1068094E-03 Eh
   gradient norm :     0.0035821 Eh/α   predicted    -0.7844490E-04 ( -26.56%)
   displ. norm   :     0.5111820 α      lambda       -0.1324359E-03
   maximum displ.:     0.2465305 α      in ANC's #10, #2, #13, ...

........................................................................
.............................. CYCLE   39 ..............................
........................................................................

 iter      E             dE          RMSdq      gap      omega  full diag
   1   -338.1458042 -0.338146E+03  0.180E-02    0.63       0.0  T
   2   -338.1406334  0.517080E-02  0.962E-02    0.63       1.0  T
   3   -338.1449847 -0.435134E-02  0.384E-02    0.63       1.0  T
   4   -338.1359459  0.903880E-02  0.135E-01    0.61       1.0  T
   5   -338.1457053 -0.975944E-02  0.161E-02    0.63       1.0  T
   6   -338.1440937  0.161168E-02  0.593E-02    0.62       1.0  T
   7   -338.1457994 -0.170578E-02  0.632E-03    0.63       1.1  T
   8   -338.1458192 -0.197380E-04  0.114E-03    0.63       5.9  T
   9   -338.1458198 -0.584846E-06  0.392E-04    0.63      17.0  T
  10   -338.1458197  0.527156E-07  0.412E-04    0.63      16.2  T
     SCC iter.                  ...        0 min,  1.199 sec
     gradient                   ...        0 min,  0.225 sec
 * total energy  :  -333.2724548 Eh     change       -0.1119407E-03 Eh
   gradient norm :     0.0036037 Eh/α   predicted    -0.8352356E-04 ( -25.39%)
   displ. norm   :     0.5384868 α      lambda       -0.1366515E-03
   maximum displ.:     0.2589466 α      in ANC's #2, #10, #13, ...

........................................................................
.............................. CYCLE   40 ..............................
........................................................................

 iter      E             dE          RMSdq      gap      omega  full diag
   1   -338.1457268 -0.338146E+03  0.225E-02    0.64       0.0  T
   2   -338.1129449  0.327818E-01  0.243E-01    0.59       1.0  T
   3   -338.1453665 -0.324216E-01  0.293E-02    0.63       1.0  T
   4   -338.1361051  0.926141E-02  0.132E-01    0.61       1.0  T
   5   -338.1455016 -0.939651E-02  0.262E-02    0.63       1.0  T
   6   -338.1410256  0.447602E-02  0.985E-02    0.64       1.0  T
   7   -338.1457975 -0.477193E-02  0.676E-03    0.63       1.0  T
   8   -338.1458158 -0.182605E-04  0.267E-03    0.63       2.5  T
   9   -338.1458199 -0.407744E-05  0.423E-04    0.63      15.8  T
  10   -338.1458197  0.174564E-06  0.649E-04    0.63      10.3  T
  11   -338.1458199 -0.183128E-06  0.176E-04    0.63      38.0  T
     SCC iter.                  ...        0 min,  1.274 sec
     gradient                   ...        0 min,  0.203 sec
 * total energy  :  -333.2725703 Eh     change       -0.1155491E-03 Eh
   gradient norm :     0.0029813 Eh/α   predicted    -0.8814071E-04 ( -23.72%)
   displ. norm   :     0.5505822 α      lambda       -0.1313879E-03
   maximum displ.:     0.2689278 α      in ANC's #2, #10, #13, ...

........................................................................
.............................. CYCLE   41 ..............................
........................................................................

 iter      E             dE          RMSdq      gap      omega  full diag
   1   -338.1451688 -0.338145E+03  0.305E-02    0.64       0.0  T
   2   -338.0809902  0.641787E-01  0.345E-01    0.54       1.0  T
   3   -338.1443487 -0.633585E-01  0.489E-02    0.64       1.0  T
   4   -338.1434032  0.945449E-03  0.658E-02    0.62       1.0  T
   5   -338.1451516 -0.174843E-02  0.258E-02    0.64       1.0  T
   6   -338.1387627  0.638889E-02  0.110E-01    0.63       1.0  T
   7   -338.1454157 -0.665298E-02  0.124E-02    0.63       1.0  T
   8   -338.1454985 -0.827683E-04  0.290E-03    0.64       2.3  T
   9   -338.1454993 -0.780096E-06  0.256E-03    0.64       2.6  T
  10   -338.1455030 -0.375624E-05  0.529E-04    0.64      12.6  T
  11   -338.1455008  0.218955E-05  0.196E-03    0.64       3.4  T
  12   -338.1455031 -0.222873E-05  0.335E-04    0.64      19.9  T
  13   -338.1455031 -0.447179E-07  0.189E-04    0.64      35.4  T
  14   -338.1455031 -0.146784E-07  0.100E-04    0.64      66.8  T
     SCC iter.                  ...        0 min,  1.596 sec
     gradient                   ...        0 min,  0.201 sec
 * total energy  :  -333.2726800 Eh     change       -0.1097193E-03 Eh
   gradient norm :     0.0025309 Eh/α   predicted    -0.8560964E-04 ( -21.97%)
   displ. norm   :     0.5383597 α      lambda       -0.1160353E-03
   maximum displ.:     0.2663263 α      in ANC's #2, #10, #13, ...

........................................................................
.............................. CYCLE   42 ..............................
........................................................................

 iter      E             dE          RMSdq      gap      omega  full diag
   1   -338.1447704 -0.338145E+03  0.260E-02    0.64       0.0  T
   2   -338.0936160  0.511544E-01  0.304E-01    0.56       1.0  T
   3   -338.1448510 -0.512349E-01  0.193E-02    0.64       1.0  T
   4   -338.1373754  0.747552E-02  0.122E-01    0.62       1.0  T
   5   -338.1444709 -0.709552E-02  0.323E-02    0.63       1.0  T
   6   -338.1429181  0.155288E-02  0.611E-02    0.63       1.0  T
   7   -338.1449605 -0.204243E-02  0.777E-03    0.63       1.0  T
   8   -338.1449886 -0.281413E-04  0.262E-03    0.64       2.6  T
   9   -338.1449919 -0.323322E-05  0.112E-03    0.64       6.0  T
  10   -338.1449924 -0.507354E-06  0.591E-04    0.64      11.3  T
  11   -338.1449920  0.422195E-06  0.995E-04    0.64       6.7  T
     SCC iter.                  ...        0 min,  1.339 sec
     gradient                   ...        0 min,  0.208 sec
 * total energy  :  -333.2727775 Eh     change       -0.9747179E-04 Eh
   gradient norm :     0.0028331 Eh/α   predicted    -0.7483473E-04 ( -23.22%)
   displ. norm   :     0.5252469 α      lambda       -0.1081812E-03
[...]
   1   -338.1504534 -0.338150E+03  0.392E-02    0.63       0.0  T
   2   -338.1030594  0.473940E-01  0.311E-01    0.59       1.0  T
   3   -338.1500728 -0.470134E-01  0.402E-02    0.63       1.0  T
   4   -338.1308067  0.192661E-01  0.192E-01    0.62       1.0  T
   5   -338.1451033 -0.142966E-01  0.954E-02    0.63       1.0  T
   6   -338.1492006 -0.409734E-02  0.528E-02    0.63       1.0  T
   7   -338.1507504 -0.154974E-02  0.911E-03    0.63       1.0  T
   8   -338.1507872 -0.368356E-04  0.338E-03    0.63       2.0  T
   9   -338.1507933 -0.609278E-05  0.115E-03    0.63       5.8  T
  10   -338.1507935 -0.218187E-06  0.831E-04    0.63       8.0  T
  11   -338.1507937 -0.180336E-06  0.581E-04    0.63      11.5  T
     SCC iter.                  ...        0 min,  1.455 sec
     gradient                   ...        0 min,  0.204 sec
 * total energy  :  -333.2791801 Eh     change       -0.3487426E-03 Eh
   gradient norm :     0.0050844 Eh/α   predicted    -0.3229276E-03 (  -7.40%)
   displ. norm   :     0.8627504 α      lambda       -0.3732336E-03
   maximum displ.:     0.4794359 α      in ANC's #2, #3, #1, ...

........................................................................
.............................. CYCLE   87 ..............................
........................................................................

 iter      E             dE          RMSdq      gap      omega  full diag
   1   -338.1497135 -0.338150E+03  0.473E-02    0.63       0.0  T
   2   -338.0239373  0.125776E+00  0.489E-01    0.56       1.0  T
   3   -338.1370659 -0.113129E+00  0.157E-01    0.61       1.0  T
   4   -338.1483355 -0.112695E-01  0.608E-02    0.63       1.0  T
   5   -338.1308461  0.174893E-01  0.189E-01    0.62       1.0  T
   6   -338.1496438 -0.187976E-01  0.411E-02    0.63       1.0  T
   7   -338.1503967 -0.752894E-03  0.149E-02    0.63       1.0  T
   8   -338.1504202 -0.235732E-04  0.133E-02    0.64       1.0  T
   9   -338.1505131 -0.928394E-04  0.221E-03    0.63       3.0  T
  10   -338.1505115  0.160367E-05  0.281E-03    0.63       2.4  T
  11   -338.1505155 -0.407863E-05  0.452E-04    0.63      14.8  T
  12   -338.1505153  0.221549E-06  0.782E-04    0.63       8.5  T
  13   -338.1505156 -0.305563E-06  0.191E-04    0.63      34.9  T
     SCC iter.                  ...        0 min,  1.528 sec
     gradient                   ...        0 min,  0.204 sec
 * total energy  :  -333.2795356 Eh     change       -0.3554985E-03 Eh
   gradient norm :     0.0041322 Eh/α   predicted    -0.3255248E-03 (  -8.43%)
   displ. norm   :     0.8624127 α      lambda       -0.3910830E-03
   maximum displ.:     0.4791403 α      in ANC's #2, #3, #1, ...

........................................................................
.............................. CYCLE   88 ..............................
........................................................................

 iter      E             dE          RMSdq      gap      omega  full diag
   1   -338.1484783 -0.338148E+03  0.659E-02    0.63       0.0  T
   2   -337.9917247  0.156754E+00  0.551E-01    0.48       1.0  T
   3   -338.1304368 -0.138712E+00  0.200E-01    0.62       1.0  T
   4   -338.1478875 -0.174506E-01  0.694E-02    0.64       1.0  T
   5   -338.1292246  0.186629E-01  0.189E-01    0.62       1.0  T
   6   -338.1418432 -0.126186E-01  0.129E-01    0.61       1.0  T
   7   -338.1503220 -0.847885E-02  0.176E-02    0.63       1.0  T
   8   -338.1498697  0.452307E-03  0.342E-02    0.64       1.0  T
   9   -338.1504875 -0.617763E-03  0.223E-03    0.63       3.0  T
  10   -338.1504867  0.798335E-06  0.250E-03    0.63       2.7  T
  11   -338.1504899 -0.318723E-05  0.502E-04    0.63      13.3  T
  12   -338.1504894  0.497694E-06  0.108E-03    0.63       6.2  T
  13   -338.1504900 -0.603680E-06  0.151E-04    0.63      44.3  T
  14   -338.1504899  0.395171E-07  0.305E-04    0.63      21.9  T
     SCC iter.                  ...        0 min,  1.615 sec
     gradient                   ...        0 min,  0.206 sec
 * total energy  :  -333.2799080 Eh     change       -0.3723951E-03 Eh
   gradient norm :     0.0026014 Eh/α   predicted    -0.3409797E-03 (  -8.44%)
   displ. norm   :     0.8745773 α      lambda       -0.4068350E-03
   maximum displ.:     0.4852722 α      in ANC's #2, #3, #1, ...

........................................................................
.............................. CYCLE   89 ..............................
........................................................................

 iter      E             dE          RMSdq      gap      omega  full diag
   1   -338.1480603 -0.338148E+03  0.685E-02    0.62       0.0  T
   2   -337.9885619  0.159498E+00  0.557E-01    0.47       1.0  T
   3   -338.1286204 -0.140058E+00  0.195E-01    0.62       1.0  T
   4   -338.1472025 -0.185820E-01  0.760E-02    0.64       1.0  T
   5   -338.1370042  0.101982E-01  0.163E-01    0.60       1.0  T
   6   -338.1399972 -0.299298E-02  0.140E-01    0.61       1.0  T
   7   -338.1500372 -0.100399E-01  0.215E-02    0.63       1.0  T
   8   -338.1495641  0.473013E-03  0.368E-02    0.64       1.0  T
   9   -338.1502877 -0.723550E-03  0.121E-03    0.63       5.5  T
  10   -338.1502846  0.306071E-05  0.262E-03    0.63       2.5  T
  11   -338.1502882 -0.355571E-05  0.481E-04    0.63      13.9  T
  12   -338.1502875  0.737079E-06  0.125E-03    0.63       5.3  T
  13   -338.1502883 -0.824039E-06  0.151E-04    0.63      44.3  T
  14   -338.1502882  0.743068E-07  0.393E-04    0.63      17.0  T
     SCC iter.                  ...        0 min,  1.708 sec
     gradient                   ...        0 min,  0.201 sec
 * total energy  :  -333.2802969 Eh     change       -0.3888566E-03 Eh
   gradient norm :     0.0037304 Eh/α   predicted    -0.3590083E-03 (  -7.68%)
   displ. norm   :     0.8785086 α      lambda       -0.4229822E-03
   maximum displ.:     0.4846702 α      in ANC's #2, #3, #1, ...

........................................................................
.............................. CYCLE   90 ..............................
........................................................................

 iter      E             dE          RMSdq      gap      omega  full diag
   1   -338.1485350 -0.338149E+03  0.656E-02    0.62       0.0  T
   2   -337.9949257  0.153609E+00  0.544E-01    0.50       1.0  T
   3   -338.1014875 -0.106562E+00  0.295E-01    0.60       1.0  T
   4   -338.1455984 -0.441109E-01  0.948E-02    0.63       1.0  T
   5   -338.1457613 -0.162862E-03  0.957E-02    0.63       1.0  T
   6   -338.1432682  0.249301E-02  0.118E-01    0.61       1.0  T
   7   -338.1501714 -0.690311E-02  0.260E-02    0.62       1.0  T
   8   -338.1494531  0.718220E-03  0.451E-02    0.63       1.0  T
   9   -338.1505188 -0.106569E-02  0.626E-03    0.63       1.1  T
  10   -338.1505314 -0.125482E-04  0.400E-03    0.63       1.7  T
  11   -338.1505398 -0.844099E-05  0.372E-04    0.63      18.0  T
  12   -338.1505384  0.144957E-05  0.166E-03    0.63       4.0  T
  13   -338.1505398 -0.144743E-05  0.251E-04    0.63      26.6  T
  14   -338.1505398  0.103779E-08  0.237E-04    0.63      28.2  T
  15   -338.1505398  0.767142E-08  0.267E-04    0.63      25.0  T
     SCC iter.                  ...        0 min,  1.770 sec
     gradient                   ...        0 min,  0.194 sec
 * total energy  :  -333.2807019 Eh     change       -0.4050510E-03 Eh
   gradient norm :     0.0053991 Eh/α   predicted    -0.3747167E-03 (  -7.49%)
   displ. norm   :     0.8765729 α      lambda       -0.4442601E-03
   maximum displ.:     0.4788398 α      in ANC's #2, #3, #1, ...

........................................................................
.............................. CYCLE   91 ..............................
........................................................................

 iter      E             dE          RMSdq      gap      omega  full diag
   1   -338.1490399 -0.338149E+03  0.682E-02    0.61       0.0  T
   2   -338.0573757  0.916642E-01  0.429E-01    0.55       1.0  T
   3   -338.1090514 -0.516758E-01  0.299E-01    0.55       1.0  T
   4   -338.1390065 -0.299551E-01  0.142E-01    0.62       1.0  T
   5   -338.1483831 -0.937663E-02  0.723E-02    0.63       1.0  T
   6   -338.1395997  0.878341E-02  0.151E-01    0.58       1.0  T
   7   -338.1491743 -0.957462E-02  0.608E-02    0.61       1.0  T
   8   -338.1494384 -0.264073E-03  0.572E-02    0.63       1.0  T
   9   -338.1510462 -0.160781E-02  0.121E-02    0.63       1.0  T
  10   -338.1511167 -0.704403E-04  0.394E-03    0.63       1.7  T
  11   -338.1511214 -0.472556E-05  0.239E-03    0.63       2.8  T
  12   -338.1511226 -0.120735E-05  0.187E-03    0.63       3.6  T
  13   -338.1511237 -0.109078E-05  0.119E-03    0.63       5.6  T
  14   -338.1511244 -0.676162E-06  0.419E-04    0.63      15.9  T
  15   -338.1511244 -0.108727E-07  0.380E-04    0.63      17.6  T
     SCC iter.                  ...        0 min,  1.736 sec
     gradient                   ...        0 min,  0.201 sec
 * total energy  :  -333.2811248 Eh     change       -0.4228892E-03 Eh
   gradient norm :     0.0059872 Eh/α   predicted    -0.3928109E-03 (  -7.11%)
   displ. norm   :     0.8731395 α      lambda       -0.4631848E-03
   maximum displ.:     0.4713674 α      in ANC's #2, #3, #1, ...

........................................................................
.............................. CYCLE   92 ..............................
........................................................................

 iter      E             dE          RMSdq      gap      omega  full diag
   1   -338.1492357 -0.338149E+03  0.826E-02    0.61       0.0  T
   2   -338.0713625  0.778732E-01  0.403E-01    0.46       1.0  T
   3   -338.0811678 -0.980535E-02  0.371E-01    0.56       1.0  T
   4   -338.1408829 -0.597150E-01  0.147E-01    0.60       1.0  T
   5   -338.1464442 -0.556137E-02  0.108E-01    0.63       1.0  T
   6   -338.1376698  0.877440E-02  0.172E-01    0.58       1.0  T
   7   -338.1508466 -0.131768E-01  0.517E-02    0.61       1.0  T
   8   -338.1516638 -0.817124E-03  0.342E-02    0.63       1.0  T
   9   -338.1522238 -0.560062E-03  0.436E-03    0.63       1.5  T
  10   -338.1522334 -0.957506E-05  0.884E-04    0.63       7.6  T
  11   -338.1522317  0.166376E-05  0.190E-03    0.63       3.5  T
  12   -338.1522322 -0.404351E-06  0.174E-03    0.63       3.8  T
  13   -338.1522335 -0.130447E-05  0.622E-04    0.63      10.7  T
  14   -338.1522335 -0.782655E-07  0.468E-04    0.63      14.3  T
  15   -338.1522336 -0.984576E-07  0.210E-04    0.63      31.8  T
     SCC iter.                  ...        0 min,  1.776 sec
     gradient                   ...        0 min,  0.199 sec
 * total energy  :  -333.2815594 Eh     change       -0.4346108E-03 Eh
   gradient norm :     0.0046305 Eh/α   predicted    -0.4081530E-03 (  -6.09%)
   displ. norm   :     0.8745951 α      lambda       -0.4583077E-03
   maximum displ.:     0.4709440 α      in ANC's #2, #3, #1, ...
 * RMSD in coord.:     1.0700866 α      energy gain  -0.6133675E-02 Eh

generating ANC from model Hessian ...
Using Lindh-Hessian (1995)
 Shifting diagonal of input Hessian by    1.0030860467213510E-002
 Lowest  eigenvalues of input Hessian
    0.010000    0.010018    0.010028    0.000000    0.000000    0.000000
    0.000000    0.000000    0.000000    0.010037    0.010065    0.010090
    0.010092    0.010101    0.010115    0.010123    0.010130    0.010173
 Highest eigenvalues
    2.186241    2.187267    2.308455    2.310569    2.333982    2.339041


........................................................................
.............................. CYCLE   93 ..............................
........................................................................

 iter      E             dE          RMSdq      gap      omega  full diag
   1   -338.1489800 -0.338149E+03  0.900E-02    0.61       0.0  T
   2   -338.0871896  0.617903E-01  0.384E-01    0.39       1.0  T
   3   -338.1078310 -0.206413E-01  0.286E-01    0.54       1.0  T
   4   -338.1400244 -0.321934E-01  0.160E-01    0.61       1.0  T
   5   -338.1398148  0.209592E-03  0.148E-01    0.62       1.0  T
   6   -338.1395816  0.233230E-03  0.162E-01    0.60       1.0  T
   7   -338.1512254 -0.116438E-01  0.480E-02    0.62       1.0  T
   8   -338.1522945 -0.106910E-02  0.205E-02    0.62       1.0  T
   9   -338.1524303 -0.135823E-03  0.139E-02    0.63       1.0  T
  10   -338.1525251 -0.948350E-04  0.139E-03    0.63       4.8  T
  11   -338.1525249  0.172562E-06  0.139E-03    0.63       4.8  T
  12   -338.1525244  0.555888E-06  0.172E-03    0.63       3.9  T
  13   -338.1525259 -0.147829E-05  0.629E-04    0.63      10.6  T
  14   -338.1525260 -0.146647E-06  0.302E-04    0.63      22.1  T
  15   -338.1525261 -0.364576E-07  0.125E-04    0.63      53.6  T
     SCC iter.                  ...        0 min,  1.836 sec
     gradient                   ...        0 min,  0.203 sec
 * total energy  :  -333.2819831 Eh     change       -0.4237174E-03 Eh
   gradient norm :     0.0035043 Eh/α   predicted     0.0000000E+00 (-100.00%)
   displ. norm   :     0.0573830 α      lambda       -0.6250508E-04
   maximum displ.:     0.0235192 α      in ANC's #4, #18, #2, ...

........................................................................
.............................. CYCLE   94 ..............................
........................................................................

 iter      E             dE          RMSdq      gap      omega  full diag
   1   -338.1533856 -0.338153E+03  0.171E-02    0.63       0.0  T
   2   -338.1249337  0.284519E-01  0.235E-01    0.56       1.0  T
   3   -338.1500182 -0.250845E-01  0.768E-02    0.62       1.0  T
   4   -338.1533930 -0.337483E-02  0.153E-02    0.62       1.0  T
   5   -338.1521555  0.123751E-02  0.506E-02    0.63       1.0  T
   6   -338.1535141 -0.135854E-02  0.538E-03    0.62       1.2  T
   7   -338.1535210 -0.690437E-05  0.370E-03    0.63       1.8  T
   8   -338.1535275 -0.653310E-05  0.113E-03    0.63       5.9  T
   9   -338.1535276 -0.131566E-06  0.940E-04    0.63       7.1  T
  10   -338.1535280 -0.399470E-06  0.283E-04    0.63      23.6  T
     SCC iter.                  ...        0 min,  1.148 sec
     gradient                   ...        0 min,  0.208 sec
 * total energy  :  -333.2820382 Eh     change       -0.5502607E-04 Eh
   gradient norm :     0.0018219 Eh/α   predicted    -0.3140159E-04 ( -42.93%)
   displ. norm   :     0.3770109 α      lambda       -0.1982595E-03
   maximum displ.:     0.1543164 α      in ANC's #4, #18, #2, ...

........................................................................
.............................. CYCLE   95 ..............................
........................................................................

 iter      E             dE          RMSdq      gap      omega  full diag
   1   -338.1552976 -0.338155E+03  0.535E-02    0.63       0.0  T
   2   -338.1176163  0.376813E-01  0.276E-01    0.42       1.0  T
   3   -338.1163658  0.125048E-02  0.277E-01    0.58       1.0  T
   4   -338.1531231 -0.367573E-01  0.842E-02    0.62       1.0  T
   5   -338.1503111  0.281200E-02  0.102E-01    0.61       1.0  T
   6   -338.1518222 -0.151105E-02  0.965E-02    0.63       1.0  T
   7   -338.1550295 -0.320732E-02  0.519E-02    0.62       1.0  T
   8   -338.1562137 -0.118425E-02  0.215E-02    0.63       1.0  T
   9   -338.1563841 -0.170312E-03  0.111E-02    0.63       1.0  T
  10   -338.1564421 -0.580807E-04  0.193E-03    0.63       3.5  T
  11   -338.1564428 -0.695921E-06  0.144E-03    0.63       4.7  T
  12   -338.1564434 -0.536363E-06  0.103E-03    0.63       6.5  T
  13   -338.1564438 -0.447704E-06  0.463E-04    0.63      14.4  T
  14   -338.1564439 -0.836652E-07  0.190E-04    0.63      35.1  T
     SCC iter.                  ...        0 min,  1.645 sec
     gradient                   ...        0 min,  0.197 sec
 * total energy  :  -333.2821997 Eh     change       -0.1615322E-03 Eh
   gradient norm :     0.0057110 Eh/α   predicted    -0.1053931E-03 ( -34.75%)
   displ. norm   :     0.1329396 α      lambda       -0.7198520E-04
   maximum displ.:     0.0586927 α      in ANC's #4, #18, #2, ...

........................................................................
.............................. CYCLE   96 ..............................
........................................................................

 iter      E             dE          RMSdq      gap      omega  full diag
   1   -338.1556335 -0.338156E+03  0.304E-02    0.63       0.0  T
   2   -338.0822412  0.733924E-01  0.364E-01    0.56       1.0  T
   3   -338.1373693 -0.551281E-01  0.191E-01    0.60       1.0  T
   4   -338.1558589 -0.184896E-01  0.214E-02    0.63       1.0  T
   5   -338.1521975  0.366146E-02  0.818E-02    0.64       1.0  T
   6   -338.1560538 -0.385633E-02  0.104E-02    0.63       1.0  T
   7   -338.1560937 -0.398815E-04  0.438E-03    0.63       1.5  T
   8   -338.1560740  0.196767E-04  0.763E-03    0.63       1.0  T
   9   -338.1561027 -0.287432E-04  0.119E-03    0.63       5.6  T
  10   -338.1561027  0.817209E-07  0.126E-03    0.63       5.3  T
  11   -338.1561034 -0.749331E-06  0.309E-04    0.63      21.6  T
  12   -338.1561031  0.269646E-06  0.789E-04    0.63       8.5  T
     SCC iter.                  ...        0 min,  1.559 sec
     gradient                   ...        0 min,  0.248 sec
 * total energy  :  -333.2822661 Eh     change       -0.6643804E-04 Eh
   gradient norm :     0.0046776 Eh/α   predicted    -0.3662885E-04 ( -44.87%)
   displ. norm   :     0.4318009 α      lambda       -0.2408564E-03
   maximum displ.:     0.1893106 α      in ANC's #4, #18, #2, ...

........................................................................
.............................. CYCLE   97 ..............................
........................................................................

 iter      E             dE          RMSdq      gap      omega  full diag
   1   -338.1502571 -0.338150E+03  0.889E-02    0.62       0.0  T
   2   -338.0179365  0.132321E+00  0.502E-01    0.44       1.0  T
   3   -338.0707365 -0.528000E-01  0.410E-01    0.54       1.0  T
   4   -338.1325065 -0.617700E-01  0.196E-01    0.60       1.0  T
   5   -338.1436521 -0.111456E-01  0.142E-01    0.63       1.0  T
   6   -338.1395049  0.414721E-02  0.164E-01    0.60       1.0  T
   7   -338.1536860 -0.141811E-01  0.339E-02    0.63       1.0  T
   8   -338.1540836 -0.397630E-03  0.188E-02    0.64       1.0  T
   9   -338.1542454 -0.161775E-03  0.538E-03    0.64       1.2  T
  10   -338.1542621 -0.166564E-04  0.149E-03    0.64       4.5  T
  11   -338.1542580  0.405379E-05  0.314E-03    0.64       2.1  T
  12   -338.1542619 -0.390884E-05  0.151E-03    0.64       4.4  T
  13   -338.1542630 -0.104310E-05  0.398E-04    0.64      16.8  T
  14   -338.1542628  0.126079E-06  0.596E-04    0.64      11.2  T
  15   -338.1542628  0.832944E-08  0.613E-04    0.64      10.9  T
     SCC iter.                  ...        0 min,  1.865 sec
     gradient                   ...        0 min,  0.205 sec
 * total energy  :  -333.2824579 Eh     change       -0.1918043E-03 Eh
   gradient norm :     0.0023963 Eh/α   predicted    -0.1428827E-03 ( -25.51%)
   displ. norm   :     0.5073890 α      lambda       -0.2008771E-03
   maximum displ.:     0.2265895 α      in ANC's #4, #18, #2, ...

........................................................................
.............................. CYCLE   98 ..............................
........................................................................

 iter      E             dE          RMSdq      gap      omega  full diag
   1   -338.1485846 -0.338149E+03  0.892E-02    0.63       0.0  T
   2   -338.0174203  0.131164E+00  0.500E-01    0.44       1.0  T
   3   -338.0644316 -0.470113E-01  0.422E-01    0.54       1.0  T
   4   -338.1292005 -0.647689E-01  0.205E-01    0.60       1.0  T
