      -----------------------------------------------------------      
     |                   =====================                   |     
     |                           x T B                           |     
     |                   =====================                   |     
     |                         S. Grimme                         |     
     |          Mulliken Center for Theoretical Chemistry        |     
     |                    University of Bonn                     |     
      -----------------------------------------------------------      

   * xtb version 6.6.1 (8d0f1dd) compiled by 'runner@Mac-1690902418499.local' on 2023-08-01

   xtb is free software: you can redistribute it and/or modify it under
   the terms of the GNU Lesser General Public License as published by
   the Free Software Foundation, either version 3 of the License, or
   (at your option) any later version.
   
   xtb is distributed in the hope that it will be useful,
   but WITHOUT ANY WARRANTY; without even the implied warranty of
   MERCHANTABILITY or FITNESS FOR A PARTICULAR PURPOSE.  See the
   GNU Lesser General Public License for more details.
   
   Cite this work as:
   * C. Bannwarth, E. Caldeweyher, S. Ehlert, A. Hansen, P. Pracht,
     J. Seibert, S. Spicher, S. Grimme, WIREs Comput. Mol. Sci., 2020, 11,
     e01493. DOI: 10.1002/wcms.1493
   
   for GFN2-xTB:
   * C. Bannwarth, S. Ehlert and S. Grimme., J. Chem. Theory Comput., 2019,
     15, 1652-1671. DOI: 10.1021/acs.jctc.8b01176
   for GFN1-xTB:
   * S. Grimme, C. Bannwarth, P. Shushkov, J. Chem. Theory Comput., 2017,
     13, 1989-2009. DOI: 10.1021/acs.jctc.7b00118
   for GFN0-xTB:
   * P. Pracht, E. Caldeweyher, S. Ehlert, S. Grimme, ChemRxiv, 2019, preprint.
     DOI: 10.26434/chemrxiv.8326202.v1
   for GFN-FF:
   * S. Spicher and S. Grimme, Angew. Chem. Int. Ed., 2020, 59, 15665-15673.
     DOI: 10.1002/anie.202004239
   
   for ALPB and GBSA implicit solvation:
   * S. Ehlert, M. Stahn, S. Spicher, S. Grimme, J. Chem. Theory Comput.,
     2021, 17, 4250-4261. DOI: 10.1021/acs.jctc.1c00471
   
   for DFT-D4:
   * E. Caldeweyher, C. Bannwarth and S. Grimme, J. Chem. Phys., 2017,
     147, 034112. DOI: 10.1063/1.4993215
   * E. Caldeweyher, S. Ehlert, A. Hansen, H. Neugebauer, S. Spicher,
     C. Bannwarth and S. Grimme, J. Chem. Phys., 2019, 150, 154122.
     DOI: 10.1063/1.5090222
   * E. Caldeweyher, J.-M. Mewes, S. Ehlert and S. Grimme, Phys. Chem. Chem. Phys.
     2020, 22, 8499-8512. DOI: 10.1039/D0CP00502A
   
   for sTDA-xTB:
   * S. Grimme and C. Bannwarth, J. Chem. Phys., 2016, 145, 054103.
     DOI: 10.1063/1.4959605
   
   in the mass-spec context:
   * V. Asgeirsson, C. Bauer and S. Grimme, Chem. Sci., 2017, 8, 4879.
     DOI: 10.1039/c7sc00601b
   * J. Koopman and S. Grimme, ACS Omega 2019, 4, 12, 15120-15133.
     DOI: 10.1021/acsomega.9b02011
   
   for metadynamics refer to:
   * S. Grimme, J. Chem. Theory Comput., 2019, 155, 2847-2862
     DOI: 10.1021/acs.jctc.9b00143
   
   for SPH calculations refer to:
   * S. Spicher and S. Grimme, J. Chem. Theory Comput., 2021, 17, 1701-1714
     DOI: 10.1021/acs.jctc.0c01306
   
   with help from (in alphabetical order)
   P. Atkinson, C. Bannwarth, F. Bohle, G. Brandenburg, E. Caldeweyher
   M. Checinski, S. Dohm, S. Ehlert, S. Ehrlich, I. Gerasimov, C. Hölzer
   A. Katbashev, J. Koopman, C. Lavigne, S. Lehtola, F. März, M. Müller,
   F. Musil, H. Neugebauer, J. Pisarek, C. Plett, P. Pracht, F. Pultar,
   J. Seibert, P. Shushkov, S. Spicher, M. Stahn, M. Steiner, T. Strunk,
   J. Stückrath, T. Rose, and J. Unsleber
   
 * started run on 2024/11/14 at 10:51:00.424     

           -------------------------------------------------
          |                Calculation Setup                |
           -------------------------------------------------

          program call               : xtb opt_radical_Nitro3.mol --gfn2 --sp --chrg 1 --uhf 1
          coordinate file            : opt_radical_Nitro3.mol
          omp threads                :                     8

   ID    Z sym.   atoms
    1    6 C      1-42, 45, 46, 48-51
    2    7 N      43, 52, 54, 56, 58
    3   14 Si     44
    4    8 O      47, 53, 55, 57, 59
    5    1 H      60-112

           -------------------------------------------------
          |                 G F N 2 - x T B                 |
           -------------------------------------------------

        Reference                      10.1021/acs.jctc.8b01176
      * Hamiltonian:
        H0-scaling (s, p, d)           1.850000    2.230000    2.230000
        zeta-weighting                 0.500000
      * Dispersion:
        s8                             2.700000
        a1                             0.520000
        a2                             5.000000
        s9                             5.000000
      * Repulsion:
        kExp                           1.500000    1.000000
        rExp                           1.000000
      * Coulomb:
        alpha                          2.000000
        third order                    shell-resolved
        anisotropic                    true
        a3                             3.000000
        a5                             4.000000
        cn-shift                       1.200000
        cn-exp                         4.000000
        max-rad                        5.000000

q/qsh data taken from xtbrestart
CAMM data taken from xtbrestart

          ...................................................
          :                      SETUP                      :
          :.................................................:
          :  # basis functions                 295          :
          :  # atomic orbitals                 294          :
          :  # shells                          172          :
          :  # electrons                       303          :
          :  max. iterations                   250          :
          :  Hamiltonian                  GFN2-xTB          :
          :  restarted?                       true          :
          :  GBSA solvation                  false          :
          :  PC potential                    false          :
          :  electronic temp.          300.0000000     K    :
          :  accuracy                    1.0000000          :
          :  -> integral cutoff          0.2500000E+02      :
          :  -> integral neglect         0.1000000E-07      :
          :  -> SCF convergence          0.1000000E-05 Eh   :
          :  -> wf. convergence          0.1000000E-03 e    :
          :  Broyden damping             0.4000000          :
          ...................................................

 iter      E             dE          RMSdq      gap      omega  full diag
   1   -168.4422347 -0.168442E+03  0.480E-01    0.01       0.0  T
   2   -168.1997697  0.242465E+00  0.992E-01    0.11       1.0  T
   3   -168.3068859 -0.107116E+00  0.815E-01    0.78       1.0  T
   4   -168.4196782 -0.112792E+00  0.483E-01    0.10       1.0  T
   5   -168.4479461 -0.282679E-01  0.307E-01    0.04       1.0  T
   6   -168.4544535 -0.650743E-02  0.215E-01    0.02       1.0  T
   7   -168.3322975  0.122156E+00  0.687E-01    0.06       1.0  T
   8   -168.4476114 -0.115314E+00  0.250E-01    0.04       1.0  T
   9   -168.3848336  0.627778E-01  0.558E-01    0.07       1.0  T
  10   -168.4521352 -0.673016E-01  0.203E-01    0.03       1.0  T
  11   -168.4616896 -0.955440E-02  0.840E-02    0.01       1.0  T
  12   -168.4612301  0.459531E-03  0.899E-02    0.02       1.0  T
  13   -168.4624538 -0.122372E-02  0.559E-02    0.01       1.0  T
  14   -168.4625838 -0.130075E-03  0.531E-02    0.01       1.0  T
  15   -168.4629030 -0.319177E-03  0.381E-02    0.01       1.0  T
  16   -168.4632408 -0.337732E-03  0.151E-02    0.00       1.0  T
  17   -168.4632669 -0.261035E-04  0.112E-02    0.00       1.0  T
  18   -168.4632701 -0.325963E-05  0.101E-02    0.00       1.0  T
  19   -168.4632823 -0.122227E-04  0.769E-03    0.00       1.2  T
  20   -168.4632848 -0.241288E-05  0.683E-03    0.00       1.4  T
  21   -168.4632900 -0.522480E-05  0.512E-03    0.00       1.8  T
  22   -168.4632946 -0.464029E-05  0.232E-03    0.00       4.1  T
  23   -168.4632958 -0.121658E-05  0.633E-04    0.00      14.9  T
  24   -168.4632958  0.379154E-08  0.655E-04    0.00      14.4  T
  25   -168.4632959 -0.256298E-07  0.565E-04    0.00      16.7  T

   *** convergence criteria satisfied after 25 iterations ***

         #    Occupation            Energy/Eh            Energy/eV
      -------------------------------------------------------------
         1        2.0000           -0.8255007             -22.4630
       ...           ...                  ...                  ...
       146        2.0000           -0.4658244             -12.6757
       147        1.9999           -0.4538585             -12.3501
       148        1.9997           -0.4521514             -12.3037
       149        1.9990           -0.4511120             -12.2754
       150        1.9857           -0.4485648             -12.2061
       151        1.8581           -0.4462696             -12.1436
       152        0.6064           -0.4421276             -12.0309 (HOMO)
       153        0.5511           -0.4419617             -12.0264 (LUMO)
       154                         -0.3720997             -10.1253
       155                         -0.3643869              -9.9155
       156                         -0.3502077              -9.5296
       157                         -0.3336250              -9.0784
       ...                                ...                  ...
       294                          0.6599902              17.9592
      -------------------------------------------------------------
                  HL-Gap            0.0001659 Eh            0.0045 eV
             Fermi-level           -0.4432448 Eh          -12.0613 eV

 SCC (total)                   0 d,  0 h,  0 min,  1.271 sec
 SCC setup                      ...        0 min,  0.000 sec (  0.022%)
 Dispersion                     ...        0 min,  0.001 sec (  0.090%)
 classical contributions        ...        0 min,  0.000 sec (  0.021%)
 integral evaluation            ...        0 min,  0.005 sec (  0.423%)
 iterations                     ...        0 min,  1.209 sec ( 95.115%)
 molecular gradient             ...        0 min,  0.036 sec (  2.823%)
 printout                       ...        0 min,  0.019 sec (  1.505%)

         :::::::::::::::::::::::::::::::::::::::::::::::::::::
         ::                     SUMMARY                     ::
         :::::::::::::::::::::::::::::::::::::::::::::::::::::
         :: total energy            -166.019214555194 Eh    ::
         :: gradient norm              0.062091312244 Eh/a0 ::
         :: HOMO-LUMO gap              0.004514683564 eV    ::
         ::.................................................::
         :: SCC energy              -168.463295859294 Eh    ::
         :: -> isotropic ES            0.184688622045 Eh    ::
         :: -> anisotropic ES          0.005221098868 Eh    ::
         :: -> anisotropic XC          0.059814234039 Eh    ::
         :: -> dispersion             -0.160654370956 Eh    ::
         :: repulsion energy           2.437835257118 Eh    ::
         :: add. restraining           0.000000000000 Eh    ::
         :: total charge               0.999998138592 e     ::
         :::::::::::::::::::::::::::::::::::::::::::::::::::::

           -------------------------------------------------
          |                Property Printout                |
           -------------------------------------------------

    * Orbital Energies and Occupations

         #    Occupation            Energy/Eh            Energy/eV
      -------------------------------------------------------------
         1        2.0000           -0.8255007             -22.4630
       ...           ...                  ...                  ...
       140        2.0000           -0.4915631             -13.3761
       141        2.0000           -0.4886867             -13.2978
       142        2.0000           -0.4871089             -13.2549
       143        2.0000           -0.4816589             -13.1066
       144        2.0000           -0.4738238             -12.8934
       145        2.0000           -0.4731399             -12.8748
       146        2.0000           -0.4658244             -12.6757
       147        1.9999           -0.4538585             -12.3501
       148        1.9997           -0.4521514             -12.3037
       149        1.9990           -0.4511120             -12.2754
       150        1.9857           -0.4485648             -12.2061
       151        1.8581           -0.4462696             -12.1436
       152        0.6064           -0.4421276             -12.0309 (HOMO)
       153        0.5511           -0.4419617             -12.0264 (LUMO)
       154                         -0.3720997             -10.1253
       155                         -0.3643869              -9.9155
       156                         -0.3502077              -9.5296
       157                         -0.3336250              -9.0784
       158                         -0.3226415              -8.7795
       159                         -0.3125326              -8.5044
       160                         -0.2867723              -7.8035
       161                         -0.2851618              -7.7596
       162                         -0.2738542              -7.4520
       163                         -0.2605938              -7.0911
       ...                                ...                  ...
       294                          0.6599902              17.9592
      -------------------------------------------------------------
                  HL-Gap            0.0001659 Eh            0.0045 eV
             Fermi-level           -0.4432448 Eh          -12.0613 eV

     #   Z          covCN         q      C6AA      α(0)
     1   6 C        2.920    -0.037    28.924     8.819
     2   6 C        2.919    -0.039    28.965     8.826
     3   6 C        2.968     0.006    27.880     8.661
     4   6 C        2.926    -0.037    28.921     8.819
     5   6 C        2.982     0.012    27.736     8.639
     6   6 C        2.989     0.015    27.674     8.629
     7   6 C        2.979     0.014    27.684     8.631
     8   6 C        2.987     0.016    27.650     8.626
     9   6 C        2.918    -0.026    28.654     8.778
    10   6 C        2.914    -0.040    28.989     8.829
    11   6 C        3.062    -0.015    28.317     8.726
    12   6 C        3.092     0.056    26.648     8.461
    13   6 C        2.907    -0.039    28.966     8.825
    14   6 C        2.928    -0.032    28.798     8.801
    15   6 C        3.061    -0.016    28.337     8.729
    16   6 C        3.095     0.055    26.664     8.463
    17   6 C        2.980     0.015    27.681     8.630
    18   6 C        2.987     0.016    27.635     8.623
    19   6 C        2.928    -0.032    28.802     8.801
    20   6 C        2.907    -0.039    28.966     8.825
    21   6 C        2.982     0.012    27.737     8.639
    22   6 C        2.988     0.015    27.667     8.628
    23   6 C        2.914    -0.040    28.989     8.829
    24   6 C        2.919    -0.025    28.639     8.776
    25   6 C        2.968     0.006    27.880     8.661
    26   6 C        2.919    -0.039    28.965     8.826
    27   6 C        2.920    -0.037    28.928     8.820
    28   6 C        2.926    -0.037    28.924     8.820
    29   6 C        2.887     0.048    26.916     8.506
    30   6 C        2.886     0.048    26.914     8.505
    31   6 C        3.883     0.045    19.772     6.322
    32   6 C        3.884     0.045    19.776     6.322
    33   6 C        3.758    -0.121    22.871     6.818
    34   6 C        3.760    -0.120    22.839     6.813
    35   6 C        3.758    -0.122    22.884     6.820
    36   6 C        3.761    -0.119    22.834     6.812
    37   6 C        3.884     0.045    19.770     6.322
    38   6 C        3.884     0.045    19.776     6.322
    39   6 C        3.760    -0.120    22.839     6.813
    40   6 C        3.758    -0.121    22.867     6.818
    41   6 C        3.758    -0.122    22.883     6.820
    42   6 C        3.761    -0.119    22.833     6.812
    43   7 N        2.797    -0.028    21.790     6.933
    44  14 Si       3.506     0.487   100.670    19.403
    45   6 C        3.698    -0.169    23.976     7.003
    46   6 C        3.714     0.090    19.207     6.262
    47   8 O        1.702    -0.319    19.327     5.936
    48   6 C        3.649    -0.210    25.052     7.191
    49   6 C        3.648    -0.211    25.060     7.192
    50   6 C        3.648    -0.210    25.047     7.190
    51   6 C        3.643     0.150    18.486     6.181
    52   7 N        2.808     0.230    17.496     6.212
    53   8 O        0.925    -0.367    21.010     6.147
    54   7 N        2.807     0.224    17.580     6.227
    55   8 O        0.925    -0.383    21.308     6.190
    56   7 N        2.807     0.224    17.587     6.228
    57   8 O        0.925    -0.385    21.347     6.196
    58   7 N        2.808     0.229    17.503     6.214
    59   8 O        0.925    -0.368    21.019     6.148
    60   1 H        0.925     0.051     2.310     2.377
    61   1 H        0.925     0.075     2.028     2.227
    62   1 H        0.925     0.076     2.018     2.222
    63   1 H        0.925     0.063     2.161     2.299
    64   1 H        0.925     0.084     1.942     2.179
    65   1 H        0.925     0.067     2.124     2.279
    66   1 H        0.925     0.051     2.313     2.379
    67   1 H        0.925     0.076     2.018     2.221
    68   1 H        0.925     0.080     1.982     2.202
    69   1 H        0.925     0.063     2.163     2.300
    70   1 H        0.925     0.087     1.910     2.161
    71   1 H        0.925     0.067     2.123     2.278
    72   1 H        0.925     0.043     2.410     2.428
    73   1 H        0.925     0.041     2.434     2.440
    74   1 H        0.923     0.011     2.871     2.650
    75   1 H        0.923     0.007     2.932     2.678
    76   1 H        0.923     0.036     2.504     2.475
    77   1 H        0.923     0.037     2.484     2.465
    78   1 H        0.925     0.034     2.531     2.488
    79   1 H        0.925     0.041     2.431     2.438
    80   1 H        0.925     0.044     2.395     2.420
    81   1 H        0.925     0.041     2.440     2.443
    82   1 H        0.925     0.039     2.456     2.451
    83   1 H        0.925     0.040     2.452     2.449
    84   1 H        0.925     0.034     2.536     2.490
    85   1 H        0.925     0.045     2.381     2.413
    86   1 H        0.925     0.040     2.446     2.446
    87   1 H        0.926     0.048     2.347     2.396
    88   1 H        0.926     0.050     2.319     2.381
    89   1 H        0.925     0.045     2.383     2.414
    90   1 H        0.925     0.039     2.465     2.455
    91   1 H        0.926     0.085     1.928     2.171
    92   1 H        0.926     0.081     1.969     2.194
    93   1 H        0.925     0.042     2.416     2.431
    94   1 H        0.925     0.039     2.466     2.456
    95   1 H        0.925     0.045     2.386     2.416
    96   1 H        0.926     0.050     2.322     2.383
    97   1 H        0.926     0.048     2.343     2.393
    98   1 H        0.926     0.086     1.916     2.165
    99   1 H        0.926     0.082     1.963     2.191
   100   1 H        0.925     0.043     2.415     2.430
   101   1 H        0.925     0.050     2.314     2.379
   102   1 H        0.925     0.075     2.030     2.228
   103   1 H        0.925     0.077     2.012     2.218
   104   1 H        0.925     0.063     2.160     2.298
   105   1 H        0.925     0.084     1.938     2.177
   106   1 H        0.925     0.067     2.124     2.279
   107   1 H        0.925     0.051     2.309     2.376
   108   1 H        0.925     0.076     2.018     2.221
   109   1 H        0.925     0.080     1.979     2.200
   110   1 H        0.925     0.063     2.164     2.301
   111   1 H        0.925     0.087     1.909     2.161
   112   1 H        0.925     0.067     2.122     2.278

 Mol. C6AA /au·bohr⁶  :     141844.493598
 Mol. C8AA /au·bohr⁸  :    3497103.976102
 Mol. α(0) /au        :        588.107549


Wiberg/Mayer (AO) data.
largest (>0.10) Wiberg bond orders for each atom

 ---------------------------------------------------------------------------
     #   Z sym  total        # sym  WBO       # sym  WBO       # sym  WBO
 ---------------------------------------------------------------------------
     1   6 C    3.977 --     2 C    1.544     6 C    1.296   100 H    0.966
     2   6 C    3.971 --     1 C    1.544     3 C    1.278    99 H    0.955
     3   6 C    3.964 --     4 C    1.410     2 C    1.278    30 C    1.096
     4   6 C    3.976 --     3 C    1.410     5 C    1.340    98 H    0.947
     5   6 C    3.985 --     4 C    1.340     6 C    1.264     7 C    1.169
     6   6 C    3.984 --     1 C    1.296     5 C    1.264    10 C    1.226
     7   6 C    3.968 --     8 C    1.284    11 C    1.270     5 C    1.169
     8   6 C    3.965 --     7 C    1.284    14 C    1.276     9 C    1.227
     9   6 C    3.968 --    10 C    1.610     8 C    1.227    89 H    0.966
    10   6 C    3.960 --     9 C    1.610     6 C    1.226    90 H    0.965
    11   6 C    3.961 --    12 C    1.277     7 C    1.270    15 C    1.168
    12   6 C    3.940 --    13 C    1.294    11 C    1.277    43 N    1.156
    13   6 C    3.963 --    14 C    1.542    12 C    1.294    87 H    0.963
    14   6 C    3.956 --    13 C    1.542     8 C    1.276    88 H    0.967
    15   6 C    3.962 --    16 C    1.279    17 C    1.268    11 C    1.168
    16   6 C    3.941 --    20 C    1.294    15 C    1.279    43 N    1.154
    17   6 C    3.966 --    18 C    1.283    15 C    1.268    21 C    1.170
    18   6 C    3.966 --    17 C    1.283    19 C    1.277    24 C    1.226
    19   6 C    3.956 --    20 C    1.540    18 C    1.277    96 H    0.967
    20   6 C    3.962 --    19 C    1.540    16 C    1.294    97 H    0.963
    21   6 C    3.985 --    28 C    1.339    22 C    1.264    17 C    1.170
    22   6 C    3.984 --    27 C    1.296    21 C    1.264    23 C    1.226
    23   6 C    3.961 --    24 C    1.611    22 C    1.226    94 H    0.965
    24   6 C    3.969 --    23 C    1.611    18 C    1.226    95 H    0.966
    25   6 C    3.965 --    28 C    1.411    26 C    1.278    29 C    1.096
    26   6 C    3.972 --    27 C    1.545    25 C    1.278    92 H    0.955
    27   6 C    3.977 --    26 C    1.545    22 C    1.296    93 H    0.966
    28   6 C    3.977 --    25 C    1.411    21 C    1.339    91 H    0.947
    29   6 C    3.936 --    56 N    1.245    58 N    1.240    25 C    1.096
                            59 O    0.134    57 O    0.134
    30   6 C    3.936 --    54 N    1.244    52 N    1.241     3 C    1.096
                            53 O    0.134    55 O    0.133
    31   6 C    3.952 --    33 C    0.993    34 C    0.972    32 C    0.957
                            54 N    0.910
    32   6 C    3.951 --    35 C    0.994    36 C    0.969    31 C    0.957
                            52 N    0.911
    33   6 C    3.977 --    31 C    0.993   104 H    0.979   106 H    0.979
                           105 H    0.975
    34   6 C    3.971 --   101 H    0.981   102 H    0.977   103 H    0.976
                            31 C    0.972
    35   6 C    3.977 --    32 C    0.994   110 H    0.979   112 H    0.979
                           111 H    0.975
    36   6 C    3.969 --   107 H    0.983   109 H    0.977   108 H    0.976
                            32 C    0.969
    37   6 C    3.953 --    40 C    0.993    39 C    0.972    38 C    0.957
                            56 N    0.910
    38   6 C    3.952 --    41 C    0.994    42 C    0.969    37 C    0.957
                            58 N    0.911
    39   6 C    3.971 --    60 H    0.980    61 H    0.977    62 H    0.976
                            37 C    0.972
    40   6 C    3.978 --    37 C    0.993    63 H    0.979    65 H    0.979
                            64 H    0.976
    41   6 C    3.977 --    38 C    0.994    69 H    0.979    71 H    0.979
                            70 H    0.975
    42   6 C    3.969 --    66 H    0.983    68 H    0.977    67 H    0.976
                            38 C    0.969
    43   7 N    3.540 --    12 C    1.156    16 C    1.154    51 C    1.003
    44  14 Si   3.601 --    50 C    0.906    49 C    0.906    48 C    0.893
                            45 C    0.819
    45   6 C    3.943 --    46 C    1.023    73 H    0.983    72 H    0.981
                            44 Si   0.819
    46   6 C    3.937 --    45 C    1.023    74 H    0.972    75 H    0.971
                            47 O    0.958
    47   8 O    2.064 --    51 C    0.984    46 C    0.958
    48   6 C    3.970 --    82 H    0.989    83 H    0.986    81 H    0.986
                            44 Si   0.893
    49   6 C    3.981 --    84 H    0.986    85 H    0.986    86 H    0.985
                            44 Si   0.906
    50   6 C    3.980 --    80 H    0.986    78 H    0.986    79 H    0.984
                            44 Si   0.906
    51   6 C    3.953 --    43 N    1.003    47 O    0.984    76 H    0.954
                            77 H    0.953
    52   7 N    3.644 --    53 O    1.337    30 C    1.241    32 C    0.911
    53   8 O    1.719 --    52 N    1.337    30 C    0.134
    54   7 N    3.644 --    55 O    1.323    30 C    1.244    31 C    0.910
    55   8 O    1.714 --    54 N    1.323    30 C    0.133
    56   7 N    3.643 --    57 O    1.322    29 C    1.245    37 C    0.910
    57   8 O    1.712 --    56 N    1.322    29 C    0.134
    58   7 N    3.643 --    59 O    1.337    29 C    1.240    38 C    0.911
    59   8 O    1.718 --    58 N    1.337    29 C    0.134
    60   1 H    0.997 --    39 C    0.980
    61   1 H    0.993 --    39 C    0.977
    62   1 H    0.994 --    39 C    0.976
    63   1 H    0.996 --    40 C    0.979
    64   1 H    0.992 --    40 C    0.976
    65   1 H    0.995 --    40 C    0.979
    66   1 H    0.997 --    42 C    0.983
    67   1 H    0.992 --    42 C    0.976
    68   1 H    0.993 --    42 C    0.977
    69   1 H    0.996 --    41 C    0.979
    70   1 H    0.992 --    41 C    0.975
    71   1 H    0.995 --    41 C    0.979
    72   1 H    0.998 --    45 C    0.981
    73   1 H    0.998 --    45 C    0.983
    74   1 H    1.000 --    46 C    0.972
    75   1 H    1.000 --    46 C    0.971
    76   1 H    0.997 --    51 C    0.954
    77   1 H    0.997 --    51 C    0.953
    78   1 H    0.999 --    50 C    0.986
    79   1 H    0.998 --    50 C    0.984
    80   1 H    0.997 --    50 C    0.986
    81   1 H    0.998 --    48 C    0.986
    82   1 H    0.997 --    48 C    0.989
    83   1 H    0.998 --    48 C    0.986
    84   1 H    0.999 --    49 C    0.986
    85   1 H    0.997 --    49 C    0.986
    86   1 H    0.998 --    49 C    0.985
    87   1 H    0.996 --    13 C    0.963
    88   1 H    0.997 --    14 C    0.967
    89   1 H    0.997 --     9 C    0.966
    90   1 H    0.997 --    10 C    0.965
    91   1 H    0.992 --    28 C    0.947
    92   1 H    0.993 --    26 C    0.955
    93   1 H    0.997 --    27 C    0.966
    94   1 H    0.997 --    23 C    0.965
    95   1 H    0.997 --    24 C    0.966
    96   1 H    0.997 --    19 C    0.967
    97   1 H    0.996 --    20 C    0.963
    98   1 H    0.992 --     4 C    0.947
    99   1 H    0.992 --     2 C    0.955
   100   1 H    0.997 --     1 C    0.966
   101   1 H    0.997 --    34 C    0.981
   102   1 H    0.993 --    34 C    0.977
   103   1 H    0.994 --    34 C    0.976
   104   1 H    0.996 --    33 C    0.979
   105   1 H    0.992 --    33 C    0.975
   106   1 H    0.995 --    33 C    0.979
   107   1 H    0.997 --    36 C    0.983
   108   1 H    0.992 --    36 C    0.976
   109   1 H    0.993 --    36 C    0.977
   110   1 H    0.996 --    35 C    0.979
   111   1 H    0.992 --    35 C    0.975
   112   1 H    0.995 --    35 C    0.979
 ---------------------------------------------------------------------------

Topologies differ in bond orders
Writing corrected topology to xtbtopo.mol

molecular dipole:
                 x           y           z       tot (Debye)
 q only:       -2.510       1.568      -1.458
   full:       -2.347       1.775      -1.599       8.513
molecular quadrupole (traceless):
                xx          xy          yy          xz          yz          zz
 q only:       -8.566     -10.542      25.226      58.421     -35.811     -16.660
  q+dip:       -5.984     -13.406      34.882      54.210     -33.030     -28.898
   full:       -9.453     -11.285      28.617      49.682     -36.346     -19.164
Note: The following floating-point exceptions are signalling: IEEE_UNDERFLOW_FLAG
normal termination of xtb


           -------------------------------------------------
          | TOTAL ENERGY             -166.019214555194 Eh   |
          | GRADIENT NORM               0.062091312244 Eh/α |
          | HOMO-LUMO GAP               0.004514683564 eV   |
           -------------------------------------------------
########################################################################
[WARNING] Runtime exception occurred
-2- restart_readRestart: Multiplicity missmatch in restart file.
-1- restart_readRestart: Number of electron missmatch in restart file.
########################################################################

------------------------------------------------------------------------
 * finished run on 2024/11/14 at 10:51:01.710     
------------------------------------------------------------------------
 total:
 * wall-time:     0 d,  0 h,  0 min,  1.286 sec
 *  cpu-time:     0 d,  0 h,  0 min,  4.139 sec
 * ratio c/w:     3.219 speedup
 SCF:
 * wall-time:     0 d,  0 h,  0 min,  1.271 sec
 *  cpu-time:     0 d,  0 h,  0 min,  4.112 sec
 * ratio c/w:     3.235 speedup

