      -----------------------------------------------------------      
     |                   =====================                   |     
     |                           x T B                           |     
     |                   =====================                   |     
     |                         S. Grimme                         |     
     |          Mulliken Center for Theoretical Chemistry        |     
     |                    University of Bonn                     |     
      -----------------------------------------------------------      

   * xtb version 6.6.1 (8d0f1dd) compiled by 'runner@Mac-1690902418499.local' on 2023-08-01

   xtb is free software: you can redistribute it and/or modify it under
   the terms of the GNU Lesser General Public License as published by
   the Free Software Foundation, either version 3 of the License, or
   (at your option) any later version.
   
   xtb is distributed in the hope that it will be useful,
   but WITHOUT ANY WARRANTY; without even the implied warranty of
   MERCHANTABILITY or FITNESS FOR A PARTICULAR PURPOSE.  See the
   GNU Lesser General Public License for more details.
   
   Cite this work as:
   * C. Bannwarth, E. Caldeweyher, S. Ehlert, A. Hansen, P. Pracht,
     J. Seibert, S. Spicher, S. Grimme, WIREs Comput. Mol. Sci., 2020, 11,
     e01493. DOI: 10.1002/wcms.1493
   
   for GFN2-xTB:
   * C. Bannwarth, S. Ehlert and S. Grimme., J. Chem. Theory Comput., 2019,
     15, 1652-1671. DOI: 10.1021/acs.jctc.8b01176
   for GFN1-xTB:
   * S. Grimme, C. Bannwarth, P. Shushkov, J. Chem. Theory Comput., 2017,
     13, 1989-2009. DOI: 10.1021/acs.jctc.7b00118
   for GFN0-xTB:
   * P. Pracht, E. Caldeweyher, S. Ehlert, S. Grimme, ChemRxiv, 2019, preprint.
     DOI: 10.26434/chemrxiv.8326202.v1
   for GFN-FF:
   * S. Spicher and S. Grimme, Angew. Chem. Int. Ed., 2020, 59, 15665-15673.
     DOI: 10.1002/anie.202004239
   
   for ALPB and GBSA implicit solvation:
   * S. Ehlert, M. Stahn, S. Spicher, S. Grimme, J. Chem. Theory Comput.,
     2021, 17, 4250-4261. DOI: 10.1021/acs.jctc.1c00471
   
   for DFT-D4:
   * E. Caldeweyher, C. Bannwarth and S. Grimme, J. Chem. Phys., 2017,
     147, 034112. DOI: 10.1063/1.4993215
   * E. Caldeweyher, S. Ehlert, A. Hansen, H. Neugebauer, S. Spicher,
     C. Bannwarth and S. Grimme, J. Chem. Phys., 2019, 150, 154122.
     DOI: 10.1063/1.5090222
   * E. Caldeweyher, J.-M. Mewes, S. Ehlert and S. Grimme, Phys. Chem. Chem. Phys.
     2020, 22, 8499-8512. DOI: 10.1039/D0CP00502A
   
   for sTDA-xTB:
   * S. Grimme and C. Bannwarth, J. Chem. Phys., 2016, 145, 054103.
     DOI: 10.1063/1.4959605
   
   in the mass-spec context:
   * V. Asgeirsson, C. Bauer and S. Grimme, Chem. Sci., 2017, 8, 4879.
     DOI: 10.1039/c7sc00601b
   * J. Koopman and S. Grimme, ACS Omega 2019, 4, 12, 15120-15133.
     DOI: 10.1021/acsomega.9b02011
   
   for metadynamics refer to:
   * S. Grimme, J. Chem. Theory Comput., 2019, 155, 2847-2862
     DOI: 10.1021/acs.jctc.9b00143
   
   for SPH calculations refer to:
   * S. Spicher and S. Grimme, J. Chem. Theory Comput., 2021, 17, 1701-1714
     DOI: 10.1021/acs.jctc.0c01306
   
   with help from (in alphabetical order)
   P. Atkinson, C. Bannwarth, F. Bohle, G. Brandenburg, E. Caldeweyher
   M. Checinski, S. Dohm, S. Ehlert, S. Ehrlich, I. Gerasimov, C. Hölzer
   A. Katbashev, J. Koopman, C. Lavigne, S. Lehtola, F. März, M. Müller,
   F. Musil, H. Neugebauer, J. Pisarek, C. Plett, P. Pracht, F. Pultar,
   J. Seibert, P. Shushkov, S. Spicher, M. Stahn, M. Steiner, T. Strunk,
   J. Stückrath, T. Rose, and J. Unsleber
   
 * started run on 2024/11/14 at 10:48:24.921     

           -------------------------------------------------
          |                Calculation Setup                |
           -------------------------------------------------

          program call               : xtb Nitro3.mol --opt --gfn2 --chrg 1 --uhf 1 --tight
          coordinate file            : Nitro3.mol
          omp threads                :                     8

   ID    Z sym.   atoms
    1    6 C      1-42, 45, 46, 48-51
    2    7 N      43, 52, 54, 56, 58
    3   14 Si     44
    4    8 O      47, 53, 55, 57, 59
    5    1 H      60-112
########################################################################
[WARNING] Please study the warnings concerning your input carefully
-1- prog_main_parseArguments: Unknown option '--tight' provided
########################################################################

           -------------------------------------------------
          |                 G F N 2 - x T B                 |
           -------------------------------------------------

        Reference                      10.1021/acs.jctc.8b01176
      * Hamiltonian:
        H0-scaling (s, p, d)           1.850000    2.230000    2.230000
        zeta-weighting                 0.500000
      * Dispersion:
        s8                             2.700000
        a1                             0.520000
        a2                             5.000000
        s9                             5.000000
      * Repulsion:
        kExp                           1.500000    1.000000
        rExp                           1.000000
      * Coulomb:
        alpha                          2.000000
        third order                    shell-resolved
        anisotropic                    true
        a3                             3.000000
        a5                             4.000000
        cn-shift                       1.200000
        cn-exp                         4.000000
        max-rad                        5.000000

q/qsh data taken from xtbrestart
CAMM data taken from xtbrestart

          ...................................................
          :                      SETUP                      :
          :.................................................:
          :  # basis functions                 295          :
          :  # atomic orbitals                 294          :
          :  # shells                          172          :
          :  # electrons                       303          :
          :  max. iterations                   250          :
          :  Hamiltonian                  GFN2-xTB          :
          :  restarted?                       true          :
          :  GBSA solvation                  false          :
          :  PC potential                    false          :
          :  electronic temp.          300.0000000     K    :
          :  accuracy                    1.0000000          :
          :  -> integral cutoff          0.2500000E+02      :
          :  -> integral neglect         0.1000000E-07      :
          :  -> SCF convergence          0.1000000E-05 Eh   :
          :  -> wf. convergence          0.1000000E-03 e    :
          :  Broyden damping             0.4000000          :
          ...................................................

 iter      E             dE          RMSdq      gap      omega  full diag
   1   -167.4542654 -0.167454E+03  0.257E+00    0.05       0.0  T
   2   -167.0008918  0.453374E+00  0.229E+00    0.12       1.0  T
   3   -166.1491882  0.851704E+00  0.323E+00    0.25       1.0  T
   4   -167.4422821 -0.129309E+01  0.152E+00    0.97       1.0  T
   5   -167.2380165  0.204266E+00  0.141E+00    0.71       1.0  T
   6   -167.3115649 -0.735484E-01  0.133E+00    0.48       1.0  T
   7   -167.5815458 -0.269981E+00  0.108E+00    0.07       1.0  T
   8   -167.5981341 -0.165884E-01  0.990E-01    0.03       1.0  T
   9   -167.2791059  0.319028E+00  0.110E+00    0.00       1.0  T
  10   -167.5486479 -0.269542E+00  0.981E-01    0.18       1.0  T
  11   -167.6067580 -0.581101E-01  0.756E-01    0.00       1.0  T
  12   -167.5676552  0.391028E-01  0.702E-01    0.14       1.0  T
  13   -167.5946898 -0.270346E-01  0.478E-01    0.06       1.0  T
  14   -167.6253412 -0.306514E-01  0.344E-01    0.04       1.0  T
  15   -167.5627352  0.626060E-01  0.561E-01    0.10       1.0  T
  16   -167.6111234 -0.483882E-01  0.364E-01    0.05       1.0  T
  17   -167.6429450 -0.318215E-01  0.156E-01    0.01       1.0  T
  18   -167.6385782  0.436680E-02  0.164E-01    0.01       1.0  T
  19   -167.6418483 -0.327014E-02  0.175E-01    0.01       1.0  T
  20   -167.6412868  0.561552E-03  0.112E-01    0.00       1.0  T
  21   -167.6384366  0.285013E-02  0.127E-01    0.00       1.0  T
  22   -167.6438740 -0.543739E-02  0.648E-02    0.00       1.0  T
  23   -167.6437986  0.753857E-04  0.592E-02    0.00       1.0  T
  24   -167.6438370 -0.383084E-04  0.464E-02    0.01       1.0  T
  25   -167.6439471 -0.110142E-03  0.191E-02    0.01       1.0  T
  26   -167.6440135 -0.664081E-04  0.129E-02    0.01       1.0  T
  27   -167.6440652 -0.517052E-04  0.525E-03    0.01       1.8  T
  28   -167.6440698 -0.457097E-05  0.217E-03    0.01       4.4  T
  29   -167.6440700 -0.239889E-06  0.110E-03    0.01       8.6  T
  30   -167.6440702 -0.154998E-06  0.359E-04    0.01      26.3  T
  31   -167.6440702 -0.219889E-07  0.128E-04    0.01      73.9  T

   *** convergence criteria satisfied after 31 iterations ***

         #    Occupation            Energy/Eh            Energy/eV
      -------------------------------------------------------------
         1        2.0000           -0.8887372             -24.1838
       ...           ...                  ...                  ...
       146        2.0000           -0.4463675             -12.1463
       147        2.0000           -0.4424544             -12.0398
       148        2.0000           -0.4349593             -11.8358
       149        2.0000           -0.4278220             -11.6416
       150        1.9789           -0.4203229             -11.4376
       151        1.6348           -0.4173339             -11.3562
       152        0.7326           -0.4150388             -11.2938 (HOMO)
       153        0.6537           -0.4148424             -11.2884 (LUMO)
       154                         -0.3485252              -9.4839
       155                         -0.3474020              -9.4533
       156                         -0.3389241              -9.2226
       157                         -0.3353868              -9.1263
       ...                                ...                  ...
       294                          3.1243352              85.0175
      -------------------------------------------------------------
                  HL-Gap            0.0001964 Eh            0.0053 eV
             Fermi-level           -0.4156686 Eh          -11.3109 eV

 SCC (total)                   0 d,  0 h,  0 min,  2.096 sec
 SCC setup                      ...        0 min,  0.000 sec (  0.015%)
 Dispersion                     ...        0 min,  0.001 sec (  0.052%)
 classical contributions        ...        0 min,  0.000 sec (  0.015%)
 integral evaluation            ...        0 min,  0.005 sec (  0.244%)
 iterations                     ...        0 min,  1.987 sec ( 94.800%)
 molecular gradient             ...        0 min,  0.084 sec (  3.999%)
 printout                       ...        0 min,  0.018 sec (  0.873%)

         :::::::::::::::::::::::::::::::::::::::::::::::::::::
         ::                     SUMMARY                     ::
         :::::::::::::::::::::::::::::::::::::::::::::::::::::
         :: total energy            -165.291491507875 Eh    ::
         :: gradient norm              0.930478658245 Eh/a0 ::
         :: HOMO-LUMO gap              0.005344050087 eV    ::
         ::.................................................::
         :: SCC energy              -167.644070195040 Eh    ::
         :: -> isotropic ES            0.203742512357 Eh    ::
         :: -> anisotropic ES          0.010633645637 Eh    ::
         :: -> anisotropic XC          0.061396442090 Eh    ::
         :: -> dispersion             -0.159422108356 Eh    ::
         :: repulsion energy           2.347490822389 Eh    ::
         :: add. restraining           0.000000000000 Eh    ::
         :: total charge               0.999999201986 e     ::
         :::::::::::::::::::::::::::::::::::::::::::::::::::::

      ----------------------------------------------------------- 
     |                   =====================                   |
     |                        A N C O P T                        |
     |                   =====================                   |
     |               Approximate Normal Coordinate               |
     |                Rational Function Optimizer                |
      ----------------------------------------------------------- 

          ...................................................
          :                      SETUP                      :
          :.................................................:
          :   optimization level            normal          :
          :   max. optcycles                   336          :
          :   ANC micro-cycles                  20          :
          :   degrees of freedom               330          :
          :.................................................:
          :   RF solver                   davidson          :
          :   write xtbopt.log                true          :
          :   linear?                        false          :
          :   energy convergence         0.5000000E-05 Eh   :
          :   grad. convergence          0.1000000E-02 Eh/α :
          :   maxmium RF displ.          1.0000000          :
          :   Hlow (freq-cutoff)         0.1000000E-01      :
          :   Hmax (freq-cutoff)         5.0000000          :
          :   S6 in model hess.         20.0000000          :
          ...................................................

generating ANC from model Hessian ...
Using Lindh-Hessian (1995)
 Shifting diagonal of input Hessian by    1.0070321545050302E-002
 Lowest  eigenvalues of input Hessian
    0.010000    0.010053    0.000000    0.000000    0.000000    0.000000
    0.000000    0.000000    0.010078    0.010095    0.010128    0.010143
    0.010308    0.010435    0.010812    0.010837    0.011082    0.011214
 Highest eigenvalues
    1.960519    2.027206    2.056571    2.411695    2.466613    3.353539


........................................................................
.............................. CYCLE    1 ..............................
........................................................................

 iter      E             dE          RMSdq      gap      omega  full diag
   1   -167.6440702 -0.167644E+03  0.116E-04    0.01       0.0  T
   2   -167.6440663  0.390067E-05  0.377E-03    0.00       2.5  T
   3   -167.6440702 -0.390374E-05  0.497E-05    0.01     190.0  T
   4   -167.6440702 -0.208615E-09  0.313E-05    0.01     301.5  T
   5   -167.6440702  0.515598E-08  0.138E-04    0.01      68.5  T
     SCC iter.                  ...        0 min,  0.265 sec
     gradient                   ...        0 min,  0.035 sec
 * total energy  :  -165.2914915 Eh     change        0.1524512E-08 Eh
   gradient norm :     0.9304745 Eh/α   predicted     0.0000000E+00 (-100.00%)
   displ. norm   :     0.5868513 α      lambda       -0.4889805E+00
   maximum displ.:     0.3846414 α      in ANC's #310, #132, #143, ...

........................................................................
.............................. CYCLE    2 ..............................
........................................................................

 iter      E             dE          RMSdq      gap      omega  full diag
   1   -167.7577515 -0.167758E+03  0.661E-01    0.02       0.0  T
   2   -167.1052514  0.652500E+00  0.159E+00    0.94       1.0  T
   3   -167.7437340 -0.638483E+00  0.524E-01    0.07       1.0  T
   4   -167.6029885  0.140746E+00  0.871E-01    0.50       1.0  T
   5   -167.7561160 -0.153128E+00  0.433E-01    0.06       1.0  T
   6   -167.6239059  0.132210E+00  0.744E-01    0.05       1.0  T
   7   -167.7779484 -0.154042E+00  0.288E-01    0.04       1.0  T
   8   -167.5175227  0.260426E+00  0.901E-01    0.05       1.0  T
   9   -167.7675162 -0.249993E+00  0.354E-01    0.06       1.0  T
  10   -167.7373365  0.301797E-01  0.432E-01    0.01       1.0  T
  11   -167.6196071  0.117729E+00  0.745E-01    0.01       1.0  T
  12   -167.7844725 -0.164865E+00  0.224E-01    0.02       1.0  T
  13   -167.7869848 -0.251231E-02  0.225E-01    0.03       1.0  T
  14   -167.7726453  0.143395E-01  0.308E-01    0.04       1.0  T
  15   -167.7939133 -0.212681E-01  0.138E-01    0.01       1.0  T
  16   -167.7946763 -0.763017E-03  0.128E-01    0.01       1.0  T
  17   -167.7991997 -0.452333E-02  0.559E-02    0.01       1.0  T
  18   -167.8000575 -0.857802E-03  0.223E-02    0.01       1.0  T
  19   -167.8001318 -0.743007E-04  0.167E-02    0.01       1.0  T
  20   -167.8002161 -0.843446E-04  0.421E-03    0.01       2.2  T
  21   -167.8002186 -0.243835E-05  0.280E-03    0.01       3.4  T
  22   -167.8002208 -0.227340E-05  0.328E-04    0.01      28.8  T
  23   -167.8002204  0.476287E-06  0.122E-03    0.01       7.7  T
  24   -167.8002207 -0.348811E-06  0.672E-04    0.01      14.1  T
  25   -167.8002208 -0.126577E-06  0.288E-04    0.01      32.8  T
     SCC iter.                  ...        0 min,  1.226 sec
     gradient                   ...        0 min,  0.046 sec
 * total energy  :  -165.6041865 Eh     change       -0.3126950E+00 Eh
   gradient norm :     0.3242482 Eh/α   predicted    -0.3286967E+00 (   5.12%)
   displ. norm   :     0.6201055 α      lambda       -0.1429097E+00
   maximum displ.:     0.1921346 α      in ANC's #143, #121, #132, ...

........................................................................
.............................. CYCLE    3 ..............................
........................................................................

 iter      E             dE          RMSdq      gap      omega  full diag
   1   -167.9209471 -0.167921E+03  0.467E-01    0.01       0.0  T
   2   -167.2054699  0.715477E+00  0.162E+00    0.81       1.0  T
   3   -167.9089093 -0.703439E+00  0.425E-01    0.05       1.0  T
   4   -167.8190084  0.899009E-01  0.703E-01    0.38       1.0  T
   5   -167.8894645 -0.704561E-01  0.468E-01    0.13       1.0  T
   6   -167.9083712 -0.189067E-01  0.390E-01    0.07       1.0  T
   7   -167.9323256 -0.239545E-01  0.252E-01    0.04       1.0  T
   8   -167.9441815 -0.118558E-01  0.124E-01    0.01       1.0  T
   9   -167.9398208  0.436067E-02  0.170E-01    0.01       1.0  T
  10   -167.9485893 -0.876854E-02  0.510E-02    0.01       1.0  T
  11   -167.9423790  0.621034E-02  0.147E-01    0.01       1.0  T
  12   -167.9481518 -0.577284E-02  0.612E-02    0.01       1.0  T
  13   -167.9492663 -0.111452E-02  0.106E-02    0.01       1.0  T
  14   -167.9489493  0.317072E-03  0.350E-02    0.01       1.0  T
  15   -167.9492092 -0.259925E-03  0.162E-02    0.01       1.0  T
  16   -167.9492387 -0.294888E-04  0.132E-02    0.01       1.0  T
  17   -167.9492798 -0.410849E-04  0.470E-03    0.01       2.0  T
  18   -167.9492782  0.153735E-05  0.545E-03    0.01       1.7  T
  19   -167.9492837 -0.549299E-05  0.327E-03    0.01       2.9  T
  20   -167.9492865 -0.274676E-05  0.972E-04    0.01       9.7  T
  21   -167.9492867 -0.226530E-06  0.354E-04    0.01      26.7  T
  22   -167.9492867 -0.218124E-07  0.192E-04    0.01      49.2  T
     SCC iter.                  ...        0 min,  1.101 sec
     gradient                   ...        0 min,  0.036 sec
 * total energy  :  -165.7161816 Eh     change       -0.1119951E+00 Eh
   gradient norm :     0.1707804 Eh/α   predicted    -0.9893144E-01 ( -11.66%)
   displ. norm   :     0.6921747 α      lambda       -0.8709195E-01
   maximum displ.:     0.2941902 α      in ANC's #132, #63, #143, ...

........................................................................
.............................. CYCLE    4 ..............................
........................................................................

 iter      E             dE          RMSdq      gap      omega  full diag
   1   -168.0427210 -0.168043E+03  0.397E-01    0.01       0.0  T
   2   -167.3685682  0.674153E+00  0.153E+00    0.73       1.0  T
   3   -168.0407456 -0.672177E+00  0.310E-01    0.01       1.0  T
   4   -167.9315762  0.109169E+00  0.687E-01    0.22       1.0  T
   5   -167.9901500 -0.585738E-01  0.510E-01    0.17       1.0  T
   6   -168.0564573 -0.663073E-01  0.139E-01    0.01       1.0  T
   7   -168.0194843  0.369731E-01  0.350E-01    0.01       1.0  T
   8   -168.0596632 -0.401790E-01  0.865E-02    0.01       1.0  T
   9   -168.0405528  0.191104E-01  0.249E-01    0.01       1.0  T
  10   -168.0577552 -0.172024E-01  0.106E-01    0.01       1.0  T
  11   -168.0610524 -0.329724E-02  0.324E-02    0.01       1.0  T
  12   -168.0612812 -0.228760E-03  0.101E-02    0.01       1.0  T
  13   -168.0611845  0.966669E-04  0.192E-02    0.01       1.0  T
  14   -168.0611770  0.749550E-05  0.198E-02    0.01       1.0  T
  15   -168.0612653 -0.883055E-04  0.931E-03    0.01       1.0  T
  16   -168.0612869 -0.216034E-04  0.462E-03    0.01       2.0  T
  17   -168.0612864  0.536945E-06  0.458E-03    0.01       2.1  T
  18   -168.0612923 -0.592738E-05  0.137E-03    0.01       6.9  T
  19   -168.0612929 -0.572187E-06  0.404E-04    0.01      23.4  T
  20   -168.0612928  0.410891E-07  0.506E-04    0.01      18.7  T
     SCC iter.                  ...        0 min,  1.008 sec
     gradient                   ...        0 min,  0.037 sec
 * total energy  :  -165.7846920 Eh     change       -0.6851035E-01 Eh
   gradient norm :     0.0901928 Eh/α   predicted    -0.6440913E-01 (  -5.99%)
   displ. norm   :     0.7541362 α      lambda       -0.5353391E-01
   maximum displ.:     0.3105532 α      in ANC's #132, #63, #33, ...

........................................................................
.............................. CYCLE    5 ..............................
........................................................................

 iter      E             dE          RMSdq      gap      omega  full diag
   1   -168.1171160 -0.168117E+03  0.326E-01    0.02       0.0  T
   2   -167.4959556  0.621160E+00  0.141E+00    0.51       1.0  T
   3   -168.1025026 -0.606547E+00  0.330E-01    0.05       1.0  T
   4   -167.8218258  0.280677E+00  0.101E+00    0.24       1.0  T
   5   -168.1186781 -0.296852E+00  0.198E-01    0.01       1.0  T
   6   -168.1212011 -0.252298E-02  0.164E-01    0.02       1.0  T
   7   -168.1101386  0.110625E-01  0.242E-01    0.02       1.0  T
   8   -168.1219008 -0.117622E-01  0.148E-01    0.02       1.0  T
   9   -168.1135242  0.837658E-02  0.221E-01    0.02       1.0  T
  10   -168.1256393 -0.121150E-01  0.911E-02    0.01       1.0  T
  11   -168.1278044 -0.216517E-02  0.340E-02    0.01       1.0  T
  12   -168.1278584 -0.539593E-04  0.287E-02    0.01       1.0  T
  13   -168.1278275  0.308936E-04  0.309E-02    0.01       1.0  T
  14   -168.1280781 -0.250591E-03  0.734E-03    0.01       1.3  T
  15   -168.1280861 -0.802547E-05  0.441E-03    0.01       2.1  T
  16   -168.1280879 -0.182151E-05  0.322E-03    0.01       2.9  T
  17   -168.1280898 -0.189290E-05  0.172E-03    0.01       5.5  T
  18   -168.1280904 -0.556474E-06  0.907E-04    0.01      10.4  T
  19   -168.1280906 -0.240468E-06  0.277E-04    0.01      34.2  T
     SCC iter.                  ...        0 min,  0.904 sec
     gradient                   ...        0 min,  0.039 sec
 * total energy  :  -165.8290545 Eh     change       -0.4436250E-01 Eh
   gradient norm :     0.0575624 Eh/α   predicted    -0.4199022E-01 (  -5.35%)
   displ. norm   :     0.7951805 α      lambda       -0.3733565E-01
   maximum displ.:     0.2963765 α      in ANC's #132, #33, #63, ...

........................................................................
.............................. CYCLE    6 ..............................
........................................................................

 iter      E             dE          RMSdq      gap      omega  full diag
   1   -168.1780953 -0.168178E+03  0.273E-01    0.01       0.0  T
   2   -167.5565797  0.621516E+00  0.139E+00    0.52       1.0  T
   3   -168.1650388 -0.608459E+00  0.310E-01    0.04       1.0  T
   4   -168.0710146  0.940242E-01  0.651E-01    0.32       1.0  T
   5   -168.1817704 -0.110756E+00  0.155E-01    0.01       1.0  T
   6   -168.1834965 -0.172610E-02  0.105E-01    0.01       1.0  T
   7   -168.1807670  0.272942E-02  0.135E-01    0.01       1.0  T
   8   -168.1707149  0.100522E-01  0.232E-01    0.04       1.0  T
   9   -168.1847976 -0.140827E-01  0.642E-02    0.01       1.0  T
  10   -168.1844955  0.302116E-03  0.645E-02    0.01       1.0  T
  11   -168.1851988 -0.703330E-03  0.408E-02    0.01       1.0  T
  12   -168.1847938  0.405046E-03  0.558E-02    0.01       1.0  T
  13   -168.1853023 -0.508532E-03  0.354E-02    0.01       1.0  T
  14   -168.1856462 -0.343861E-03  0.737E-03    0.01       1.3  T
  15   -168.1856493 -0.316430E-05  0.568E-03    0.01       1.7  T
  16   -168.1856585 -0.918286E-05  0.149E-03    0.01       6.3  T
  17   -168.1856589 -0.447967E-06  0.110E-03    0.01       8.6  T
  18   -168.1856592 -0.257253E-06  0.465E-04    0.01      20.3  T
  19   -168.1856593 -0.669290E-07  0.140E-04    0.01      67.6  T
     SCC iter.                  ...        0 min,  0.872 sec
     gradient                   ...        0 min,  0.038 sec
 * total energy  :  -165.8604911 Eh     change       -0.3143663E-01 Eh
   gradient norm :     0.0420491 Eh/α   predicted    -0.3047172E-01 (  -3.07%)
   displ. norm   :     0.8045575 α      lambda       -0.2639512E-01
   maximum displ.:     0.2623293 α      in ANC's #33, #132, #28, ...

........................................................................
.............................. CYCLE    7 ..............................
........................................................................

 iter      E             dE          RMSdq      gap      omega  full diag
   1   -168.2215685 -0.168222E+03  0.218E-01    0.01       0.0  T
   2   -167.6410342  0.580534E+00  0.129E+00    0.32       1.0  T
   3   -168.2089342 -0.567900E+00  0.272E-01    0.04       1.0  T
   4   -168.1105860  0.983482E-01  0.653E-01    0.25       1.0  T
   5   -168.2211094 -0.110523E+00  0.147E-01    0.01       1.0  T
   6   -168.2217678 -0.658385E-03  0.119E-01    0.02       1.0  T
   7   -168.2143988  0.736898E-02  0.181E-01    0.02       1.0  T
   8   -168.2188689 -0.447008E-02  0.150E-01    0.02       1.0  T
   9   -168.2236574 -0.478854E-02  0.636E-02    0.01       1.0  T
  10   -168.2240912 -0.433730E-03  0.446E-02    0.01       1.0  T
  11   -168.2241388 -0.476044E-04  0.391E-02    0.01       1.0  T
  12   -168.2245100 -0.371257E-03  0.189E-02    0.01       1.0  T
  13   -168.2246155 -0.105521E-03  0.523E-03    0.01       1.8  T
  14   -168.2246136  0.192601E-05  0.489E-03    0.01       1.9  T
  15   -168.2246157 -0.206004E-05  0.400E-03    0.01       2.4  T
  16   -168.2246195 -0.384351E-05  0.212E-03    0.01       4.5  T
  17   -168.2246206 -0.111056E-05  0.765E-04    0.01      12.4  T
  18   -168.2246208 -0.154973E-06  0.186E-04    0.01      50.9  T
  19   -168.2246208 -0.630396E-08  0.937E-05    0.01     100.9  T
     SCC iter.                  ...        0 min,  1.027 sec
     gradient                   ...        0 min,  0.034 sec
 * total energy  :  -165.8828037 Eh     change       -0.2231262E-01 Eh
   gradient norm :     0.0316525 Eh/α   predicted    -0.2174052E-01 (  -2.56%)
   displ. norm   :     0.8102311 α      lambda       -0.1896019E-01
   maximum displ.:     0.2604114 α      in ANC's #33, #22, #28, ...

........................................................................
.............................. CYCLE    8 ..............................
........................................................................

 iter      E             dE          RMSdq      gap      omega  full diag
   1   -168.2618929 -0.168262E+03  0.178E-01    0.01       0.0  T
   2   -167.6632236  0.598669E+00  0.130E+00    0.21       1.0  T
   3   -168.2563572 -0.593134E+00  0.207E-01    0.01       1.0  T
   4   -168.1462779  0.110079E+00  0.657E-01    0.18       1.0  T
   5   -168.2558404 -0.109562E+00  0.186E-01    0.02       1.0  T
   6   -168.2584005 -0.256011E-02  0.151E-01    0.02       1.0  T
   7   -168.2640877 -0.568718E-02  0.517E-02    0.01       1.0  T
   8   -168.2638184  0.269251E-03  0.522E-02    0.01       1.0  T
   9   -168.2616687  0.214975E-02  0.889E-02    0.01       1.0  T
  10   -168.2639606 -0.229191E-02  0.336E-02    0.01       1.0  T
  11   -168.2642002 -0.239584E-03  0.168E-02    0.01       1.0  T
  12   -168.2642823 -0.820570E-04  0.562E-03    0.01       1.7  T
  13   -168.2642638  0.184796E-04  0.969E-03    0.01       1.0  T
  14   -168.2642777 -0.139353E-04  0.619E-03    0.01       1.5  T
  15   -168.2642870 -0.927805E-05  0.324E-03    0.01       2.9  T
  16   -168.2642886 -0.157669E-05  0.259E-03    0.01       3.6  T
  17   -168.2642904 -0.180803E-05  0.558E-04    0.01      16.9  T
  18   -168.2642904 -0.770669E-08  0.518E-04    0.01      18.3  T
  19   -168.2642904 -0.695082E-07  0.188E-04    0.01      50.1  T
     SCC iter.                  ...        0 min,  1.017 sec
     gradient                   ...        0 min,  0.035 sec
 * total energy  :  -165.8987244 Eh     change       -0.1592063E-01 Eh
   gradient norm :     0.0228830 Eh/α   predicted    -0.1570357E-01 (  -1.36%)
   displ. norm   :     0.8038586 α      lambda       -0.1333348E-01
   maximum displ.:     0.2497028 α      in ANC's #22, #9, #33, ...

........................................................................
.............................. CYCLE    9 ..............................
........................................................................

 iter      E             dE          RMSdq      gap      omega  full diag
   1   -168.2875656 -0.168288E+03  0.144E-01    0.01       0.0  T
   2   -168.2742399  0.133257E-01  0.250E-01    0.04       1.0  T
   3   -168.2363642  0.378757E-01  0.442E-01    0.09       1.0  T
   4   -168.2788331 -0.424689E-01  0.176E-01    0.01       1.0  T
   5   -168.0417198  0.237113E+00  0.815E-01    0.03       1.0  T
   6   -168.2779853 -0.236266E+00  0.172E-01    0.01       1.0  T
   7   -168.2785039 -0.518604E-03  0.172E-01    0.01       1.0  T
   8   -168.2795175 -0.101355E-02  0.158E-01    0.01       1.0  T
   9   -168.2817331 -0.221561E-02  0.132E-01    0.01       1.0  T
  10   -168.2859374 -0.420430E-02  0.711E-02    0.01       1.0  T
  11   -168.2876249 -0.168756E-02  0.158E-02    0.01       1.0  T
  12   -168.2871521  0.472830E-03  0.388E-02    0.01       1.0  T
  13   -168.2875680 -0.415908E-03  0.193E-02    0.01       1.0  T
  14   -168.2877005 -0.132524E-03  0.194E-03    0.01       4.9  T
  15   -168.2876933  0.723268E-05  0.468E-03    0.01       2.0  T
  16   -168.2877015 -0.816564E-05  0.432E-04    0.01      21.9  T
  17   -168.2877004  0.106357E-05  0.176E-03    0.01       5.4  T
  18   -168.2877014 -0.931121E-06  0.712E-04    0.01      13.3  T
  19   -168.2877015 -0.167541E-06  0.173E-04    0.01      54.7  T
     SCC iter.                  ...        0 min,  1.159 sec
     gradient                   ...        0 min,  0.040 sec
 * total energy  :  -165.9098131 Eh     change       -0.1108872E-01 Eh
   gradient norm :     0.0165639 Eh/α   predicted    -0.1097473E-01 (  -1.03%)
   displ. norm   :     0.7945235 α      lambda       -0.9439923E-02
   maximum displ.:     0.2902709 α      in ANC's #9, #22, #21, ...

........................................................................
.............................. CYCLE   10 ..............................
........................................................................

 iter      E             dE          RMSdq      gap      omega  full diag
   1   -168.3127423 -0.168313E+03  0.120E-01    0.01       0.0  T
   2   -167.9467301  0.366012E+00  0.103E+00    0.01       1.0  T
   3   -168.3077336 -0.361003E+00  0.160E-01    0.01       1.0  T
   4   -168.2204995  0.872341E-01  0.572E-01    0.09       1.0  T
   5   -168.3104352 -0.899357E-01  0.117E-01    0.01       1.0  T
   6   -168.3090724  0.136277E-02  0.123E-01    0.01       1.0  T
   7   -168.3125973 -0.352485E-02  0.644E-02    0.01       1.0  T
   8   -168.3134875 -0.890226E-03  0.330E-02    0.01       1.0  T
   9   -168.3130621  0.425341E-03  0.433E-02    0.01       1.0  T
  10   -168.3123895  0.672617E-03  0.633E-02    0.01       1.0  T
  11   -168.3135510 -0.116145E-02  0.221E-02    0.01       1.0  T
  12   -168.3137000 -0.149017E-03  0.259E-03    0.01       3.6  T
  13   -168.3136881  0.119187E-04  0.679E-03    0.01       1.4  T
  14   -168.3137008 -0.127785E-04  0.158E-03    0.01       6.0  T
  15   -168.3137015 -0.697272E-06  0.495E-04    0.01      19.1  T
  16   -168.3137016 -0.123516E-07  0.410E-04    0.01      23.1  T
     SCC iter.                  ...        0 min,  1.123 sec
     gradient                   ...        0 min,  0.039 sec
 * total energy  :  -165.9177423 Eh     change       -0.7929241E-02 Eh
   gradient norm :     0.0143957 Eh/α   predicted    -0.7699580E-02 (  -2.90%)
   displ. norm   :     0.8033648 α      lambda       -0.7173723E-02
   maximum displ.:     0.3522682 α      in ANC's #9, #22, #18, ...

........................................................................
.............................. CYCLE   11 ..............................
........................................................................

 iter      E             dE          RMSdq      gap      omega  full diag
   1   -168.3250537 -0.168325E+03  0.130E-01    0.01       0.0  T
   2   -168.1736880  0.151366E+00  0.747E-01    0.38       1.0  T
   3   -168.3123079 -0.138620E+00  0.223E-01    0.03       1.0  T
   4   -168.2970173  0.152906E-01  0.293E-01    0.01       1.0  T
   5   -168.2835791  0.134382E-01  0.386E-01    0.07       1.0  T
   6   -168.3169950 -0.334159E-01  0.177E-01    0.01       1.0  T
   7   -168.3200258 -0.303085E-02  0.148E-01    0.01       1.0  T
   8   -168.3241691 -0.414326E-02  0.943E-02    0.01       1.0  T
   9   -168.3252301 -0.106099E-02  0.745E-02    0.01       1.0  T
  10   -168.3158292  0.940090E-02  0.176E-01    0.01       1.0  T
  11   -168.3257334 -0.990428E-02  0.706E-02    0.02       1.0  T
  12   -168.3259083 -0.174889E-03  0.640E-02    0.01       1.0  T
  13   -168.3269709 -0.106259E-02  0.232E-02    0.01       1.0  T
  14   -168.3271121 -0.141208E-03  0.118E-02    0.01       1.0  T
  15   -168.3271467 -0.345813E-04  0.689E-03    0.01       1.4  T
  16   -168.3271598 -0.130453E-04  0.117E-03    0.01       8.0  T
  17   -168.3271601 -0.335351E-06  0.358E-04    0.01      26.4  T
  18   -168.3271600  0.566770E-07  0.561E-04    0.01      16.8  T
     SCC iter.                  ...        0 min,  0.789 sec
     gradient                   ...        0 min,  0.040 sec
 * total energy  :  -165.9239689 Eh     change       -0.6226571E-02 Eh
   gradient norm :     0.0149866 Eh/α   predicted    -0.5901803E-02 (  -5.22%)
   displ. norm   :     0.8176242 α      lambda       -0.6017688E-02
   maximum displ.:     0.3976713 α      in ANC's #9, #18, #22, ...

........................................................................
.............................. CYCLE   12 ..............................
........................................................................

 iter      E             dE          RMSdq      gap      omega  full diag
   1   -168.3379634 -0.168338E+03  0.136E-01    0.02       0.0  T
   2   -168.0109732  0.326990E+00  0.103E+00    0.15       1.0  T
   3   -168.3197510 -0.308778E+00  0.274E-01    0.05       1.0  T
   4   -168.3008539  0.188971E-01  0.360E-01    0.03       1.0  T
   5   -168.3374308 -0.365769E-01  0.107E-01    0.01       1.0  T
   6   -168.3388127 -0.138196E-02  0.786E-02    0.01       1.0  T
   7   -168.3401005 -0.128781E-02  0.450E-02    0.01       1.0  T
   8   -168.3406370 -0.536480E-03  0.222E-02    0.01       1.0  T
   9   -168.3406769 -0.398399E-04  0.183E-02    0.01       1.0  T
  10   -168.3406907 -0.138340E-04  0.169E-02    0.01       1.0  T
  11   -168.3407696 -0.788790E-04  0.334E-03    0.01       2.8  T
  12   -168.3407620  0.758199E-05  0.586E-03    0.01       1.6  T
  13   -168.3407637 -0.166102E-05  0.536E-03    0.01       1.8  T
  14   -168.3407636  0.243616E-07  0.548E-03    0.01       1.7  T
  15   -168.3407716 -0.793259E-05  0.127E-03    0.01       7.4  T
  16   -168.3407718 -0.221265E-06  0.840E-04    0.01      11.3  T
  17   -168.3407718  0.146492E-07  0.950E-04    0.01       9.9  T
     SCC iter.                  ...        0 min,  0.627 sec
     gradient                   ...        0 min,  0.036 sec
 * total energy  :  -165.9293065 Eh     change       -0.5337650E-02 Eh
   gradient norm :     0.0135319 Eh/α   predicted    -0.5020287E-02 (  -5.95%)
   displ. norm   :     0.8339538 α      lambda       -0.5316304E-02
   maximum displ.:     0.4277201 α      in ANC's #9, #18, #14, ...

........................................................................
.............................. CYCLE   13 ..............................
........................................................................

 iter      E             dE          RMSdq      gap      omega  full diag
   1   -168.3273769 -0.168327E+03  0.282E-01    0.04       0.0  T
   2   -168.0114199  0.315957E+00  0.113E+00    0.98       1.0  T
   3   -168.2712023 -0.259782E+00  0.536E-01    0.31       1.0  T
   4   -168.3023299 -0.311277E-01  0.402E-01    0.11       1.0  T
   5   -168.3340383 -0.317084E-01  0.228E-01    0.04       1.0  T
   6   -167.9707270  0.363311E+00  0.102E+00    0.07       1.0  T
   7   -168.3480463 -0.377319E+00  0.423E-02    0.01       1.0  T
   8   -168.3442681  0.377822E-02  0.120E-01    0.02       1.0  T
   9   -168.3475670 -0.329888E-02  0.552E-02    0.01       1.0  T
  10   -168.3485345 -0.967510E-03  0.113E-02    0.01       1.0  T
  11   -168.3483884  0.146071E-03  0.247E-02    0.01       1.0  T
  12   -168.3474014  0.987002E-03  0.573E-02    0.01       1.0  T
  13   -168.3484872 -0.108572E-02  0.148E-02    0.01       1.0  T
  14   -168.3483953  0.919033E-04  0.234E-02    0.01       1.0  T
  15   -168.3485512 -0.155964E-03  0.667E-03    0.01       1.4  T
  16   -168.3485587 -0.746526E-05  0.543E-03    0.01       1.7  T
  17   -168.3485655 -0.686201E-05  0.230E-03    0.01       4.1  T
  18   -168.3485671 -0.156149E-05  0.785E-04    0.01      12.0  T
  19   -168.3485672 -0.132983E-06  0.412E-04    0.01      22.9  T
  20   -168.3485673 -0.309240E-07  0.218E-04    0.01      43.2  T
     SCC iter.                  ...        0 min,  1.070 sec
     gradient                   ...        0 min,  0.038 sec
 * total energy  :  -165.9340094 Eh     change       -0.4702804E-02 Eh
   gradient norm :     0.0138197 Eh/α   predicted    -0.4506842E-02 (  -4.17%)
   displ. norm   :     0.8435491 α      lambda       -0.4790511E-02
   maximum displ.:     0.4492041 α      in ANC's #9, #15, #18, ...

........................................................................
.............................. CYCLE   14 ..............................
........................................................................

 iter      E             dE          RMSdq      gap      omega  full diag
   1   -168.3325811 -0.168333E+03  0.303E-01    0.06       0.0  T
   2   -167.9669581  0.365623E+00  0.118E+00    0.50       1.0  T
   3   -168.2684853 -0.301527E+00  0.583E-01    0.31       1.0  T
   4   -168.2182605  0.502248E-01  0.678E-01    0.11       1.0  T
   5   -168.3149616 -0.967011E-01  0.390E-01    0.09       1.0  T
   6   -168.3510154 -0.360537E-01  0.131E-01    0.01       1.0  T
   7   -168.3310675  0.199478E-01  0.303E-01    0.05       1.0  T
   8   -168.3543002 -0.232326E-01  0.869E-02    0.01       1.0  T
   9   -168.3558228 -0.152260E-02  0.425E-02    0.01       1.0  T
  10   -168.3557331  0.897161E-04  0.475E-02    0.01       1.0  T
  11   -168.3563635 -0.630428E-03  0.866E-03    0.01       1.1  T
  12   -168.3562694  0.941133E-04  0.193E-02    0.01       1.0  T
  13   -168.3563608 -0.913828E-04  0.680E-03    0.01       1.4  T
  14   -168.3562459  0.114844E-03  0.215E-02    0.01       1.0  T
  15   -168.3563684 -0.122463E-03  0.520E-03    0.01       1.8  T
  16   -168.3563698 -0.138287E-05  0.459E-03    0.01       2.1  T
  17   -168.3563757 -0.593135E-05  0.299E-04    0.01      31.6  T
  18   -168.3563753  0.413221E-06  0.124E-03    0.01       7.6  T
  19   -168.3563757 -0.429808E-06  0.157E-04    0.01      60.2  T
  20   -168.3563757 -0.523087E-08  0.744E-05    0.01     127.0  T
     SCC iter.                  ...        0 min,  1.012 sec
     gradient                   ...        0 min,  0.036 sec
 * total energy  :  -165.9381246 Eh     change       -0.4115209E-02 Eh
   gradient norm :     0.0160758 Eh/α   predicted    -0.4099657E-02 (  -0.38%)
   displ. norm   :     0.8372829 α      lambda       -0.4145614E-02
   maximum displ.:     0.4531782 α      in ANC's #9, #15, #11, ...

........................................................................
.............................. CYCLE   15 ..............................
........................................................................

 iter      E             dE          RMSdq      gap      omega  full diag
   1   -168.3359897 -0.168336E+03  0.313E-01    0.05       0.0  T
   2   -168.0168537  0.319136E+00  0.115E+00    1.10       1.0  T
   3   -168.2840447 -0.267191E+00  0.547E-01    0.36       1.0  T
   4   -168.3031217 -0.190771E-01  0.462E-01    0.14       1.0  T
   5   -168.3556982 -0.525764E-01  0.150E-01    0.01       1.0  T
   6   -168.1112170  0.244481E+00  0.815E-01    0.03       1.0  T
   7   -168.3595885 -0.248371E+00  0.933E-02    0.01       1.0  T
   8   -168.3542174  0.537105E-02  0.172E-01    0.03       1.0  T
   9   -168.3556516 -0.143411E-02  0.153E-01    0.03       1.0  T
  10   -168.3555048  0.146777E-03  0.139E-01    0.01       1.0  T
  11   -168.3606048 -0.510001E-02  0.708E-02    0.01       1.0  T
  12   -168.3600631  0.541649E-03  0.793E-02    0.01       1.0  T
  13   -168.3620557 -0.199251E-02  0.288E-02    0.01       1.0  T
  14   -168.3623429 -0.287208E-03  0.938E-03    0.01       1.0  T
  15   -168.3623523 -0.941753E-05  0.733E-03    0.01       1.3  T
  16   -168.3623535 -0.122198E-05  0.624E-03    0.01       1.5  T
  17   -168.3623657 -0.121664E-04  0.245E-03    0.01       3.9  T
  18   -168.3623672 -0.153828E-05  0.829E-04    0.01      11.4  T
  19   -168.3623673 -0.694622E-07  0.657E-04    0.01      14.4  T
  20   -168.3623674 -0.130423E-06  0.893E-05    0.01     105.8  T
     SCC iter.                  ...        0 min,  0.711 sec
     gradient                   ...        0 min,  0.036 sec
 * total energy  :  -165.9417442 Eh     change       -0.3619599E-02 Eh
   gradient norm :     0.0123915 Eh/α   predicted    -0.3525932E-02 (  -2.59%)
   displ. norm   :     0.8397749 α      lambda       -0.3516753E-02
   maximum displ.:     0.4617890 α      in ANC's #9, #15, #11, ...

........................................................................
.............................. CYCLE   16 ..............................
........................................................................

 iter      E             dE          RMSdq      gap      omega  full diag
   1   -168.3674574 -0.168367E+03  0.108E-01    0.01       0.0  T
   2   -167.9968397  0.370618E+00  0.102E+00    0.01       1.0  T
   3   -168.3583439 -0.361504E+00  0.198E-01    0.03       1.0  T
   4   -168.2498430  0.108501E+00  0.630E-01    0.05       1.0  T
   5   -168.3677833 -0.117940E+00  0.521E-02    0.01       1.0  T
   6   -168.3680091 -0.225862E-03  0.352E-02    0.01       1.0  T
   7   -168.3680387 -0.295610E-04  0.320E-02    0.01       1.0  T
   8   -168.3680142  0.244378E-04  0.297E-02    0.01       1.0  T
   9   -168.3682127 -0.198467E-03  0.162E-02    0.01       1.0  T
  10   -168.3682778 -0.650430E-04  0.827E-03    0.01       1.1  T
  11   -168.3682567  0.210238E-04  0.113E-02    0.01       1.0  T
  12   -168.3682394  0.173553E-04  0.135E-02    0.01       1.0  T
  13   -168.3682765 -0.371485E-04  0.763E-03    0.01       1.2  T
  14   -168.3682929 -0.164182E-04  0.251E-03    0.01       3.8  T
  15   -168.3682951 -0.216021E-05  0.189E-04    0.01      50.1  T
  16   -168.3682951  0.443596E-07  0.386E-04    0.01      24.5  T
  17   -168.3682951 -0.500451E-07  0.884E-05    0.01     106.9  T
     SCC iter.                  ...        0 min,  1.078 sec
     gradient                   ...        0 min,  0.036 sec
 * total energy  :  -165.9449102 Eh     change       -0.3166010E-02 Eh
   gradient norm :     0.0135031 Eh/α   predicted    -0.2998424E-02 (  -5.29%)
   displ. norm   :     0.8563873 α      lambda       -0.3274485E-02
   maximum displ.:     0.4656932 α      in ANC's #9, #15, #11, ...

........................................................................
.............................. CYCLE   17 ..............................
........................................................................

 iter      E             dE          RMSdq      gap      omega  full diag
   1   -168.3732496 -0.168373E+03  0.109E-01    0.01       0.0  T
   2   -167.8996432  0.473606E+00  0.112E+00    0.12       1.0  T
   3   -168.3712557 -0.471612E+00  0.113E-01    0.01       1.0  T
   4   -168.2720498  0.992058E-01  0.582E-01    0.11       1.0  T
   5   -168.3580294 -0.859796E-01  0.226E-01    0.02       1.0  T
   6   -168.3724416 -0.144121E-01  0.676E-02    0.01       1.0  T
   7   -168.3735962 -0.115462E-02  0.381E-02    0.01       1.0  T
   8   -168.3740040 -0.407856E-03  0.115E-02    0.01       1.0  T
   9   -168.3740134 -0.941469E-05  0.785E-03    0.01       1.2  T
  10   -168.3739986  0.148093E-04  0.925E-03    0.01       1.0  T
  11   -168.3739819  0.167800E-04  0.107E-02    0.01       1.0  T
  12   -168.3739867 -0.482432E-05  0.989E-03    0.01       1.0  T
  13   -168.3740034 -0.166766E-04  0.706E-03    0.01       1.3  T
  14   -168.3740165 -0.131211E-04  0.365E-03    0.01       2.6  T
  15   -168.3740208 -0.431025E-05  0.120E-03    0.01       7.9  T
  16   -168.3740213 -0.482465E-06  0.224E-04    0.01      42.1  T
  17   -168.3740213 -0.146250E-07  0.106E-04    0.01      88.8  T
     SCC iter.                  ...        0 min,  0.962 sec
     gradient                   ...        0 min,  0.039 sec
 * total energy  :  -165.9479097 Eh     change       -0.2999576E-02 Eh
   gradient norm :     0.0138143 Eh/α   predicted    -0.2837993E-02 (  -5.39%)
   displ. norm   :     0.8736182 α      lambda       -0.3341480E-02
   maximum displ.:     0.4623667 α      in ANC's #9, #15, #11, ...

........................................................................
.............................. CYCLE   18 ..............................
........................................................................

 iter      E             dE          RMSdq      gap      omega  full diag
   1   -168.3790822 -0.168379E+03  0.136E-01    0.01       0.0  T
   2   -167.7963655  0.582717E+00  0.124E+00    0.22       1.0  T
   3   -168.3665599 -0.570194E+00  0.227E-01    0.02       1.0  T
   4   -168.1481317  0.218428E+00  0.893E-01    0.09       1.0  T
   5   -168.3694235 -0.221292E+00  0.208E-01    0.04       1.0  T
   6   -168.3801500 -0.107265E-01  0.688E-02    0.01       1.0  T
   7   -168.3807718 -0.621807E-03  0.460E-02    0.01       1.0  T
   8   -168.3809847 -0.212819E-03  0.369E-02    0.01       1.0  T
   9   -168.3813784 -0.393744E-03  0.149E-02    0.01       1.0  T
  10   -168.3814264 -0.480202E-04  0.672E-03    0.01       1.4  T
  11   -168.3814166  0.986336E-05  0.911E-03    0.01       1.0  T
  12   -168.3814363 -0.197720E-04  0.389E-03    0.01       2.4  T
  13   -168.3814378 -0.146073E-05  0.318E-03    0.01       3.0  T
  14   -168.3814362  0.154536E-05  0.415E-03    0.01       2.3  T
  15   -168.3814396 -0.335716E-05  0.205E-03    0.01       4.6  T
  16   -168.3814410 -0.135792E-05  0.449E-04    0.01      21.1  T
  17   -168.3814410 -0.433416E-07  0.160E-04    0.01      59.0  T
  18   -168.3814410 -0.561351E-08  0.112E-04    0.01      84.6  T
     SCC iter.                  ...        0 min,  0.687 sec
     gradient                   ...        0 min,  0.036 sec
 * total energy  :  -165.9510642 Eh     change       -0.3154414E-02 Eh
   gradient norm :     0.0164603 Eh/α   predicted    -0.2945865E-02 (  -6.61%)
   displ. norm   :     0.8962025 α      lambda       -0.3820163E-02
   maximum displ.:     0.4503607 α      in ANC's #15, #9, #18, ...

........................................................................
.............................. CYCLE   19 ..............................
........................................................................

 iter      E             dE          RMSdq      gap      omega  full diag
   1   -168.3819509 -0.168382E+03  0.179E-01    0.01       0.0  T
   2   -167.7739415  0.608009E+00  0.127E+00    0.36       1.0  T
   3   -168.3669207 -0.592979E+00  0.259E-01    0.01       1.0  T
   4   -168.2658968  0.101024E+00  0.655E-01    0.21       1.0  T
   5   -168.3778572 -0.111960E+00  0.154E-01    0.01       1.0  T
   6   -168.3807031 -0.284585E-02  0.124E-01    0.01       1.0  T
   7   -168.3844553 -0.375219E-02  0.667E-02    0.01       1.0  T
   8   -168.3861659 -0.171062E-02  0.178E-02    0.01       1.0  T
   9   -168.3860767  0.891830E-04  0.224E-02    0.01       1.0  T
  10   -168.3861526 -0.758892E-04  0.163E-02    0.01       1.0  T
  11   -168.3862354 -0.827793E-04  0.652E-03    0.01       1.5  T
  12   -168.3862460 -0.105570E-04  0.190E-03    0.01       5.0  T
  13   -168.3862450  0.993842E-06  0.265E-03    0.01       3.6  T
  14   -168.3862459 -0.992485E-06  0.154E-03    0.01       6.1  T
  15   -168.3862447  0.122014E-05  0.266E-03    0.01       3.6  T
  16   -168.3862441  0.671705E-06  0.309E-03    0.01       3.1  T
  17   -168.3862466 -0.250105E-05  0.737E-04    0.01      12.8  T
  18   -168.3862467 -0.138568E-06  0.169E-04    0.01      56.0  T
  19   -168.3862467 -0.131661E-08  0.135E-04    0.01      70.0  T
     SCC iter.                  ...        0 min,  0.901 sec
     gradient                   ...        0 min,  0.036 sec
 * total energy  :  -165.9547977 Eh     change       -0.3733575E-02 Eh
   gradient norm :     0.0192069 Eh/α   predicted    -0.3444218E-02 (  -7.75%)
   displ. norm   :     0.8824978 α      lambda       -0.4961356E-02
   maximum displ.:     0.4636787 α      in ANC's #15, #9, #14, ...

........................................................................
.............................. CYCLE   20 ..............................
........................................................................

 iter      E             dE          RMSdq      gap      omega  full diag
   1   -168.3905496 -0.168391E+03  0.259E-01    0.01       0.0  T
   2   -167.7525640  0.637986E+00  0.131E+00    0.40       1.0  T
   3   -168.3885459 -0.635982E+00  0.246E-01    0.03       1.0  T
   4   -168.1360556  0.252490E+00  0.957E-01    0.17       1.0  T
   5   -168.3845364 -0.248481E+00  0.204E-01    0.03       1.0  T
   6   -168.3969524 -0.124159E-01  0.570E-02    0.01       1.0  T
   7   -168.3940754  0.287692E-02  0.107E-01    0.02       1.0  T
   8   -168.3972989 -0.322347E-02  0.347E-02    0.01       1.0  T
   9   -168.3968514  0.447547E-03  0.466E-02    0.01       1.0  T
  10   -168.3974521 -0.600715E-03  0.206E-02    0.01       1.0  T
  11   -168.3974752 -0.231224E-04  0.159E-02    0.01       1.0  T
  12   -168.3974994 -0.242288E-04  0.126E-02    0.01       1.0  T
  13   -168.3975196 -0.202200E-04  0.110E-02    0.01       1.0  T
  14   -168.3975470 -0.273234E-04  0.388E-03    0.01       2.4  T
  15   -168.3975492 -0.219111E-05  0.302E-03    0.01       3.1  T
  16   -168.3975519 -0.269880E-05  0.125E-03    0.01       7.5  T
  17   -168.3975523 -0.438128E-06  0.282E-04    0.01      33.5  T
  18   -168.3975523 -0.176311E-07  0.106E-04    0.01      88.8  T
     SCC iter.                  ...        0 min,  0.804 sec
     gradient                   ...        0 min,  0.034 sec
 * total energy  :  -165.9593137 Eh     change       -0.4515989E-02 Eh
   gradient norm :     0.0250343 Eh/α   predicted    -0.4412633E-02 (  -2.29%)
   displ. norm   :     0.8473946 α      lambda       -0.5050798E-02
   maximum displ.:     0.4687941 α      in ANC's #15, #14, #9, ...
 * RMSD in coord.:     1.1297002 α      energy gain  -0.6678222E+00 Eh

generating ANC from model Hessian ...
Using Lindh-Hessian (1995)
 Shifting diagonal of input Hessian by    1.0057416428423751E-002
 Lowest  eigenvalues of input Hessian
    0.010000    0.010056    0.000000    0.000000    0.000000    0.000000
    0.000000    0.000000    0.010070    0.010152    0.010219    0.010253
    0.010339    0.010424    0.010444    0.010772    0.010889    0.011032
 Highest eigenvalues
    2.190385    2.190768    2.219724    2.226846    2.405752    2.412431


........................................................................
.............................. CYCLE   21 ..............................
........................................................................

 iter      E             dE          RMSdq      gap      omega  full diag
   1   -168.3878222 -0.168388E+03  0.261E-01    0.00       0.0  T
   2   -167.7628903  0.624932E+00  0.130E+00    0.45       1.0  T
   3   -168.3730299 -0.610140E+00  0.307E-01    0.05       1.0  T
   4   -168.3039041  0.691258E-01  0.592E-01    0.30       1.0  T
   5   -168.3669920 -0.630879E-01  0.310E-01    0.07       1.0  T
   6   -168.3873711 -0.203791E-01  0.131E-01    0.01       1.0  T
   7   -168.3874599 -0.887219E-04  0.134E-01    0.02       1.0  T
   8   -168.3922433 -0.478345E-02  0.572E-02    0.01       1.0  T
   9   -168.3931916 -0.948307E-03  0.173E-02    0.01       1.0  T
  10   -168.3931974 -0.579075E-05  0.135E-02    0.01       1.0  T
  11   -168.3931899  0.754137E-05  0.126E-02    0.01       1.0  T
  12   -168.3931560  0.338398E-04  0.149E-02    0.01       1.0  T
  13   -168.3932276 -0.715414E-04  0.441E-03    0.01       2.1  T
  14   -168.3932117  0.158994E-04  0.820E-03    0.01       1.2  T
  15   -168.3932263 -0.146352E-04  0.504E-03    0.01       1.9  T
  16   -168.3932239  0.243424E-05  0.581E-03    0.01       1.6  T
  17   -168.3932316 -0.774512E-05  0.232E-03    0.01       4.1  T
  18   -168.3932328 -0.121575E-05  0.101E-03    0.01       9.3  T
  19   -168.3932331 -0.266425E-06  0.221E-04    0.01      42.8  T
  20   -168.3932331 -0.475760E-08  0.178E-04    0.01      53.1  T
     SCC iter.                  ...        0 min,  0.950 sec
     gradient                   ...        0 min,  0.040 sec
 * total energy  :  -165.9639315 Eh     change       -0.4617743E-02 Eh
   gradient norm :     0.0312358 Eh/α   predicted     0.0000000E+00 (-100.00%)
   displ. norm   :     0.4611527 α      lambda       -0.5270327E-02
   maximum displ.:     0.2729074 α      in ANC's #8, #7, #15, ...

........................................................................
.............................. CYCLE   22 ..............................
........................................................................

 iter      E             dE          RMSdq      gap      omega  full diag
   1   -168.3972587 -0.168397E+03  0.182E-01    0.01       0.0  T
   2   -167.8001901  0.597069E+00  0.129E+00    0.15       1.0  T
   3   -168.3570420 -0.556852E+00  0.395E-01    0.11       1.0  T
   4   -168.3723301 -0.152881E-01  0.333E-01    0.07       1.0  T
   5   -168.3885285 -0.161984E-01  0.202E-01    0.04       1.0  T
   6   -168.3954354 -0.690687E-02  0.128E-01    0.02       1.0  T
   7   -168.4008878 -0.545240E-02  0.208E-02    0.01       1.0  T
   8   -168.4004072  0.480589E-03  0.415E-02    0.01       1.0  T
   9   -168.4001038  0.303434E-03  0.558E-02    0.01       1.0  T
  10   -168.4008651 -0.761336E-03  0.220E-02    0.01       1.0  T
  11   -168.4009356 -0.704953E-04  0.151E-02    0.01       1.0  T
  12   -168.4008400  0.956267E-04  0.223E-02    0.01       1.0  T
  13   -168.4007840  0.559910E-04  0.273E-02    0.01       1.0  T
  14   -168.4009860 -0.202070E-03  0.534E-03    0.01       1.8  T
  15   -168.4009928 -0.678967E-05  0.240E-03    0.01       3.9  T
  16   -168.4009901  0.276328E-05  0.374E-03    0.01       2.5  T
  17   -168.4009946 -0.456244E-05  0.252E-04    0.01      37.5  T
  18   -168.4009946  0.196325E-07  0.351E-04    0.01      26.9  T
  19   -168.4009946 -0.141369E-07  0.279E-04    0.01      33.9  T
     SCC iter.                  ...        0 min,  0.953 sec
     gradient                   ...        0 min,  0.037 sec
 * total energy  :  -165.9686316 Eh     change       -0.4700150E-02 Eh
   gradient norm :     0.0176590 Eh/α   predicted    -0.3195604E-02 ( -32.01%)
   displ. norm   :     0.8308179 α      lambda       -0.7558736E-02
   maximum displ.:     0.4697475 α      in ANC's #8, #15, #7, ...

........................................................................
.............................. CYCLE   23 ..............................
........................................................................

 iter      E             dE          RMSdq      gap      omega  full diag
   1   -168.4030898 -0.168403E+03  0.301E-01    0.02       0.0  T
   2   -167.7803791  0.622711E+00  0.131E+00    0.16       1.0  T
   3   -168.3658294 -0.585450E+00  0.416E-01    0.11       1.0  T
   4   -168.3325147  0.333147E-01  0.553E-01    0.24       1.0  T
   5   -168.3972571 -0.647424E-01  0.229E-01    0.03       1.0  T
   6   -168.4022298 -0.497274E-02  0.153E-01    0.01       1.0  T
   7   -168.4005967  0.163310E-02  0.166E-01    0.02       1.0  T
   8   -168.4028380 -0.224124E-02  0.139E-01    0.01       1.0  T
   9   -168.4037745 -0.936539E-03  0.126E-01    0.01       1.0  T
  10   -168.4053682 -0.159368E-02  0.107E-01    0.02       1.0  T
  11   -168.3682749  0.370933E-01  0.325E-01    0.01       1.0  T
  12   -168.4087118 -0.404369E-01  0.476E-02    0.01       1.0  T
  13   -168.4035028  0.520892E-02  0.128E-01    0.01       1.0  T
  14   -168.4082936 -0.479072E-02  0.598E-02    0.01       1.0  T
  15   -168.4090535 -0.759914E-03  0.271E-02    0.01       1.0  T
  16   -168.4086204  0.433081E-03  0.428E-02    0.01       1.0  T
  17   -168.4086375 -0.171186E-04  0.424E-02    0.01       1.0  T
  18   -168.4093137 -0.676175E-03  0.420E-03    0.01       2.3  T
  19   -168.4092943  0.193862E-04  0.847E-03    0.01       1.1  T
  20   -168.4092888  0.546911E-05  0.913E-03    0.01       1.0  T
  21   -168.4093177 -0.288317E-04  0.240E-03    0.01       3.9  T
  22   -168.4093195 -0.179866E-05  0.101E-03    0.01       9.4  T
  23   -168.4093196 -0.168048E-06  0.760E-04    0.01      12.4  T
  24   -168.4093199 -0.215864E-06  0.961E-05    0.01      98.3  T
     SCC iter.                  ...        0 min,  1.229 sec
     gradient                   ...        0 min,  0.037 sec
 * total energy  :  -165.9752919 Eh     change       -0.6660307E-02 Eh
   gradient norm :     0.0157559 Eh/α   predicted    -0.6388115E-02 (  -4.09%)
   displ. norm   :     0.8935975 α      lambda       -0.6979523E-02
   maximum displ.:     0.5304652 α      in ANC's #8, #15, #7, ...

........................................................................
.............................. CYCLE   24 ..............................
........................................................................

 iter      E             dE          RMSdq      gap      omega  full diag
   1   -168.4100735 -0.168410E+03  0.280E-01    0.01       0.0  T
   2   -167.7681473  0.641926E+00  0.132E+00    0.20       1.0  T
   3   -168.4016593 -0.633512E+00  0.268E-01    0.04       1.0  T
   4   -168.2927540  0.108905E+00  0.678E-01    0.46       1.0  T
   5   -168.3882777 -0.955237E-01  0.313E-01    0.07       1.0  T
   6   -168.4082451 -0.199675E-01  0.160E-01    0.01       1.0  T
   7   -168.4083139 -0.687616E-04  0.151E-01    0.01       1.0  T
   8   -168.4086558 -0.341938E-03  0.146E-01    0.01       1.0  T
   9   -168.4094009 -0.745027E-03  0.131E-01    0.01       1.0  T
  10   -168.4096992 -0.298345E-03  0.124E-01    0.01       1.0  T
  11   -168.4100995 -0.400254E-03  0.111E-01    0.01       1.0  T
  12   -168.4118934 -0.179398E-02  0.788E-02    0.01       1.0  T
  13   -168.4133615 -0.146800E-02  0.474E-02    0.01       1.0  T
  14   -168.4133013  0.601517E-04  0.469E-02    0.01       1.0  T
  15   -168.4140456 -0.744255E-03  0.108E-02    0.01       1.0  T
  16   -168.4098019  0.424363E-02  0.108E-01    0.01       1.0  T
  17   -168.4136292 -0.382729E-02  0.366E-02    0.01       1.0  T
  18   -168.4128408  0.788444E-03  0.581E-02    0.01       1.0  T
  19   -168.4135716 -0.730799E-03  0.372E-02    0.01       1.0  T
  20   -168.4140538 -0.482208E-03  0.784E-03    0.01       1.2  T
  21   -168.4140751 -0.213493E-04  0.123E-03    0.01       7.7  T
  22   -168.4140674  0.776720E-05  0.481E-03    0.01       2.0  T
  23   -168.4140744 -0.701750E-05  0.185E-03    0.01       5.1  T
  24   -168.4140754 -0.103694E-05  0.755E-04    0.01      12.5  T
  25   -168.4140756 -0.140794E-06  0.399E-04    0.01      23.7  T
  26   -168.4140756 -0.477067E-07  0.172E-04    0.01      54.8  T
     SCC iter.                  ...        0 min,  1.127 sec
     gradient                   ...        0 min,  0.039 sec
 * total energy  :  -165.9819232 Eh     change       -0.6631251E-02 Eh
   gradient norm :     0.0257232 Eh/α   predicted    -0.6276395E-02 (  -5.35%)
   displ. norm   :     0.8913157 α      lambda       -0.7200551E-02
   maximum displ.:     0.5218934 α      in ANC's #8, #15, #7, ...

........................................................................
.............................. CYCLE   25 ..............................
........................................................................

 iter      E             dE          RMSdq      gap      omega  full diag
   1   -168.4163885 -0.168416E+03  0.258E-01    0.01       0.0  T
   2   -167.7951312  0.621257E+00  0.128E+00    0.20       1.0  T
   3   -168.4066454 -0.611514E+00  0.255E-01    0.04       1.0  T
   4   -168.3003691  0.106276E+00  0.677E-01    0.43       1.0  T
   5   -168.3901989 -0.898297E-01  0.354E-01    0.08       1.0  T
   6   -168.4129408 -0.227420E-01  0.177E-01    0.01       1.0  T
   7   -168.4136105 -0.669670E-03  0.157E-01    0.01       1.0  T
   8   -168.4142139 -0.603434E-03  0.148E-01    0.01       1.0  T
   9   -168.4145338 -0.319895E-03  0.143E-01    0.01       1.0  T
  10   -168.4147572 -0.223328E-03  0.137E-01    0.01       1.0  T
  11   -168.4150454 -0.288256E-03  0.129E-01    0.01       1.0  T
  12   -168.4154296 -0.384161E-03  0.119E-01    0.01       1.0  T
  13   -168.4157117 -0.282107E-03  0.111E-01    0.01       1.0  T
  14   -168.4160703 -0.358606E-03  0.101E-01    0.01       1.0  T
  15   -168.4181021 -0.203181E-02  0.506E-02    0.01       1.0  T
  16   -168.4173911  0.711041E-03  0.693E-02    0.01       1.0  T
  17   -168.4184250 -0.103391E-02  0.391E-02    0.01       1.0  T
  18   -168.4181725  0.252471E-03  0.479E-02    0.01       1.0  T
  19   -168.4055667  0.126058E-01  0.194E-01    0.01       1.0  T
  20   -168.4162019 -0.106352E-01  0.969E-02    0.01       1.0  T
  21   -168.4183530 -0.215107E-02  0.402E-02    0.01       1.0  T
  22   -168.4177714  0.581532E-03  0.587E-02    0.01       1.0  T
  23   -168.4188851 -0.111362E-02  0.101E-02    0.01       1.0  T
  24   -168.4186778  0.207265E-03  0.268E-02    0.01       1.0  T
  25   -168.4189166 -0.238755E-03  0.215E-03    0.01       4.4  T
  26   -168.4189115  0.504555E-05  0.433E-03    0.01       2.2  T
  27   -168.4189108  0.743590E-06  0.459E-03    0.01       2.1  T
  28   -168.4189106  0.209907E-06  0.461E-03    0.01       2.1  T
  29   -168.4189179 -0.735844E-05  0.332E-04    0.01      28.5  T
  30   -168.4189179 -0.304393E-07  0.141E-04    0.01      67.2  T
  31   -168.4189179  0.250656E-07  0.301E-04    0.01      31.4  T
     SCC iter.                  ...        0 min,  1.310 sec
     gradient                   ...        0 min,  0.037 sec
 * total energy  :  -165.9888087 Eh     change       -0.6885564E-02 Eh
   gradient norm :     0.0276775 Eh/α   predicted    -0.6460526E-02 (  -6.17%)
   displ. norm   :     0.8789824 α      lambda       -0.7566778E-02
   maximum displ.:     0.5205460 α      in ANC's #8, #15, #7, ...

........................................................................
.............................. CYCLE   26 ..............................
........................................................................

 iter      E             dE          RMSdq      gap      omega  full diag
   1   -168.4258702 -0.168426E+03  0.256E-01    0.01       0.0  T
   2   -167.9703536  0.455517E+00  0.114E+00    0.01       1.0  T
   3   -168.3706183 -0.400265E+00  0.478E-01    0.16       1.0  T
   4   -168.3713370 -0.718643E-03  0.489E-01    0.18       1.0  T
   5   -168.4226637 -0.513267E-01  0.188E-01    0.02       1.0  T
   6   -168.4244109 -0.174720E-02  0.142E-01    0.01       1.0  T
   7   -168.4250804 -0.669455E-03  0.130E-01    0.01       1.0  T
   8   -168.4253826 -0.302240E-03  0.129E-01    0.01       1.0  T
   9   -168.4256649 -0.282325E-03  0.121E-01    0.01       1.0  T
  10   -168.4260242 -0.359244E-03  0.111E-01    0.01       1.0  T
  11   -168.4262664 -0.242203E-03  0.102E-01    0.01       1.0  T
  12   -168.4264274 -0.161025E-03  0.963E-02    0.01       1.0  T
  13   -168.4267825 -0.355103E-03  0.834E-02    0.01       1.0  T
  14   -168.4275040 -0.721446E-03  0.604E-02    0.01       1.0  T
  15   -168.4278052 -0.301252E-03  0.507E-02    0.01       1.0  T
  16   -168.4278029  0.235438E-05  0.507E-02    0.01       1.0  T
  17   -168.4236609  0.414193E-02  0.120E-01    0.01       1.0  T
  18   -168.4273980 -0.373703E-02  0.623E-02    0.01       1.0  T
  19   -168.4272320  0.165998E-03  0.628E-02    0.01       1.0  T
  20   -168.4281455 -0.913506E-03  0.358E-02    0.01       1.0  T
  21   -168.4285359 -0.390390E-03  0.255E-03    0.01       3.7  T
  22   -168.4285369 -0.106922E-05  0.160E-03    0.01       5.9  T
  23   -168.4285366  0.319147E-06  0.188E-03    0.01       5.0  T
  24   -168.4285359  0.662556E-06  0.226E-03    0.01       4.2  T
  25   -168.4285338  0.218373E-05  0.346E-03    0.01       2.7  T
  26   -168.4285373 -0.350089E-05  0.973E-04    0.01       9.7  T
  27   -168.4285374 -0.116051E-06  0.773E-04    0.01      12.2  T
  28   -168.4285375 -0.117863E-06  0.488E-04    0.01      19.4  T
     SCC iter.                  ...        0 min,  1.134 sec
     gradient                   ...        0 min,  0.037 sec
 * total energy  :  -165.9956768 Eh     change       -0.6868073E-02 Eh
   gradient norm :     0.0217405 Eh/α   predicted    -0.6706500E-02 (  -2.35%)
   displ. norm   :     0.8764669 α      lambda       -0.6724629E-02
   maximum displ.:     0.5047338 α      in ANC's #8, #15, #7, ...

........................................................................
.............................. CYCLE   27 ..............................
........................................................................

 iter      E             dE          RMSdq      gap      omega  full diag
   1   -168.4324112 -0.168432E+03  0.200E-01    0.01       0.0  T
   2   -168.0740185  0.358393E+00  0.105E+00    0.08       1.0  T
   3   -168.3715766 -0.297558E+00  0.489E-01    0.17       1.0  T
   4   -168.4083601 -0.367835E-01  0.333E-01    0.08       1.0  T
   5   -168.4305660 -0.222058E-01  0.138E-01    0.01       1.0  T
   6   -168.4319205 -0.135453E-02  0.104E-01    0.01       1.0  T
   7   -168.4322845 -0.363998E-03  0.962E-02    0.01       1.0  T
   8   -168.4323746 -0.901691E-04  0.921E-02    0.01       1.0  T
   9   -168.4323855 -0.108545E-04  0.880E-02    0.01       1.0  T
  10   -168.4327613 -0.375759E-03  0.775E-02    0.01       1.0  T
  11   -168.4329089 -0.147601E-03  0.700E-02    0.01       1.0  T
  12   -168.4331334 -0.224562E-03  0.609E-02    0.01       1.0  T
  13   -168.4334182 -0.284746E-03  0.499E-02    0.01       1.0  T
  14   -168.4338660 -0.447786E-03  0.289E-02    0.01       1.0  T
  15   -168.4338103  0.556536E-04  0.316E-02    0.01       1.0  T
  16   -168.4340579 -0.247578E-03  0.117E-02    0.01       1.0  T
  17   -168.4340229  0.349992E-04  0.159E-02    0.01       1.0  T
  18   -168.4338780  0.144926E-03  0.261E-02    0.01       1.0  T
  19   -168.4340880 -0.210017E-03  0.501E-03    0.01       1.9  T
  20   -168.4340738  0.141976E-04  0.840E-03    0.01       1.1  T
  21   -168.4340921 -0.183374E-04  0.340E-03    0.01       2.8  T
  22   -168.4340950 -0.290530E-05  0.143E-03    0.01       6.6  T
  23   -168.4340948  0.264023E-06  0.173E-03    0.01       5.5  T
  24   -168.4340955 -0.707015E-06  0.807E-04    0.01      11.7  T
  25   -168.4340953  0.180297E-06  0.110E-03    0.01       8.6  T
  26   -168.4340956 -0.351253E-06  0.317E-04    0.01      29.8  T
     SCC iter.                  ...        0 min,  1.081 sec
     gradient                   ...        0 min,  0.037 sec
 * total energy  :  -166.0016305 Eh     change       -0.5953657E-02 Eh
   gradient norm :     0.0218056 Eh/α   predicted    -0.5945231E-02 (  -0.14%)
   displ. norm   :     0.8239412 α      lambda       -0.6041133E-02
   maximum displ.:     0.4693386 α      in ANC's #8, #15, #7, ...

........................................................................
.............................. CYCLE   28 ..............................
........................................................................

 iter      E             dE          RMSdq      gap      omega  full diag
   1   -168.4493704 -0.168449E+03  0.214E-01    0.01       0.0  T
   2   -168.1624252  0.286945E+00  0.961E-01    0.15       1.0  T
   3   -168.3826834 -0.220258E+00  0.513E-01    0.19       1.0  T
   4   -168.4312290 -0.485457E-01  0.300E-01    0.06       1.0  T
   5   -168.4449939 -0.137648E-01  0.167E-01    0.03       1.0  T
   6   -168.4484512 -0.345734E-02  0.108E-01    0.01       1.0  T
   7   -168.4490416 -0.590372E-03  0.953E-02    0.01       1.0  T
   8   -168.4489241  0.117474E-03  0.930E-02    0.01       1.0  T
   9   -168.4489287 -0.460103E-05  0.888E-02    0.01       1.0  T
  10   -168.4496595 -0.730802E-03  0.695E-02    0.01       1.0  T
  11   -168.4495908  0.687496E-04  0.656E-02    0.01       1.0  T
  12   -168.4499704 -0.379627E-03  0.515E-02    0.01       1.0  T
  13   -168.4500901 -0.119732E-03  0.447E-02    0.01       1.0  T
  14   -168.4504438 -0.353662E-03  0.224E-02    0.01       1.0  T
  15   -168.4504955 -0.517300E-04  0.169E-02    0.01       1.0  T
  16   -168.4505045 -0.892813E-05  0.154E-02    0.01       1.0  T
  17   -168.4505310 -0.265333E-04  0.117E-02    0.01       1.0  T
  18   -168.4503398  0.191148E-03  0.280E-02    0.01       1.0  T
  19   -168.4505662 -0.226324E-03  0.350E-03    0.01       2.7  T
  20   -168.4505685 -0.236998E-05  0.179E-03    0.01       5.3  T
  21   -168.4505561  0.124738E-04  0.680E-03    0.01       1.4  T
  22   -168.4505690 -0.129365E-04  0.110E-03    0.01       8.6  T
  23   -168.4505693 -0.265596E-06  0.523E-04    0.01      18.1  T
  24   -168.4505690  0.274279E-06  0.110E-03    0.01       8.6  T
  25   -168.4505693 -0.307197E-06  0.396E-04    0.01      23.9  T
     SCC iter.                  ...        0 min,  1.210 sec
     gradient                   ...        0 min,  0.037 sec
 * total energy  :  -166.0063920 Eh     change       -0.4761563E-02 Eh
   gradient norm :     0.0202341 Eh/α   predicted    -0.5071216E-02 (   6.50%)
   displ. norm   :     0.8275141 α      lambda       -0.5122542E-02
   maximum displ.:     0.4596570 α      in ANC's #8, #15, #7, ...

........................................................................
.............................. CYCLE   29 ..............................
........................................................................

 iter      E             dE          RMSdq      gap      omega  full diag
   1   -168.4448040 -0.168445E+03  0.132E-01    0.01       0.0  T
   2   -168.3573448  0.874592E-01  0.571E-01    0.15       1.0  T
   3   -168.4210305 -0.636857E-01  0.306E-01    0.07       1.0  T
   4   -168.4282566 -0.722617E-02  0.251E-01    0.06       1.0  T
   5   -168.4442783 -0.160216E-01  0.665E-02    0.01       1.0  T
   6   -168.4443846 -0.106347E-03  0.590E-02    0.01       1.0  T
   7   -168.4450804 -0.695779E-03  0.289E-02    0.01       1.0  T
   8   -168.4451669 -0.865444E-04  0.198E-02    0.01       1.0  T
   9   -168.4452189 -0.519997E-04  0.116E-02    0.01       1.0  T
  10   -168.4451861  0.328043E-04  0.151E-02    0.01       1.0  T
  11   -168.4452310 -0.448986E-04  0.797E-03    0.01       1.2  T
  12   -168.4452475 -0.164254E-04  0.270E-03    0.01       3.5  T
  13   -168.4452488 -0.131986E-05  0.150E-03    0.01       6.3  T
  14   -168.4452490 -0.263534E-06  0.763E-04    0.01      12.4  T
  15   -168.4452491 -0.730010E-07  0.408E-04    0.01      23.1  T
     SCC iter.                  ...        0 min,  0.613 sec
     gradient                   ...        0 min,  0.035 sec
 * total energy  :  -166.0101122 Eh     change       -0.3720214E-02 Eh
   gradient norm :     0.0211052 Eh/α   predicted    -0.4315181E-02 (  15.99%)
   displ. norm   :     0.6892207 α      lambda       -0.3495664E-02
   maximum displ.:     0.3829919 α      in ANC's #8, #15, #7, ...

........................................................................
.............................. CYCLE   30 ..............................
........................................................................

 iter      E             dE          RMSdq      gap      omega  full diag
   1   -168.4502152 -0.168450E+03  0.127E-01    0.01       0.0  T
   2   -168.3708509  0.793643E-01  0.545E-01    0.17       1.0  T
   3   -168.4382765 -0.674256E-01  0.224E-01    0.05       1.0  T
   4   -168.4464460 -0.816953E-02  0.128E-01    0.03       1.0  T
   5   -168.4493381 -0.289205E-02  0.696E-02    0.01       1.0  T
   6   -168.4498157 -0.477644E-03  0.545E-02    0.01       1.0  T
   7   -168.4505683 -0.752523E-03  0.172E-02    0.01       1.0  T
   8   -168.4505706 -0.236855E-05  0.152E-02    0.01       1.0  T
   9   -168.4506072 -0.366179E-04  0.885E-03    0.01       1.1  T
  10   -168.4506235 -0.162977E-04  0.340E-03    0.01       2.8  T
  11   -168.4506259 -0.233296E-05  0.164E-03    0.01       5.8  T
  12   -168.4506259 -0.469085E-07  0.153E-03    0.01       6.2  T
  13   -168.4506265 -0.609186E-06  0.394E-04    0.01      24.0  T
  14   -168.4506265  0.118228E-07  0.401E-04    0.01      23.5  T
     SCC iter.                  ...        0 min,  0.759 sec
     gradient                   ...        0 min,  0.036 sec
 * total energy  :  -166.0124945 Eh     change       -0.2382205E-02 Eh
   gradient norm :     0.0216267 Eh/α   predicted    -0.2578102E-02 (   8.22%)
   displ. norm   :     0.6209220 α      lambda       -0.3177747E-02
   maximum displ.:     0.3154010 α      in ANC's #8, #15, #7, ...

........................................................................
.............................. CYCLE   31 ..............................
........................................................................

 iter      E             dE          RMSdq      gap      omega  full diag
   1   -168.4645848 -0.168465E+03  0.132E-01    0.01       0.0  T
   2   -168.4082428  0.563421E-01  0.461E-01    0.13       1.0  T
   3   -168.4479152 -0.396724E-01  0.261E-01    0.06       1.0  T
   4   -168.4638932 -0.159780E-01  0.728E-02    0.01       1.0  T
   5   -168.4630351  0.858026E-03  0.815E-02    0.02       1.0  T
   6   -168.4648230 -0.178781E-02  0.173E-02    0.01       1.0  T
   7   -168.4648053  0.176071E-04  0.163E-02    0.01       1.0  T
   8   -168.4648120 -0.668611E-05  0.125E-02    0.01       1.0  T
   9   -168.4648254 -0.133515E-04  0.857E-03    0.01       1.1  T
  10   -168.4648431 -0.177601E-04  0.209E-03    0.01       4.5  T
  11   -168.4648434 -0.227749E-06  0.143E-03    0.01       6.6  T
  12   -168.4648427  0.724536E-06  0.199E-03    0.01       4.7  T
  13   -168.4648437 -0.106631E-05  0.442E-04    0.01      21.4  T
  14   -168.4648437  0.217426E-09  0.417E-04    0.01      22.7  T
  15   -168.4648438 -0.344397E-07  0.188E-04    0.01      50.3  T
     SCC iter.                  ...        0 min,  0.772 sec
     gradient                   ...        0 min,  0.037 sec
 * total energy  :  -166.0141126 Eh     change       -0.1618159E-02 Eh
   gradient norm :     0.0176996 Eh/α   predicted    -0.2201456E-02 (  36.05%)
   displ. norm   :     0.5430845 α      lambda       -0.2144215E-02
   maximum displ.:     0.3086767 α      in ANC's #8, #7, #10, ...

........................................................................
.............................. CYCLE   32 ..............................
........................................................................

 iter      E             dE          RMSdq      gap      omega  full diag
   1   -168.4560902 -0.168456E+03  0.102E-01    0.01       0.0  T
   2   -168.4324289  0.236614E-01  0.299E-01    0.07       1.0  T
   3   -168.4386609 -0.623202E-02  0.260E-01    0.06       1.0  T
   4   -168.4513535 -0.126927E-01  0.134E-01    0.01       1.0  T
   5   -168.4556039 -0.425034E-02  0.494E-02    0.01       1.0  T
   6   -168.4560650 -0.461151E-03  0.260E-02    0.01       1.0  T
   7   -168.4561473 -0.822721E-04  0.152E-02    0.01       1.0  T
   8   -168.4561445  0.277583E-05  0.131E-02    0.01       1.0  T
   9   -168.4561782 -0.336711E-04  0.672E-03    0.01       1.4  T
  10   -168.4561882 -0.998614E-05  0.196E-03    0.01       4.8  T
  11   -168.4561890 -0.786095E-06  0.924E-04    0.01      10.2  T
  12   -168.4561890 -0.167657E-07  0.669E-04    0.01      14.1  T
     SCC iter.                  ...        0 min,  0.785 sec
     gradient                   ...        0 min,  0.037 sec
 * total energy  :  -166.0146133 Eh     change       -0.5007171E-03 Eh
   gradient norm :     0.0273148 Eh/α   predicted    -0.1388319E-02 ( 177.27%)
   displ. norm   :     0.2599705 α      lambda       -0.1898514E-02
   maximum displ.:     0.1192993 α      in ANC's #8, #7, #34, ...

........................................................................
.............................. CYCLE   33 ..............................
........................................................................

 iter      E             dE          RMSdq      gap      omega  full diag
   1   -168.4581143 -0.168458E+03  0.881E-02    0.01       0.0  T
   2   -168.4489653  0.914901E-02  0.193E-01    0.04       1.0  T
   3   -168.4411512  0.781407E-02  0.256E-01    0.05       1.0  T
   4   -168.4570829 -0.159317E-01  0.713E-02    0.01       1.0  T
   5   -168.4576405 -0.557576E-03  0.446E-02    0.01       1.0  T
   6   -168.4580692 -0.428661E-03  0.214E-02    0.01       1.0  T
   7   -168.4581378 -0.686253E-04  0.118E-02    0.01       1.0  T
   8   -168.4581295  0.823965E-05  0.110E-02    0.01       1.0  T
   9   -168.4581591 -0.295790E-04  0.351E-03    0.01       2.7  T
  10   -168.4581612 -0.209498E-05  0.121E-03    0.01       7.8  T
  11   -168.4581614 -0.158477E-06  0.611E-04    0.01      15.5  T
  12   -168.4581614 -0.461656E-07  0.329E-04    0.01      28.7  T
     SCC iter.                  ...        0 min,  0.482 sec
     gradient                   ...        0 min,  0.037 sec
 * total energy  :  -166.0154227 Eh     change       -0.8093614E-03 Eh
   gradient norm :     0.0173891 Eh/α   predicted    -0.1013415E-02 (  25.21%)
   displ. norm   :     0.2197457 α      lambda       -0.1141237E-02
   maximum displ.:     0.1292095 α      in ANC's #17, #4, #7, ...

........................................................................
.............................. CYCLE   34 ..............................
[...]
   111   1 H        0.925     0.085     1.923     2.169
   112   1 H        0.925     0.066     2.126     2.280

 Mol. C6AA /au·bohr⁶  :     141895.793059
 Mol. C8AA /au·bohr⁸  :    3498165.091532
 Mol. α(0) /au        :        588.242971


Wiberg/Mayer (AO) data.
largest (>0.10) Wiberg bond orders for each atom

 ---------------------------------------------------------------------------
     #   Z sym  total        # sym  WBO       # sym  WBO       # sym  WBO
 ---------------------------------------------------------------------------
     1   6 C    3.978 --     2 C    1.546     6 C    1.295   100 H    0.966
     2   6 C    3.973 --     1 C    1.546     3 C    1.277    99 H    0.956
     3   6 C    3.964 --     4 C    1.405     2 C    1.277    30 C    1.101
     4   6 C    3.978 --     3 C    1.405     5 C    1.342    98 H    0.948
     5   6 C    3.986 --     4 C    1.342     6 C    1.261     7 C    1.169
     6   6 C    3.984 --     1 C    1.295     5 C    1.261    10 C    1.229
     7   6 C    3.970 --     8 C    1.282    11 C    1.272     5 C    1.169
     8   6 C    3.969 --     7 C    1.282    14 C    1.276     9 C    1.230
     9   6 C    3.969 --    10 C    1.607     8 C    1.230    89 H    0.966
    10   6 C    3.963 --     9 C    1.607     6 C    1.229    90 H    0.966
    11   6 C    3.962 --    12 C    1.274     7 C    1.272    15 C    1.170
    12   6 C    3.942 --    13 C    1.293    11 C    1.274    43 N    1.160
    13   6 C    3.967 --    14 C    1.544    12 C    1.293    87 H    0.962
    14   6 C    3.958 --    13 C    1.544     8 C    1.276    88 H    0.967
    15   6 C    3.964 --    16 C    1.276    17 C    1.270    11 C    1.170
    16   6 C    3.943 --    20 C    1.293    15 C    1.276    43 N    1.158
    17   6 C    3.969 --    18 C    1.282    15 C    1.270    21 C    1.171
    18   6 C    3.969 --    17 C    1.282    19 C    1.276    24 C    1.230
    19   6 C    3.958 --    20 C    1.543    18 C    1.276    96 H    0.967
    20   6 C    3.965 --    19 C    1.543    16 C    1.293    97 H    0.963
    21   6 C    3.986 --    28 C    1.341    22 C    1.261    17 C    1.171
    22   6 C    3.984 --    27 C    1.295    21 C    1.261    23 C    1.230
    23   6 C    3.964 --    24 C    1.608    22 C    1.230    94 H    0.966
    24   6 C    3.969 --    23 C    1.608    18 C    1.230    95 H    0.966
    25   6 C    3.965 --    28 C    1.406    26 C    1.276    29 C    1.100
    26   6 C    3.973 --    27 C    1.546    25 C    1.276    92 H    0.956
    27   6 C    3.979 --    26 C    1.546    22 C    1.295    93 H    0.966
    28   6 C    3.978 --    25 C    1.406    21 C    1.341    91 H    0.948
    29   6 C    3.933 --    56 N    1.237    58 N    1.227    25 C    1.100
                            57 O    0.140    59 O    0.139
    30   6 C    3.933 --    54 N    1.235    52 N    1.228     3 C    1.101
                            53 O    0.140    55 O    0.140
    31   6 C    3.953 --    33 C    0.994    34 C    0.972    32 C    0.956
                            54 N    0.907
    32   6 C    3.953 --    35 C    0.996    36 C    0.969    31 C    0.956
                            52 N    0.908
    33   6 C    3.978 --    31 C    0.994   104 H    0.980   106 H    0.979
                           105 H    0.976
    34   6 C    3.971 --   101 H    0.982   102 H    0.976   103 H    0.975
                            31 C    0.972
    35   6 C    3.978 --    32 C    0.996   110 H    0.979   112 H    0.979
                           111 H    0.975
    36   6 C    3.970 --   107 H    0.983   109 H    0.978   108 H    0.975
                            32 C    0.969
    37   6 C    3.953 --    40 C    0.994    39 C    0.973    38 C    0.956
                            56 N    0.907
    38   6 C    3.953 --    41 C    0.996    42 C    0.969    37 C    0.956
                            58 N    0.908
    39   6 C    3.971 --    60 H    0.981    61 H    0.976    62 H    0.976
                            37 C    0.973
    40   6 C    3.979 --    37 C    0.994    63 H    0.980    65 H    0.979
                            64 H    0.976
    41   6 C    3.978 --    38 C    0.996    69 H    0.979    71 H    0.979
                            70 H    0.975
    42   6 C    3.970 --    66 H    0.983    68 H    0.978    67 H    0.975
                            38 C    0.969
    43   7 N    3.548 --    12 C    1.160    16 C    1.158    51 C    0.998
    44  14 Si   3.606 --    50 C    0.906    49 C    0.905    48 C    0.897
                            45 C    0.821
    45   6 C    3.946 --    46 C    1.025    73 H    0.983    72 H    0.982
                            44 Si   0.821
    46   6 C    3.936 --    45 C    1.025    74 H    0.972    75 H    0.972
                            47 O    0.954
    47   8 O    2.064 --    51 C    0.989    46 C    0.954
    48   6 C    3.975 --    82 H    0.989    83 H    0.986    81 H    0.986
                            44 Si   0.897
    49   6 C    3.981 --    84 H    0.986    85 H    0.986    86 H    0.985
                            44 Si   0.905
    50   6 C    3.981 --    80 H    0.986    78 H    0.986    79 H    0.984
                            44 Si   0.906
    51   6 C    3.953 --    43 N    0.998    47 O    0.989    76 H    0.954
                            77 H    0.953
    52   7 N    3.654 --    53 O    1.361    30 C    1.228    32 C    0.908
    53   8 O    1.750 --    52 N    1.361    30 C    0.140
    54   7 N    3.652 --    55 O    1.343    30 C    1.235    31 C    0.907
    55   8 O    1.743 --    54 N    1.343    30 C    0.140
    56   7 N    3.653 --    57 O    1.341    29 C    1.237    37 C    0.907
    57   8 O    1.741 --    56 N    1.341    29 C    0.140
    58   7 N    3.653 --    59 O    1.360    29 C    1.227    38 C    0.908
    59   8 O    1.748 --    58 N    1.360    29 C    0.139
    60   1 H    0.997 --    39 C    0.981
    61   1 H    0.993 --    39 C    0.976
    62   1 H    0.994 --    39 C    0.976
    63   1 H    0.996 --    40 C    0.980
    64   1 H    0.992 --    40 C    0.976
    65   1 H    0.995 --    40 C    0.979
    66   1 H    0.997 --    42 C    0.983
    67   1 H    0.992 --    42 C    0.975
    68   1 H    0.994 --    42 C    0.978
    69   1 H    0.996 --    41 C    0.979
    70   1 H    0.992 --    41 C    0.975
    71   1 H    0.995 --    41 C    0.979
    72   1 H    0.998 --    45 C    0.982
    73   1 H    0.998 --    45 C    0.983
    74   1 H    1.000 --    46 C    0.972
    75   1 H    1.000 --    46 C    0.972
    76   1 H    0.997 --    51 C    0.954
    77   1 H    0.997 --    51 C    0.953
    78   1 H    0.999 --    50 C    0.986
    79   1 H    0.998 --    50 C    0.984
    80   1 H    0.998 --    50 C    0.986
    81   1 H    0.998 --    48 C    0.986
    82   1 H    0.997 --    48 C    0.989
    83   1 H    0.998 --    48 C    0.986
    84   1 H    0.999 --    49 C    0.986
    85   1 H    0.998 --    49 C    0.986
    86   1 H    0.998 --    49 C    0.985
    87   1 H    0.996 --    13 C    0.962
    88   1 H    0.997 --    14 C    0.967
    89   1 H    0.997 --     9 C    0.966
    90   1 H    0.997 --    10 C    0.966
    91   1 H    0.993 --    28 C    0.948
    92   1 H    0.993 --    26 C    0.956
    93   1 H    0.997 --    27 C    0.966
    94   1 H    0.997 --    23 C    0.966
    95   1 H    0.997 --    24 C    0.966
    96   1 H    0.997 --    19 C    0.967
    97   1 H    0.996 --    20 C    0.963
    98   1 H    0.992 --     4 C    0.948
    99   1 H    0.993 --     2 C    0.956
   100   1 H    0.997 --     1 C    0.966
   101   1 H    0.997 --    34 C    0.982
   102   1 H    0.993 --    34 C    0.976
   103   1 H    0.994 --    34 C    0.975
   104   1 H    0.996 --    33 C    0.980
   105   1 H    0.992 --    33 C    0.976
   106   1 H    0.995 --    33 C    0.979
   107   1 H    0.997 --    36 C    0.983
   108   1 H    0.992 --    36 C    0.975
   109   1 H    0.994 --    36 C    0.978
   110   1 H    0.996 --    35 C    0.979
   111   1 H    0.992 --    35 C    0.975
   112   1 H    0.995 --    35 C    0.979
 ---------------------------------------------------------------------------

Topologies differ in bond orders
Writing corrected topology to xtbtopo.mol

molecular dipole:
                 x           y           z       tot (Debye)
 q only:       -2.768       1.445      -1.592
   full:       -2.591       1.662      -1.734       8.979
molecular quadrupole (traceless):
                xx          xy          yy          xz          yz          zz
 q only:       -8.043      -8.662      23.454      59.059     -35.664     -15.411
  q+dip:       -5.046     -11.246      32.908      55.089     -32.834     -27.862
   full:       -8.787      -9.093      26.794      50.877     -36.161     -18.007

           -------------------------------------------------
          |                Geometry Summary                 |
           -------------------------------------------------

      molecular mass/u    :      808.0522223
   center of mass at/Å    :       -0.8636038       1.0940459      -0.3117881
  moments of inertia/u·Å² :        0.8817031E+04   0.1737685E+05   0.2218467E+05
rotational constants/cm⁻¹ :        0.1911940E-02   0.9701201E-03   0.7598776E-03

 * 115 selected distances

     #   Z          #   Z                                           value/Å
     1   6 C        2   6 C                                       1.3662003
     2   6 C        3   6 C                                       1.4134161
     3   6 C        4   6 C                                       1.3898985
     4   6 C        5   6 C                                       1.3989599
     1   6 C        6   6 C                                       1.4059844
     5   6 C        6   6 C                                       1.4159100
     7   6 C        8   6 C                                       1.4173279
     8   6 C        9   6 C                                       1.4195738
     6   6 C       10   6 C                                       1.4173128
     9   6 C       10   6 C                                       1.3564442
     7   6 C       11   6 C                                       1.4160248
    11   6 C       12   6 C                                       1.4165865
    12   6 C       13   6 C                                       1.3968761
     8   6 C       14   6 C                                       1.4105952
    13   6 C       14   6 C                                       1.3661475
    15   6 C       16   6 C                                       1.4153263
    15   6 C       17   6 C                                       1.4167002
    17   6 C       18   6 C                                       1.4176489
    18   6 C       19   6 C                                       1.4107538
    16   6 C       20   6 C                                       1.3964946
    19   6 C       20   6 C                                       1.3662517
    21   6 C       22   6 C                                       1.4160171
    22   6 C       23   6 C                                       1.4170947
    18   6 C       24   6 C                                       1.4195616
    23   6 C       24   6 C                                       1.3562222
    25   6 C       26   6 C                                       1.4133705
    22   6 C       27   6 C                                       1.4060056
    26   6 C       27   6 C                                       1.3659349
    21   6 C       28   6 C                                       1.3993525
    25   6 C       28   6 C                                       1.3896947
    31   6 C       32   6 C                                       1.5378079
    31   6 C       33   6 C                                       1.5229796
    31   6 C       34   6 C                                       1.5315309
    32   6 C       35   6 C                                       1.5219322
    32   6 C       36   6 C                                       1.5346471
    37   6 C       38   6 C                                       1.5380814
    37   6 C       39   6 C                                       1.5314013
    37   6 C       40   6 C                                       1.5228049
    38   6 C       41   6 C                                       1.5217929
    38   6 C       42   6 C                                       1.5346503
    12   6 C       43   7 N                                       1.3688650
    16   6 C       43   7 N                                       1.3690228
    44  14 Si      45   6 C                                       1.9230151 (max)
    45   6 C       46   6 C                                       1.5138323
    46   6 C       47   8 O                                       1.4183851
    44  14 Si      48   6 C                                       1.9046675
    44  14 Si      49   6 C                                       1.9073526
    44  14 Si      50   6 C                                       1.9075885
    43   7 N       51   6 C                                       1.4285615
    47   8 O       51   6 C                                       1.3997685
    30   6 C       52   7 N                                       1.3508427
    32   6 C       52   7 N                                       1.4776044
    52   7 N       53   8 O                                       1.2388565
    30   6 C       54   7 N                                       1.3491626
    31   6 C       54   7 N                                       1.4804120
    54   7 N       55   8 O                                       1.2430990
    29   6 C       56   7 N                                       1.3486224
    37   6 C       56   7 N                                       1.4804729
    56   7 N       57   8 O                                       1.2434438
    29   6 C       58   7 N                                       1.3509222
    38   6 C       58   7 N                                       1.4774255
    58   7 N       59   8 O                                       1.2390405
    39   6 C       60   1 H                                       1.0873809
    39   6 C       61   1 H                                       1.0857014
    39   6 C       62   1 H                                       1.0878955
    40   6 C       63   1 H                                       1.0855449
    40   6 C       64   1 H                                       1.0871450
    40   6 C       65   1 H                                       1.0858306
    42   6 C       66   1 H                                       1.0880287
    42   6 C       67   1 H                                       1.0856365
    42   6 C       68   1 H                                       1.0881420
    41   6 C       69   1 H                                       1.0854332
    41   6 C       70   1 H                                       1.0871297
    41   6 C       71   1 H                                       1.0857541
    45   6 C       72   1 H                                       1.0894649
    45   6 C       73   1 H                                       1.0892864
    46   6 C       74   1 H                                       1.0996101
    46   6 C       75   1 H                                       1.1003485
    51   6 C       76   1 H                                       1.1043287
    51   6 C       77   1 H                                       1.1028174
    50   6 C       78   1 H                                       1.0860991
    50   6 C       79   1 H                                       1.0859368
    50   6 C       80   1 H                                       1.0855360
    48   6 C       81   1 H                                       1.0851934
    48   6 C       82   1 H                                       1.0848082
    48   6 C       83   1 H                                       1.0852613
    49   6 C       84   1 H                                       1.0861204
    49   6 C       85   1 H                                       1.0856541
    49   6 C       86   1 H                                       1.0861507
    13   6 C       87   1 H                                       1.0779376
    14   6 C       88   1 H                                       1.0793063
     9   6 C       89   1 H                                       1.0804231
    10   6 C       90   1 H                                       1.0802789
    28   6 C       91   1 H                                       1.0750048
    26   6 C       92   1 H                                       1.0764123
    27   6 C       93   1 H                                       1.0806456
    23   6 C       94   1 H                                       1.0803238
    24   6 C       95   1 H                                       1.0804594
    19   6 C       96   1 H                                       1.0792425
    20   6 C       97   1 H                                       1.0777098
     4   6 C       98   1 H                                       1.0749883 (min)
     2   6 C       99   1 H                                       1.0762539
     1   6 C      100   1 H                                       1.0806429
    34   6 C      101   1 H                                       1.0875240
    34   6 C      102   1 H                                       1.0857055
    34   6 C      103   1 H                                       1.0878211
    33   6 C      104   1 H                                       1.0855328
    33   6 C      105   1 H                                       1.0871897
    33   6 C      106   1 H                                       1.0858349
    36   6 C      107   1 H                                       1.0880434
    36   6 C      108   1 H                                       1.0856600
    36   6 C      109   1 H                                       1.0882016
    35   6 C      110   1 H                                       1.0854850
    35   6 C      111   1 H                                       1.0871723
    35   6 C      112   1 H                                       1.0857538

 * 6 distinct bonds (by element types)

   Z      Z             #   av. dist./Å        max./Å        min./Å
   1 H    6 C          53     1.0855810     1.1043287     1.0749883
   6 C    6 C          41     1.4347597     1.5380814     1.3562222
   6 C    7 N          11     1.4074467     1.4804729     1.3486224
   6 C    8 O           2     1.4090768     1.4183851     1.3997685
   7 N    8 O           4     1.2411099     1.2434438     1.2388565
   6 C   14 Si          4     1.9106559     1.9230151     1.9046675


optimized geometry written to: xtbopt.mol


           -------------------------------------------------
          | TOTAL ENERGY             -166.022122316280 Eh   |
          | GRADIENT NORM               0.000569406001 Eh/α |
          | HOMO-LUMO GAP               0.003717969300 eV   |
           -------------------------------------------------
########################################################################
[WARNING] Runtime exception occurred
-1- restart_readRestart: Number of electron missmatch in restart file.
########################################################################

------------------------------------------------------------------------
 * finished run on 2024/11/14 at 10:49:44.796     
------------------------------------------------------------------------
 total:
 * wall-time:     0 d,  0 h,  1 min, 19.874 sec
 *  cpu-time:     0 d,  0 h,  4 min, 18.021 sec
 * ratio c/w:     3.230 speedup
 SCF:
 * wall-time:     0 d,  0 h,  0 min,  2.097 sec
 *  cpu-time:     0 d,  0 h,  0 min,  7.557 sec
 * ratio c/w:     3.604 speedup
Note: The following floating-point exceptions are signalling: IEEE_UNDERFLOW_FLAG
normal termination of xtb
 ANC optimizer:
 * wall-time:     0 d,  0 h,  1 min, 17.762 sec
 *  cpu-time:     0 d,  0 h,  4 min, 10.434 sec
 * ratio c/w:     3.221 speedup

