      -----------------------------------------------------------      
     |                   =====================                   |     
     |                           x T B                           |     
     |                   =====================                   |     
     |                         S. Grimme                         |     
     |          Mulliken Center for Theoretical Chemistry        |     
     |                    University of Bonn                     |     
      -----------------------------------------------------------      

   * xtb version 6.6.1 (8d0f1dd) compiled by 'runner@Mac-1690902418499.local' on 2023-08-01

   xtb is free software: you can redistribute it and/or modify it under
   the terms of the GNU Lesser General Public License as published by
   the Free Software Foundation, either version 3 of the License, or
   (at your option) any later version.
   
   xtb is distributed in the hope that it will be useful,
   but WITHOUT ANY WARRANTY; without even the implied warranty of
   MERCHANTABILITY or FITNESS FOR A PARTICULAR PURPOSE.  See the
   GNU Lesser General Public License for more details.
   
   Cite this work as:
   * C. Bannwarth, E. Caldeweyher, S. Ehlert, A. Hansen, P. Pracht,
     J. Seibert, S. Spicher, S. Grimme, WIREs Comput. Mol. Sci., 2020, 11,
     e01493. DOI: 10.1002/wcms.1493
   
   for GFN2-xTB:
   * C. Bannwarth, S. Ehlert and S. Grimme., J. Chem. Theory Comput., 2019,
     15, 1652-1671. DOI: 10.1021/acs.jctc.8b01176
   for GFN1-xTB:
   * S. Grimme, C. Bannwarth, P. Shushkov, J. Chem. Theory Comput., 2017,
     13, 1989-2009. DOI: 10.1021/acs.jctc.7b00118
   for GFN0-xTB:
   * P. Pracht, E. Caldeweyher, S. Ehlert, S. Grimme, ChemRxiv, 2019, preprint.
     DOI: 10.26434/chemrxiv.8326202.v1
   for GFN-FF:
   * S. Spicher and S. Grimme, Angew. Chem. Int. Ed., 2020, 59, 15665-15673.
     DOI: 10.1002/anie.202004239
   
   for ALPB and GBSA implicit solvation:
   * S. Ehlert, M. Stahn, S. Spicher, S. Grimme, J. Chem. Theory Comput.,
     2021, 17, 4250-4261. DOI: 10.1021/acs.jctc.1c00471
   
   for DFT-D4:
   * E. Caldeweyher, C. Bannwarth and S. Grimme, J. Chem. Phys., 2017,
     147, 034112. DOI: 10.1063/1.4993215
   * E. Caldeweyher, S. Ehlert, A. Hansen, H. Neugebauer, S. Spicher,
     C. Bannwarth and S. Grimme, J. Chem. Phys., 2019, 150, 154122.
     DOI: 10.1063/1.5090222
   * E. Caldeweyher, J.-M. Mewes, S. Ehlert and S. Grimme, Phys. Chem. Chem. Phys.
     2020, 22, 8499-8512. DOI: 10.1039/D0CP00502A
   
   for sTDA-xTB:
   * S. Grimme and C. Bannwarth, J. Chem. Phys., 2016, 145, 054103.
     DOI: 10.1063/1.4959605
   
   in the mass-spec context:
   * V. Asgeirsson, C. Bauer and S. Grimme, Chem. Sci., 2017, 8, 4879.
     DOI: 10.1039/c7sc00601b
   * J. Koopman and S. Grimme, ACS Omega 2019, 4, 12, 15120-15133.
     DOI: 10.1021/acsomega.9b02011
   
   for metadynamics refer to:
   * S. Grimme, J. Chem. Theory Comput., 2019, 155, 2847-2862
     DOI: 10.1021/acs.jctc.9b00143
   
   for SPH calculations refer to:
   * S. Spicher and S. Grimme, J. Chem. Theory Comput., 2021, 17, 1701-1714
     DOI: 10.1021/acs.jctc.0c01306
   
   with help from (in alphabetical order)
   P. Atkinson, C. Bannwarth, F. Bohle, G. Brandenburg, E. Caldeweyher
   M. Checinski, S. Dohm, S. Ehlert, S. Ehrlich, I. Gerasimov, C. Hölzer
   A. Katbashev, J. Koopman, C. Lavigne, S. Lehtola, F. März, M. Müller,
   F. Musil, H. Neugebauer, J. Pisarek, C. Plett, P. Pracht, F. Pultar,
   J. Seibert, P. Shushkov, S. Spicher, M. Stahn, M. Steiner, T. Strunk,
   J. Stückrath, T. Rose, and J. Unsleber
   
 * started run on 2024/11/14 at 10:50:58.125     

           -------------------------------------------------
          |                Calculation Setup                |
           -------------------------------------------------

          program call               : xtb opt_cation_Nitro3.mol --gfn2 --sp --chrg 1 --uhf 1
          coordinate file            : opt_cation_Nitro3.mol
          omp threads                :                     8

   ID    Z sym.   atoms
    1    6 C      1-42, 45, 46, 48-51
    2    7 N      43, 52, 54, 56, 58
    3   14 Si     44
    4    8 O      47, 53, 55, 57, 59
    5    1 H      60-112
########################################################################
[WARNING] Please study the warnings concerning your input carefully
-1- prog_main: Charge in sdf/mol input was overwritten
########################################################################

           -------------------------------------------------
          |                 G F N 2 - x T B                 |
           -------------------------------------------------

        Reference                      10.1021/acs.jctc.8b01176
      * Hamiltonian:
        H0-scaling (s, p, d)           1.850000    2.230000    2.230000
        zeta-weighting                 0.500000
      * Dispersion:
        s8                             2.700000
        a1                             0.520000
        a2                             5.000000
        s9                             5.000000
      * Repulsion:
        kExp                           1.500000    1.000000
        rExp                           1.000000
      * Coulomb:
        alpha                          2.000000
        third order                    shell-resolved
        anisotropic                    true
        a3                             3.000000
        a5                             4.000000
        cn-shift                       1.200000
        cn-exp                         4.000000
        max-rad                        5.000000

q/qsh data taken from xtbrestart
CAMM data taken from xtbrestart

          ...................................................
          :                      SETUP                      :
          :.................................................:
          :  # basis functions                 295          :
          :  # atomic orbitals                 294          :
          :  # shells                          172          :
          :  # electrons                       303          :
          :  max. iterations                   250          :
          :  Hamiltonian                  GFN2-xTB          :
          :  restarted?                       true          :
          :  GBSA solvation                  false          :
          :  PC potential                    false          :
          :  electronic temp.          300.0000000     K    :
          :  accuracy                    1.0000000          :
          :  -> integral cutoff          0.2500000E+02      :
          :  -> integral neglect         0.1000000E-07      :
          :  -> SCF convergence          0.1000000E-05 Eh   :
          :  -> wf. convergence          0.1000000E-03 e    :
          :  Broyden damping             0.4000000          :
          ...................................................

 iter      E             dE          RMSdq      gap      omega  full diag
   1   -168.3850919 -0.168385E+03  0.918E-01    0.01       0.0  T
   2   -168.4260322 -0.409403E-01  0.612E-01    0.11       1.0  T
   3   -168.1465277  0.279504E+00  0.117E+00    0.81       1.0  T
   4   -168.4362633 -0.289736E+00  0.462E-01    0.08       1.0  T
   5   -168.4156429  0.206204E-01  0.541E-01    0.20       1.0  T
   6   -168.0411509  0.374492E+00  0.123E+00    0.07       1.0  T
   7   -168.4223122 -0.381161E+00  0.464E-01    0.14       1.0  T
   8   -168.4652801 -0.429679E-01  0.200E-01    0.00       1.0  T
   9   -168.4586578  0.662228E-02  0.250E-01    0.04       1.0  T
  10   -168.4548281  0.382974E-02  0.267E-01    0.05       1.0  T
  11   -168.4613031 -0.647496E-02  0.223E-01    0.04       1.0  T
  12   -168.4682972 -0.699414E-02  0.140E-01    0.01       1.0  T
  13   -168.4692185 -0.921342E-03  0.122E-01    0.01       1.0  T
  14   -168.4701267 -0.908171E-03  0.989E-02    0.01       1.0  T
  15   -168.4713352 -0.120850E-02  0.675E-02    0.00       1.0  T
  16   -168.4714202 -0.850288E-04  0.650E-02    0.00       1.0  T
  17   -168.4714612 -0.409370E-04  0.632E-02    0.00       1.0  T
  18   -168.4722236 -0.762436E-03  0.316E-02    0.01       1.0  T
  19   -168.4723478 -0.124223E-03  0.226E-02    0.01       1.0  T
  20   -168.4724704 -0.122522E-03  0.703E-03    0.00       1.3  T
  21   -168.4724759 -0.557704E-05  0.523E-03    0.00       1.8  T
  22   -168.4724827 -0.673234E-05  0.384E-04    0.00      24.6  T
  23   -168.4724822  0.437551E-06  0.134E-03    0.00       7.0  T
  24   -168.4724826 -0.401879E-06  0.494E-04    0.00      19.1  T
  25   -168.4724827 -0.581734E-07  0.112E-04    0.00      84.5  T

   *** convergence criteria satisfied after 25 iterations ***

         #    Occupation            Energy/Eh            Energy/eV
      -------------------------------------------------------------
         1        2.0000           -0.8296659             -22.5764
       ...           ...                  ...                  ...
       146        2.0000           -0.4638017             -12.6207
       147        2.0000           -0.4515671             -12.2878
       148        2.0000           -0.4511325             -12.2759
       149        1.9999           -0.4498438             -12.2409
       150        1.9947           -0.4460137             -12.1367
       151        1.8936           -0.4430701             -12.0566
       152        0.5775           -0.4383076             -11.9270 (HOMO)
       153        0.5343           -0.4381707             -11.9232 (LUMO)
       154                         -0.3709275             -10.0935
       155                         -0.3627815              -9.8718
       156                         -0.3473039              -9.4506
       157                         -0.3320481              -9.0355
       ...                                ...                  ...
       294                          0.6616160              18.0035
      -------------------------------------------------------------
                  HL-Gap            0.0001369 Eh            0.0037 eV
             Fermi-level           -0.4396064 Eh          -11.9623 eV

 SCC (total)                   0 d,  0 h,  0 min,  1.411 sec
 SCC setup                      ...        0 min,  0.000 sec (  0.021%)
 Dispersion                     ...        0 min,  0.001 sec (  0.081%)
 classical contributions        ...        0 min,  0.000 sec (  0.020%)
 integral evaluation            ...        0 min,  0.005 sec (  0.389%)
 iterations                     ...        0 min,  1.362 sec ( 96.508%)
 molecular gradient             ...        0 min,  0.038 sec (  2.700%)
 printout                       ...        0 min,  0.004 sec (  0.280%)

         :::::::::::::::::::::::::::::::::::::::::::::::::::::
         ::                     SUMMARY                     ::
         :::::::::::::::::::::::::::::::::::::::::::::::::::::
         :: total energy            -166.022122189357 Eh    ::
         :: gradient norm              0.000730712112 Eh/a0 ::
         :: HOMO-LUMO gap              0.003725111864 eV    ::
         ::.................................................::
         :: SCC energy              -168.472482689519 Eh    ::
         :: -> isotropic ES            0.180882731539 Eh    ::
         :: -> anisotropic ES          0.006957361940 Eh    ::
         :: -> anisotropic XC          0.058619168536 Eh    ::
         :: -> dispersion             -0.161192792930 Eh    ::
         :: repulsion energy           2.444130349418 Eh    ::
         :: add. restraining           0.000000000000 Eh    ::
         :: total charge               0.999998787306 e     ::
         :::::::::::::::::::::::::::::::::::::::::::::::::::::

           -------------------------------------------------
          |                Property Printout                |
           -------------------------------------------------

    * Orbital Energies and Occupations

         #    Occupation            Energy/Eh            Energy/eV
      -------------------------------------------------------------
         1        2.0000           -0.8296659             -22.5764
       ...           ...                  ...                  ...
       140        2.0000           -0.4910705             -13.3627
       141        2.0000           -0.4878366             -13.2747
       142        2.0000           -0.4847139             -13.1897
       143        2.0000           -0.4791695             -13.0389
       144        2.0000           -0.4715516             -12.8316
       145        2.0000           -0.4712147             -12.8224
       146        2.0000           -0.4638017             -12.6207
       147        2.0000           -0.4515671             -12.2878
       148        2.0000           -0.4511325             -12.2759
       149        1.9999           -0.4498438             -12.2409
       150        1.9947           -0.4460137             -12.1367
       151        1.8936           -0.4430701             -12.0566
       152        0.5775           -0.4383076             -11.9270 (HOMO)
       153        0.5343           -0.4381707             -11.9232 (LUMO)
       154                         -0.3709275             -10.0935
       155                         -0.3627815              -9.8718
       156                         -0.3473039              -9.4506
       157                         -0.3320481              -9.0355
       158                         -0.3206033              -8.7241
       159                         -0.3107968              -8.4572
       160                         -0.2842253              -7.7342
       161                         -0.2836667              -7.7190
       162                         -0.2714718              -7.3871
       163                         -0.2582633              -7.0277
       ...                                ...                  ...
       294                          0.6616160              18.0035
      -------------------------------------------------------------
                  HL-Gap            0.0001369 Eh            0.0037 eV
             Fermi-level           -0.4396064 Eh          -11.9623 eV

     #   Z          covCN         q      C6AA      α(0)
     1   6 C        2.920    -0.038    28.954     8.824
     2   6 C        2.918    -0.040    28.982     8.828
     3   6 C        2.967     0.006    27.879     8.661
     4   6 C        2.926    -0.037    28.925     8.820
     5   6 C        2.981     0.012    27.738     8.639
     6   6 C        2.988     0.014    27.681     8.630
     7   6 C        2.978     0.014    27.700     8.633
     8   6 C        2.986     0.015    27.678     8.630
     9   6 C        2.919    -0.026    28.654     8.778
    10   6 C        2.913    -0.041    29.026     8.835
    11   6 C        3.060    -0.016    28.353     8.732
    12   6 C        3.094     0.055    26.664     8.463
    13   6 C        2.907    -0.040    28.998     8.830
    14   6 C        2.928    -0.033    28.816     8.803
    15   6 C        3.058    -0.017    28.376     8.736
    16   6 C        3.098     0.054    26.660     8.462
    17   6 C        2.978     0.014    27.698     8.633
    18   6 C        2.986     0.015    27.661     8.627
    19   6 C        2.928    -0.033    28.817     8.803
    20   6 C        2.907    -0.040    28.983     8.828
    21   6 C        2.981     0.012    27.739     8.639
    22   6 C        2.988     0.015    27.673     8.629
    23   6 C        2.913    -0.041    29.025     8.834
    24   6 C        2.919    -0.025    28.639     8.776
    25   6 C        2.967     0.006    27.880     8.661
    26   6 C        2.918    -0.040    28.984     8.828
    27   6 C        2.920    -0.039    28.958     8.825
    28   6 C        2.925    -0.037    28.927     8.820
    29   6 C        2.885     0.039    27.125     8.538
    30   6 C        2.884     0.039    27.127     8.539
    31   6 C        3.883     0.043    19.801     6.326
    32   6 C        3.884     0.042    19.816     6.329
    33   6 C        3.758    -0.121    22.864     6.817
    34   6 C        3.760    -0.120    22.850     6.814
    35   6 C        3.758    -0.121    22.872     6.819
    36   6 C        3.761    -0.120    22.845     6.814
    37   6 C        3.883     0.043    19.799     6.326
    38   6 C        3.884     0.042    19.816     6.329
    39   6 C        3.760    -0.120    22.849     6.814
    40   6 C        3.758    -0.121    22.860     6.817
    41   6 C        3.758    -0.121    22.870     6.818
    42   6 C        3.761    -0.120    22.844     6.813
    43   7 N        2.797    -0.029    21.794     6.934
    44  14 Si       3.505     0.487   100.739    19.412
    45   6 C        3.697    -0.170    24.009     7.009
    46   6 C        3.713     0.089    19.235     6.267
    47   8 O        1.702    -0.320    19.338     5.937
    48   6 C        3.649    -0.211    25.057     7.191
    49   6 C        3.649    -0.210    25.045     7.190
    50   6 C        3.649    -0.210    25.038     7.189
    51   6 C        3.642     0.151    18.473     6.179
    52   7 N        2.811     0.241    17.332     6.183
    53   8 O        0.926    -0.358    20.819     6.119
    54   7 N        2.809     0.233    17.448     6.204
    55   8 O        0.926    -0.374    21.136     6.165
    56   7 N        2.809     0.233    17.454     6.205
    57   8 O        0.926    -0.376    21.181     6.172
    58   7 N        2.812     0.240    17.344     6.185
    59   8 O        0.926    -0.358    20.832     6.121
    60   1 H        0.925     0.051     2.305     2.374
    61   1 H        0.925     0.075     2.030     2.228
    62   1 H        0.925     0.076     2.017     2.221
    63   1 H        0.925     0.063     2.159     2.298
    64   1 H        0.925     0.083     1.950     2.184
    65   1 H        0.925     0.066     2.126     2.280
    66   1 H        0.925     0.051     2.311     2.377
    67   1 H        0.925     0.077     2.013     2.219
    68   1 H        0.925     0.078     2.005     2.214
    69   1 H        0.925     0.065     2.145     2.290
    70   1 H        0.925     0.085     1.924     2.169
    71   1 H        0.925     0.066     2.127     2.281
    72   1 H        0.925     0.041     2.432     2.439
    73   1 H        0.925     0.040     2.446     2.446
    74   1 H        0.923     0.012     2.861     2.645
    75   1 H        0.923     0.009     2.904     2.665
    76   1 H        0.923     0.034     2.526     2.486
    77   1 H        0.923     0.036     2.502     2.474
    78   1 H        0.925     0.034     2.524     2.484
    79   1 H        0.925     0.042     2.424     2.435
    80   1 H        0.925     0.043     2.407     2.426
    81   1 H        0.925     0.041     2.440     2.443
    82   1 H        0.925     0.039     2.469     2.457
    83   1 H        0.925     0.040     2.449     2.447
    84   1 H        0.925     0.034     2.535     2.490
    85   1 H        0.925     0.044     2.394     2.420
    86   1 H        0.925     0.040     2.447     2.446
    87   1 H        0.926     0.046     2.376     2.410
    88   1 H        0.926     0.049     2.333     2.389
    89   1 H        0.926     0.044     2.395     2.420
    90   1 H        0.926     0.038     2.476     2.461
    91   1 H        0.926     0.084     1.940     2.178
    92   1 H        0.926     0.078     2.001     2.212
    93   1 H        0.926     0.041     2.437     2.441
    94   1 H        0.926     0.038     2.478     2.461
    95   1 H        0.926     0.044     2.397     2.421
    96   1 H        0.926     0.049     2.334     2.389
    97   1 H        0.926     0.049     2.338     2.391
    98   1 H        0.926     0.085     1.929     2.172
    99   1 H        0.926     0.079     1.992     2.207
   100   1 H        0.926     0.041     2.437     2.441
   101   1 H        0.925     0.051     2.310     2.377
   102   1 H        0.925     0.075     2.030     2.228
   103   1 H        0.925     0.077     2.012     2.218
   104   1 H        0.925     0.064     2.156     2.296
   105   1 H        0.925     0.083     1.947     2.182
   106   1 H        0.925     0.066     2.125     2.280
   107   1 H        0.925     0.051     2.307     2.375
   108   1 H        0.925     0.077     2.012     2.218
   109   1 H        0.925     0.078     2.002     2.213
   110   1 H        0.925     0.065     2.146     2.291
   111   1 H        0.925     0.085     1.923     2.169
   112   1 H        0.925     0.066     2.126     2.280

 Mol. C6AA /au·bohr⁶  :     141895.639088
 Mol. C8AA /au·bohr⁸  :    3498162.074152
 Mol. α(0) /au        :        588.242559


Wiberg/Mayer (AO) data.
largest (>0.10) Wiberg bond orders for each atom

 ---------------------------------------------------------------------------
     #   Z sym  total        # sym  WBO       # sym  WBO       # sym  WBO
 ---------------------------------------------------------------------------
     1   6 C    3.978 --     2 C    1.546     6 C    1.295   100 H    0.966
     2   6 C    3.973 --     1 C    1.546     3 C    1.277    99 H    0.956
     3   6 C    3.964 --     4 C    1.405     2 C    1.277    30 C    1.101
     4   6 C    3.978 --     3 C    1.405     5 C    1.342    98 H    0.948
     5   6 C    3.986 --     4 C    1.342     6 C    1.261     7 C    1.169
     6   6 C    3.984 --     1 C    1.295     5 C    1.261    10 C    1.229
     7   6 C    3.970 --     8 C    1.282    11 C    1.272     5 C    1.169
     8   6 C    3.969 --     7 C    1.282    14 C    1.276     9 C    1.230
     9   6 C    3.969 --    10 C    1.607     8 C    1.230    89 H    0.966
    10   6 C    3.963 --     9 C    1.607     6 C    1.229    90 H    0.966
    11   6 C    3.962 --    12 C    1.274     7 C    1.272    15 C    1.170
    12   6 C    3.942 --    13 C    1.293    11 C    1.274    43 N    1.160
    13   6 C    3.967 --    14 C    1.544    12 C    1.293    87 H    0.962
    14   6 C    3.958 --    13 C    1.544     8 C    1.276    88 H    0.967
    15   6 C    3.964 --    16 C    1.277    17 C    1.270    11 C    1.170
    16   6 C    3.943 --    20 C    1.293    15 C    1.277    43 N    1.159
    17   6 C    3.969 --    18 C    1.282    15 C    1.270    21 C    1.171
    18   6 C    3.969 --    17 C    1.282    19 C    1.276    24 C    1.230
    19   6 C    3.958 --    20 C    1.543    18 C    1.276    96 H    0.967
    20   6 C    3.965 --    19 C    1.543    16 C    1.293    97 H    0.963
    21   6 C    3.986 --    28 C    1.341    22 C    1.261    17 C    1.171
    22   6 C    3.984 --    27 C    1.295    21 C    1.261    23 C    1.230
    23   6 C    3.964 --    24 C    1.608    22 C    1.230    94 H    0.966
    24   6 C    3.969 --    23 C    1.608    18 C    1.230    95 H    0.966
    25   6 C    3.965 --    28 C    1.407    26 C    1.276    29 C    1.100
    26   6 C    3.973 --    27 C    1.546    25 C    1.276    92 H    0.956
    27   6 C    3.979 --    26 C    1.546    22 C    1.295    93 H    0.966
    28   6 C    3.978 --    25 C    1.407    21 C    1.341    91 H    0.948
    29   6 C    3.933 --    56 N    1.237    58 N    1.227    25 C    1.100
                            57 O    0.140    59 O    0.139
    30   6 C    3.933 --    54 N    1.235    52 N    1.228     3 C    1.101
                            53 O    0.140    55 O    0.140
    31   6 C    3.953 --    33 C    0.994    34 C    0.972    32 C    0.956
                            54 N    0.907
    32   6 C    3.953 --    35 C    0.996    36 C    0.969    31 C    0.956
                            52 N    0.908
    33   6 C    3.978 --    31 C    0.994   104 H    0.980   106 H    0.979
                           105 H    0.976
    34   6 C    3.971 --   101 H    0.982   102 H    0.976   103 H    0.975
                            31 C    0.972
    35   6 C    3.978 --    32 C    0.996   110 H    0.979   112 H    0.979
                           111 H    0.975
    36   6 C    3.970 --   107 H    0.983   109 H    0.978   108 H    0.975
                            32 C    0.969
    37   6 C    3.953 --    40 C    0.994    39 C    0.973    38 C    0.956
                            56 N    0.907
    38   6 C    3.953 --    41 C    0.996    42 C    0.969    37 C    0.956
                            58 N    0.908
    39   6 C    3.971 --    60 H    0.981    61 H    0.976    62 H    0.976
                            37 C    0.973
    40   6 C    3.979 --    37 C    0.994    63 H    0.980    65 H    0.979
                            64 H    0.976
    41   6 C    3.978 --    38 C    0.996    69 H    0.979    71 H    0.979
                            70 H    0.975
    42   6 C    3.970 --    66 H    0.983    68 H    0.978    67 H    0.975
                            38 C    0.969
    43   7 N    3.548 --    12 C    1.160    16 C    1.159    51 C    0.998
    44  14 Si   3.606 --    50 C    0.906    49 C    0.905    48 C    0.897
                            45 C    0.821
    45   6 C    3.946 --    46 C    1.025    73 H    0.983    72 H    0.982
                            44 Si   0.821
    46   6 C    3.936 --    45 C    1.025    74 H    0.972    75 H    0.972
                            47 O    0.954
    47   8 O    2.064 --    51 C    0.989    46 C    0.954
    48   6 C    3.975 --    82 H    0.989    83 H    0.986    81 H    0.986
                            44 Si   0.897
    49   6 C    3.981 --    84 H    0.986    85 H    0.986    86 H    0.985
                            44 Si   0.905
    50   6 C    3.981 --    80 H    0.986    78 H    0.986    79 H    0.984
                            44 Si   0.906
    51   6 C    3.953 --    43 N    0.998    47 O    0.989    76 H    0.954
                            77 H    0.953
    52   7 N    3.654 --    53 O    1.361    30 C    1.228    32 C    0.908
    53   8 O    1.750 --    52 N    1.361    30 C    0.140
    54   7 N    3.652 --    55 O    1.343    30 C    1.235    31 C    0.907
    55   8 O    1.743 --    54 N    1.343    30 C    0.140
    56   7 N    3.653 --    57 O    1.341    29 C    1.237    37 C    0.907
    57   8 O    1.740 --    56 N    1.341    29 C    0.140
    58   7 N    3.653 --    59 O    1.360    29 C    1.227    38 C    0.908
    59   8 O    1.748 --    58 N    1.360    29 C    0.139
    60   1 H    0.997 --    39 C    0.981
    61   1 H    0.993 --    39 C    0.976
    62   1 H    0.994 --    39 C    0.976
    63   1 H    0.996 --    40 C    0.980
    64   1 H    0.992 --    40 C    0.976
    65   1 H    0.995 --    40 C    0.979
    66   1 H    0.997 --    42 C    0.983
    67   1 H    0.992 --    42 C    0.975
    68   1 H    0.994 --    42 C    0.978
    69   1 H    0.996 --    41 C    0.979
    70   1 H    0.992 --    41 C    0.975
    71   1 H    0.995 --    41 C    0.979
    72   1 H    0.998 --    45 C    0.982
    73   1 H    0.998 --    45 C    0.983
    74   1 H    1.000 --    46 C    0.972
    75   1 H    1.000 --    46 C    0.972
    76   1 H    0.997 --    51 C    0.954
    77   1 H    0.998 --    51 C    0.953
    78   1 H    0.999 --    50 C    0.986
    79   1 H    0.998 --    50 C    0.984
    80   1 H    0.998 --    50 C    0.986
    81   1 H    0.998 --    48 C    0.986
    82   1 H    0.997 --    48 C    0.989
    83   1 H    0.998 --    48 C    0.986
    84   1 H    0.999 --    49 C    0.986
    85   1 H    0.998 --    49 C    0.986
    86   1 H    0.998 --    49 C    0.985
    87   1 H    0.996 --    13 C    0.962
    88   1 H    0.997 --    14 C    0.967
    89   1 H    0.997 --     9 C    0.966
    90   1 H    0.997 --    10 C    0.966
    91   1 H    0.993 --    28 C    0.948
    92   1 H    0.993 --    26 C    0.956
    93   1 H    0.997 --    27 C    0.966
    94   1 H    0.997 --    23 C    0.966
    95   1 H    0.997 --    24 C    0.966
    96   1 H    0.997 --    19 C    0.967
    97   1 H    0.996 --    20 C    0.963
    98   1 H    0.992 --     4 C    0.948
    99   1 H    0.993 --     2 C    0.956
   100   1 H    0.997 --     1 C    0.966
   101   1 H    0.997 --    34 C    0.982
   102   1 H    0.993 --    34 C    0.976
   103   1 H    0.994 --    34 C    0.975
   104   1 H    0.996 --    33 C    0.980
   105   1 H    0.992 --    33 C    0.976
   106   1 H    0.995 --    33 C    0.979
   107   1 H    0.997 --    36 C    0.983
   108   1 H    0.992 --    36 C    0.975
   109   1 H    0.994 --    36 C    0.978
   110   1 H    0.996 --    35 C    0.979
   111   1 H    0.992 --    35 C    0.975
   112   1 H    0.995 --    35 C    0.979
 ---------------------------------------------------------------------------

Topologies differ in bond orders
Writing corrected topology to xtbtopo.mol

molecular dipole:
                 x           y           z       tot (Debye)
 q only:       -2.767       1.446      -1.592
   full:       -2.590       1.662      -1.733       8.977
molecular quadrupole (traceless):
Note: The following floating-point exceptions are signalling: IEEE_UNDERFLOW_FLAG
normal termination of xtb
                xx          xy          yy          xz          yz          zz
 q only:       -8.042      -8.657      23.457      59.057     -35.655     -15.415
  q+dip:       -5.047     -11.238      32.913      55.088     -32.823     -27.866
   full:       -8.788      -9.086      26.799      50.875     -36.150     -18.011


           -------------------------------------------------
          | TOTAL ENERGY             -166.022122189357 Eh   |
          | GRADIENT NORM               0.000730712112 Eh/α |
          | HOMO-LUMO GAP               0.003725111864 eV   |
           -------------------------------------------------
########################################################################
[WARNING] Runtime exception occurred
-1- restart_readRestart: Number of electron missmatch in restart file.
########################################################################

------------------------------------------------------------------------
 * finished run on 2024/11/14 at 10:50:59.550     
------------------------------------------------------------------------
 total:
 * wall-time:     0 d,  0 h,  0 min,  1.425 sec
 *  cpu-time:     0 d,  0 h,  0 min,  4.902 sec
 * ratio c/w:     3.440 speedup
 SCF:
 * wall-time:     0 d,  0 h,  0 min,  1.411 sec
 *  cpu-time:     0 d,  0 h,  0 min,  4.873 sec
 * ratio c/w:     3.452 speedup

