      -----------------------------------------------------------      
     |                   =====================                   |     
     |                           x T B                           |     
     |                   =====================                   |     
     |                         S. Grimme                         |     
     |          Mulliken Center for Theoretical Chemistry        |     
     |                    University of Bonn                     |     
      -----------------------------------------------------------      

   * xtb version 6.6.1 (8d0f1dd) compiled by 'runner@Mac-1690902418499.local' on 2023-08-01

   xtb is free software: you can redistribute it and/or modify it under
   the terms of the GNU Lesser General Public License as published by
   the Free Software Foundation, either version 3 of the License, or
   (at your option) any later version.
   
   xtb is distributed in the hope that it will be useful,
   but WITHOUT ANY WARRANTY; without even the implied warranty of
   MERCHANTABILITY or FITNESS FOR A PARTICULAR PURPOSE.  See the
   GNU Lesser General Public License for more details.
   
   Cite this work as:
   * C. Bannwarth, E. Caldeweyher, S. Ehlert, A. Hansen, P. Pracht,
     J. Seibert, S. Spicher, S. Grimme, WIREs Comput. Mol. Sci., 2020, 11,
     e01493. DOI: 10.1002/wcms.1493
   
   for GFN2-xTB:
   * C. Bannwarth, S. Ehlert and S. Grimme., J. Chem. Theory Comput., 2019,
     15, 1652-1671. DOI: 10.1021/acs.jctc.8b01176
   for GFN1-xTB:
   * S. Grimme, C. Bannwarth, P. Shushkov, J. Chem. Theory Comput., 2017,
     13, 1989-2009. DOI: 10.1021/acs.jctc.7b00118
   for GFN0-xTB:
   * P. Pracht, E. Caldeweyher, S. Ehlert, S. Grimme, ChemRxiv, 2019, preprint.
     DOI: 10.26434/chemrxiv.8326202.v1
   for GFN-FF:
   * S. Spicher and S. Grimme, Angew. Chem. Int. Ed., 2020, 59, 15665-15673.
     DOI: 10.1002/anie.202004239
   
   for ALPB and GBSA implicit solvation:
   * S. Ehlert, M. Stahn, S. Spicher, S. Grimme, J. Chem. Theory Comput.,
     2021, 17, 4250-4261. DOI: 10.1021/acs.jctc.1c00471
   
   for DFT-D4:
   * E. Caldeweyher, C. Bannwarth and S. Grimme, J. Chem. Phys., 2017,
     147, 034112. DOI: 10.1063/1.4993215
   * E. Caldeweyher, S. Ehlert, A. Hansen, H. Neugebauer, S. Spicher,
     C. Bannwarth and S. Grimme, J. Chem. Phys., 2019, 150, 154122.
     DOI: 10.1063/1.5090222
   * E. Caldeweyher, J.-M. Mewes, S. Ehlert and S. Grimme, Phys. Chem. Chem. Phys.
     2020, 22, 8499-8512. DOI: 10.1039/D0CP00502A
   
   for sTDA-xTB:
   * S. Grimme and C. Bannwarth, J. Chem. Phys., 2016, 145, 054103.
     DOI: 10.1063/1.4959605
   
   in the mass-spec context:
   * V. Asgeirsson, C. Bauer and S. Grimme, Chem. Sci., 2017, 8, 4879.
     DOI: 10.1039/c7sc00601b
   * J. Koopman and S. Grimme, ACS Omega 2019, 4, 12, 15120-15133.
     DOI: 10.1021/acsomega.9b02011
   
   for metadynamics refer to:
   * S. Grimme, J. Chem. Theory Comput., 2019, 155, 2847-2862
     DOI: 10.1021/acs.jctc.9b00143
   
   for SPH calculations refer to:
   * S. Spicher and S. Grimme, J. Chem. Theory Comput., 2021, 17, 1701-1714
     DOI: 10.1021/acs.jctc.0c01306
   
   with help from (in alphabetical order)
   P. Atkinson, C. Bannwarth, F. Bohle, G. Brandenburg, E. Caldeweyher
   M. Checinski, S. Dohm, S. Ehlert, S. Ehrlich, I. Gerasimov, C. Hölzer
   A. Katbashev, J. Koopman, C. Lavigne, S. Lehtola, F. März, M. Müller,
   F. Musil, H. Neugebauer, J. Pisarek, C. Plett, P. Pracht, F. Pultar,
   J. Seibert, P. Shushkov, S. Spicher, M. Stahn, M. Steiner, T. Strunk,
   J. Stückrath, T. Rose, and J. Unsleber
   
 * started run on 2024/11/14 at 10:50:59.585     

           -------------------------------------------------
          |                Calculation Setup                |
           -------------------------------------------------

          program call               : xtb opt_cation_Nitro3.mol --gfn2 --sp --chrg 0 --uhf 2
          coordinate file            : opt_cation_Nitro3.mol
          omp threads                :                     8

   ID    Z sym.   atoms
    1    6 C      1-42, 45, 46, 48-51
    2    7 N      43, 52, 54, 56, 58
    3   14 Si     44
    4    8 O      47, 53, 55, 57, 59
    5    1 H      60-112
########################################################################
[WARNING] Please study the warnings concerning your input carefully
-1- prog_main: Charge in sdf/mol input was overwritten
########################################################################

           -------------------------------------------------
          |                 G F N 2 - x T B                 |
           -------------------------------------------------

        Reference                      10.1021/acs.jctc.8b01176
      * Hamiltonian:
        H0-scaling (s, p, d)           1.850000    2.230000    2.230000
        zeta-weighting                 0.500000
      * Dispersion:
        s8                             2.700000
        a1                             0.520000
        a2                             5.000000
        s9                             5.000000
      * Repulsion:
        kExp                           1.500000    1.000000
        rExp                           1.000000
      * Coulomb:
        alpha                          2.000000
        third order                    shell-resolved
        anisotropic                    true
        a3                             3.000000
        a5                             4.000000
        cn-shift                       1.200000
        cn-exp                         4.000000
        max-rad                        5.000000

q/qsh data taken from xtbrestart
CAMM data taken from xtbrestart

          ...................................................
          :                      SETUP                      :
          :.................................................:
          :  # basis functions                 295          :
          :  # atomic orbitals                 294          :
          :  # shells                          172          :
          :  # electrons                       304          :
          :  max. iterations                   250          :
          :  Hamiltonian                  GFN2-xTB          :
          :  restarted?                       true          :
          :  GBSA solvation                  false          :
          :  PC potential                    false          :
          :  electronic temp.          300.0000000     K    :
          :  accuracy                    1.0000000          :
          :  -> integral cutoff          0.2500000E+02      :
          :  -> integral neglect         0.1000000E-07      :
          :  -> SCF convergence          0.1000000E-05 Eh   :
          :  -> wf. convergence          0.1000000E-03 e    :
          :  Broyden damping             0.4000000          :
          ...................................................

 iter      E             dE          RMSdq      gap      omega  full diag
   1   -168.8251413 -0.168825E+03  0.420E-01    1.83       0.0  T
   2   -168.8464967 -0.213555E-01  0.226E-01    1.40       1.0  T
   3   -168.8479073 -0.141062E-02  0.156E-01    1.40       1.0  T
   4   -168.8481914 -0.284005E-03  0.123E-01    1.38       1.0  T
   5   -168.8486376 -0.446262E-03  0.685E-02    1.38       1.0  T
   6   -168.8487875 -0.149852E-03  0.384E-02    1.37       1.0  T
   7   -168.8489548 -0.167335E-03  0.171E-02    1.38       1.0  T
   8   -168.8489580 -0.321661E-05  0.111E-02    1.38       1.0  T
   9   -168.8489587 -0.716980E-06  0.494E-03    1.38       1.9  T
  10   -168.8489608 -0.205721E-05  0.210E-03    1.38       4.5  T
  11   -168.8489609 -0.125530E-06  0.113E-03    1.38       8.3  T
  12   -168.8489609 -0.213183E-07  0.549E-04    1.38      17.2  T
  13   -168.8489610 -0.278021E-07  0.218E-04    1.38      43.3  T

   *** convergence criteria satisfied after 13 iterations ***

         #    Occupation            Energy/Eh            Energy/eV
      -------------------------------------------------------------
         1        2.0000           -0.7404704             -20.1492
       ...           ...                  ...                  ...
       147        2.0000           -0.3749322             -10.2024
       148        2.0000           -0.3679871             -10.0134
       149        2.0000           -0.3626153              -9.8673
       150        2.0000           -0.3492206              -9.5028
       151        2.0000           -0.3463405              -9.4244
       152        1.0000           -0.3124507              -8.5022
       153        1.0000           -0.3117513              -8.4832 (HOMO)
       154                         -0.2611328              -7.1058 (LUMO)
       155                         -0.2546936              -6.9306
       156                         -0.2468313              -6.7166
       157                         -0.2297560              -6.2520
       158                         -0.2174614              -5.9174
       ...                                ...                  ...
       294                          0.7586480              20.6439
      -------------------------------------------------------------
                  HL-Gap            0.0506184 Eh            1.3774 eV
             Fermi-level           -0.3079096 Eh           -8.3786 eV

 transition dipole moment (au) for excitation:         152         153
     X       Y       Z   
   0.0053  -0.0098   0.0110  total (au/Debye):    0.016   0.040
 dE (eV)             :    0.019
 oscillator strength :  0.16161E-06

 SCC (total)                   0 d,  0 h,  0 min,  0.797 sec
 SCC setup                      ...        0 min,  0.000 sec (  0.039%)
 Dispersion                     ...        0 min,  0.001 sec (  0.142%)
 classical contributions        ...        0 min,  0.000 sec (  0.032%)
 integral evaluation            ...        0 min,  0.006 sec (  0.705%)
 iterations                     ...        0 min,  0.730 sec ( 91.558%)
 molecular gradient             ...        0 min,  0.036 sec (  4.527%)
 printout                       ...        0 min,  0.024 sec (  2.995%)

         :::::::::::::::::::::::::::::::::::::::::::::::::::::
         ::                     SUMMARY                     ::
         :::::::::::::::::::::::::::::::::::::::::::::::::::::
         :: total energy            -166.398600467004 Eh    ::
         :: gradient norm              0.068742853329 Eh/a0 ::
         :: HOMO-LUMO gap              1.377397421369 eV    ::
         ::.................................................::
         :: SCC energy              -168.848960967165 Eh    ::
         :: -> isotropic ES            0.172824674784 Eh    ::
         :: -> anisotropic ES          0.015956032635 Eh    ::
         :: -> anisotropic XC          0.052380341228 Eh    ::
         :: -> dispersion             -0.163775944684 Eh    ::
         :: repulsion energy           2.444130349418 Eh    ::
         :: add. restraining           0.000000000000 Eh    ::
         :: total charge               0.000067656953 e     ::
         :::::::::::::::::::::::::::::::::::::::::::::::::::::

           -------------------------------------------------
          |                Property Printout                |
           -------------------------------------------------

    * Orbital Energies and Occupations

         #    Occupation            Energy/Eh            Energy/eV
      -------------------------------------------------------------
         1        2.0000           -0.7404704             -20.1492
       ...           ...                  ...                  ...
       141        2.0000           -0.3937585             -10.7147
       142        2.0000           -0.3870077             -10.5310
       143        2.0000           -0.3860757             -10.5057
       144        2.0000           -0.3796042             -10.3296
       145        2.0000           -0.3772439             -10.2653
       146        2.0000           -0.3764785             -10.2445
       147        2.0000           -0.3749322             -10.2024
       148        2.0000           -0.3679871             -10.0134
       149        2.0000           -0.3626153              -9.8673
       150        2.0000           -0.3492206              -9.5028
       151        2.0000           -0.3463405              -9.4244
       152        1.0000           -0.3124507              -8.5022
       153        1.0000           -0.3117513              -8.4832 (HOMO)
       154                         -0.2611328              -7.1058 (LUMO)
       155                         -0.2546936              -6.9306
       156                         -0.2468313              -6.7166
       157                         -0.2297560              -6.2520
       158                         -0.2174614              -5.9174
       159                         -0.2088686              -5.6836
       160                         -0.1832002              -4.9851
       161                         -0.1826774              -4.9709
       162                         -0.1704683              -4.6387
       163                         -0.1580636              -4.3011
       164                         -0.1381017              -3.7579
       ...                                ...                  ...
       294                          0.7586480              20.6439
      -------------------------------------------------------------
                  HL-Gap            0.0506184 Eh            1.3774 eV
             Fermi-level           -0.3079096 Eh           -8.3786 eV

     #   Z          covCN         q      C6AA      α(0)
     1   6 C        2.920    -0.040    28.997     8.830
     2   6 C        2.918    -0.039    28.973     8.827
     3   6 C        2.967     0.011    27.778     8.645
     4   6 C        2.926    -0.040    28.994     8.830
     5   6 C        2.981     0.012    27.752     8.641
     6   6 C        2.988     0.012    27.746     8.640
     7   6 C        2.978     0.015    27.681     8.630
     8   6 C        2.986     0.009    27.802     8.649
     9   6 C        2.919    -0.031    28.778     8.797
    10   6 C        2.913    -0.041    29.024     8.834
    11   6 C        3.060    -0.016    28.361     8.733
    12   6 C        3.094     0.049    26.798     8.484
    13   6 C        2.907    -0.048    29.203     8.861
    14   6 C        2.928    -0.037    28.928     8.820
    15   6 C        3.058    -0.017    28.377     8.736
    16   6 C        3.098     0.049    26.791     8.482
    17   6 C        2.978     0.015    27.680     8.630
    18   6 C        2.986     0.010    27.779     8.646
    19   6 C        2.928    -0.037    28.925     8.820
    20   6 C        2.907    -0.048    29.191     8.859
    21   6 C        2.981     0.012    27.749     8.641
    22   6 C        2.988     0.012    27.734     8.639
    23   6 C        2.913    -0.041    29.016     8.833
    24   6 C        2.919    -0.030    28.752     8.793
    25   6 C        2.967     0.010    27.782     8.646
    26   6 C        2.918    -0.039    28.981     8.828
    27   6 C        2.920    -0.040    29.002     8.831
    28   6 C        2.925    -0.040    28.995     8.830
    29   6 C        2.885     0.034    27.238     8.556
    30   6 C        2.884     0.034    27.244     8.557
    31   6 C        3.883     0.044    19.782     6.323
    32   6 C        3.884     0.044    19.795     6.325
    33   6 C        3.758    -0.112    22.690     6.791
    34   6 C        3.760    -0.114    22.725     6.796
    35   6 C        3.758    -0.112    22.688     6.791
    36   6 C        3.761    -0.114    22.719     6.795
    37   6 C        3.883     0.044    19.781     6.323
    38   6 C        3.884     0.044    19.795     6.325
    39   6 C        3.760    -0.114    22.726     6.796
    40   6 C        3.758    -0.112    22.687     6.791
    41   6 C        3.758    -0.112    22.687     6.791
    42   6 C        3.761    -0.114    22.719     6.795
    43   7 N        2.797    -0.046    22.124     6.986
    44  14 Si       3.505     0.483   100.824    19.420
    45   6 C        3.697    -0.172    24.031     7.012
    46   6 C        3.713     0.091    19.195     6.260
    47   8 O        1.702    -0.320    19.349     5.939
    48   6 C        3.649    -0.210    25.034     7.188
    49   6 C        3.649    -0.208    25.001     7.183
    50   6 C        3.649    -0.208    24.998     7.183
    51   6 C        3.642     0.157    18.387     6.165
    52   7 N        2.811     0.197    17.975     6.297
    53   8 O        0.926    -0.432    22.296     6.332
    54   7 N        2.809     0.195    18.013     6.304
    55   8 O        0.926    -0.438    22.421     6.350
    56   7 N        2.809     0.195    18.017     6.304
    57   8 O        0.926    -0.440    22.464     6.356
    58   7 N        2.812     0.197    17.977     6.297
    59   8 O        0.926    -0.432    22.287     6.331
    60   1 H        0.925     0.047     2.352     2.398
    61   1 H        0.925     0.054     2.276     2.359
    62   1 H        0.925     0.068     2.108     2.271
    63   1 H        0.925     0.053     2.281     2.362
    64   1 H        0.925     0.073     2.053     2.241
    65   1 H        0.925     0.047     2.358     2.402
    66   1 H        0.925     0.043     2.405     2.425
    67   1 H        0.925     0.055     2.261     2.351
    68   1 H        0.925     0.065     2.140     2.288
    69   1 H        0.925     0.057     2.236     2.339
    70   1 H        0.925     0.074     2.047     2.238
    71   1 H        0.925     0.046     2.364     2.405
    72   1 H        0.925     0.042     2.420     2.433
    73   1 H        0.925     0.040     2.449     2.447
    74   1 H        0.923     0.007     2.940     2.682
    75   1 H        0.923     0.005     2.978     2.699
    76   1 H        0.923     0.025     2.663     2.552
    77   1 H        0.923     0.027     2.630     2.536
    78   1 H        0.925     0.033     2.544     2.494
    79   1 H        0.925     0.040     2.451     2.448
    80   1 H        0.925     0.037     2.492     2.469
    81   1 H        0.925     0.037     2.487     2.466
    82   1 H        0.925     0.032     2.563     2.504
    83   1 H        0.925     0.037     2.487     2.466
    84   1 H        0.925     0.032     2.561     2.503
    85   1 H        0.925     0.038     2.480     2.462
    86   1 H        0.925     0.038     2.476     2.461
    87   1 H        0.926     0.026     2.642     2.542
    88   1 H        0.926     0.032     2.564     2.504
    89   1 H        0.926     0.026     2.643     2.542
    90   1 H        0.926     0.024     2.668     2.554
    91   1 H        0.926     0.082     1.963     2.191
    92   1 H        0.926     0.074     2.042     2.235
    93   1 H        0.926     0.027     2.622     2.532
    94   1 H        0.926     0.024     2.668     2.554
    95   1 H        0.926     0.026     2.642     2.542
    96   1 H        0.926     0.032     2.562     2.503
    97   1 H        0.926     0.029     2.597     2.520
    98   1 H        0.926     0.083     1.952     2.185
    99   1 H        0.926     0.075     2.032     2.229
   100   1 H        0.926     0.028     2.621     2.532
   101   1 H        0.925     0.047     2.361     2.403
   102   1 H        0.925     0.053     2.278     2.360
   103   1 H        0.925     0.068     2.104     2.269
   104   1 H        0.925     0.053     2.278     2.360
   105   1 H        0.925     0.073     2.049     2.238
   106   1 H        0.925     0.047     2.360     2.402
   107   1 H        0.925     0.044     2.402     2.424
   108   1 H        0.925     0.055     2.262     2.352
   109   1 H        0.925     0.065     2.139     2.287
   110   1 H        0.925     0.057     2.240     2.341
   111   1 H        0.925     0.074     2.047     2.237
   112   1 H        0.925     0.046     2.365     2.405

 Mol. C6AA /au·bohr⁶  :     144269.249906
 Mol. C8AA /au·bohr⁸  :    3542899.332535
 Mol. α(0) /au        :        593.043505


Wiberg/Mayer (AO) data.
largest (>0.10) Wiberg bond orders for each atom

 ---------------------------------------------------------------------------
     #   Z sym  total        # sym  WBO       # sym  WBO       # sym  WBO
 ---------------------------------------------------------------------------
     1   6 C    3.983 --     2 C    1.545     6 C    1.297   100 H    0.967
     2   6 C    3.975 --     1 C    1.545     3 C    1.282    99 H    0.957
     3   6 C    3.973 --     4 C    1.419     2 C    1.282    30 C    1.095
     4   6 C    3.981 --     3 C    1.419     5 C    1.336    98 H    0.948
     5   6 C    3.987 --     4 C    1.336     6 C    1.266     7 C    1.172
     6   6 C    3.986 --     1 C    1.297     5 C    1.266    10 C    1.227
     7   6 C    3.978 --     8 C    1.292    11 C    1.265     5 C    1.172
     8   6 C    3.984 --     7 C    1.292    14 C    1.280     9 C    1.224
     9   6 C    3.974 --    10 C    1.617     8 C    1.224    89 H    0.968
    10   6 C    3.977 --     9 C    1.617     6 C    1.227    90 H    0.967
    11   6 C    3.975 --    12 C    1.283     7 C    1.265    15 C    1.174
    12   6 C    3.946 --    13 C    1.299    11 C    1.283    43 N    1.147
    13   6 C    3.978 --    14 C    1.538    12 C    1.299    87 H    0.964
    14   6 C    3.961 --    13 C    1.538     8 C    1.280    88 H    0.968
    15   6 C    3.975 --    16 C    1.285    17 C    1.263    11 C    1.174
    16   6 C    3.947 --    20 C    1.298    15 C    1.285    43 N    1.146
    17   6 C    3.978 --    18 C    1.292    15 C    1.263    21 C    1.174
    18   6 C    3.984 --    17 C    1.292    19 C    1.280    24 C    1.225
    19   6 C    3.960 --    20 C    1.539    18 C    1.280    96 H    0.968
    20   6 C    3.978 --    19 C    1.539    16 C    1.298    97 H    0.965
    21   6 C    3.987 --    28 C    1.335    22 C    1.265    17 C    1.174
    22   6 C    3.986 --    27 C    1.296    21 C    1.265    23 C    1.228
    23   6 C    3.977 --    24 C    1.616    22 C    1.228    94 H    0.967
    24   6 C    3.974 --    23 C    1.616    18 C    1.225    95 H    0.968
    25   6 C    3.973 --    28 C    1.420    26 C    1.281    29 C    1.095
    26   6 C    3.975 --    27 C    1.546    25 C    1.281    92 H    0.957
    27   6 C    3.983 --    26 C    1.546    22 C    1.296    93 H    0.967
    28   6 C    3.982 --    25 C    1.420    21 C    1.335    91 H    0.948
    29   6 C    3.939 --    56 N    1.243    58 N    1.232    25 C    1.095
                            57 O    0.147    59 O    0.143
    30   6 C    3.939 --    54 N    1.241    52 N    1.232     3 C    1.095
                            55 O    0.146    53 O    0.143
    31   6 C    3.968 --    33 C    0.998    34 C    0.982    32 C    0.960
                            54 N    0.912
    32   6 C    3.969 --    35 C    0.999    36 C    0.980    31 C    0.960
                            52 N    0.913
    33   6 C    3.989 --    31 C    0.998   106 H    0.982   104 H    0.981
                           105 H    0.978
    34   6 C    3.989 --   101 H    0.982    31 C    0.982   102 H    0.981
                           103 H    0.977
    35   6 C    3.988 --    32 C    0.999   112 H    0.982   110 H    0.981
                           111 H    0.978
    36   6 C    3.989 --   107 H    0.984   108 H    0.981   109 H    0.981
                            32 C    0.980
    37   6 C    3.968 --    40 C    0.998    39 C    0.982    38 C    0.960
                            56 N    0.912
    38   6 C    3.969 --    41 C    1.000    42 C    0.980    37 C    0.960
                            58 N    0.913
    39   6 C    3.988 --    37 C    0.982    60 H    0.982    61 H    0.981
                            62 H    0.978
    40   6 C    3.989 --    37 C    0.998    65 H    0.982    63 H    0.981
                            64 H    0.978
    41   6 C    3.988 --    38 C    1.000    71 H    0.982    69 H    0.981
                            70 H    0.978
    42   6 C    3.989 --    66 H    0.984    67 H    0.981    68 H    0.981
                            38 C    0.980
    43   7 N    3.550 --    12 C    1.147    16 C    1.146    51 C    1.004
    44  14 Si   3.618 --    50 C    0.903    49 C    0.901    48 C    0.896
                            45 C    0.844
    45   6 C    3.968 --    46 C    1.025    73 H    0.982    72 H    0.981
                            44 Si   0.844
    46   6 C    3.944 --    45 C    1.025    74 H    0.972    75 H    0.972
                            47 O    0.962
    47   8 O    2.069 --    51 C    0.984    46 C    0.962
    48   6 C    3.980 --    82 H    0.991    83 H    0.987    81 H    0.987
                            44 Si   0.896
    49   6 C    3.981 --    85 H    0.987    84 H    0.987    86 H    0.986
                            44 Si   0.901
    50   6 C    3.981 --    80 H    0.988    78 H    0.987    79 H    0.986
                            44 Si   0.903
    51   6 C    3.956 --    43 N    1.004    47 O    0.984    76 H    0.955
                            77 H    0.954
    52   7 N    3.706 --    53 O    1.324    30 C    1.232    32 C    0.913
    53   8 O    1.763 --    52 N    1.324    30 C    0.143
    54   7 N    3.710 --    55 O    1.317    30 C    1.241    31 C    0.912
    55   8 O    1.764 --    54 N    1.317    30 C    0.146
    56   7 N    3.710 --    57 O    1.315    29 C    1.243    37 C    0.912
    57   8 O    1.762 --    56 N    1.315    29 C    0.147
    58   7 N    3.706 --    59 O    1.325    29 C    1.232    38 C    0.913
    59   8 O    1.763 --    58 N    1.325    29 C    0.143
    60   1 H    0.998 --    39 C    0.982
    61   1 H    0.996 --    39 C    0.981
    62   1 H    0.995 --    39 C    0.978
    63   1 H    0.997 --    40 C    0.981
    64   1 H    0.994 --    40 C    0.978
    65   1 H    0.997 --    40 C    0.982
    66   1 H    0.998 --    42 C    0.984
    67   1 H    0.996 --    42 C    0.981
    68   1 H    0.995 --    42 C    0.981
    69   1 H    0.997 --    41 C    0.981
    70   1 H    0.994 --    41 C    0.978
    71   1 H    0.997 --    41 C    0.982
    72   1 H    0.998 --    45 C    0.981
    73   1 H    0.998 --    45 C    0.982
    74   1 H    1.000 --    46 C    0.972
    75   1 H    1.000 --    46 C    0.972
    76   1 H    0.998 --    51 C    0.955
    77   1 H    0.998 --    51 C    0.954
    78   1 H    0.999 --    50 C    0.987
    79   1 H    0.998 --    50 C    0.986
    80   1 H    0.999 --    50 C    0.988
    81   1 H    0.999 --    48 C    0.987
    82   1 H    0.999 --    48 C    0.991
    83   1 H    0.999 --    48 C    0.987
    84   1 H    0.999 --    49 C    0.987
    85   1 H    0.999 --    49 C    0.987
    86   1 H    0.999 --    49 C    0.986
    87   1 H    0.998 --    13 C    0.964
    88   1 H    0.998 --    14 C    0.968
    89   1 H    0.998 --     9 C    0.968
    90   1 H    0.998 --    10 C    0.967
    91   1 H    0.993 --    28 C    0.948
    92   1 H    0.994 --    26 C    0.957
    93   1 H    0.998 --    27 C    0.967
    94   1 H    0.998 --    23 C    0.967
    95   1 H    0.998 --    24 C    0.968
    96   1 H    0.998 --    19 C    0.968
    97   1 H    0.998 --    20 C    0.965
    98   1 H    0.993 --     4 C    0.948
    99   1 H    0.994 --     2 C    0.957
   100   1 H    0.998 --     1 C    0.967
   101   1 H    0.998 --    34 C    0.982
   102   1 H    0.996 --    34 C    0.981
   103   1 H    0.995 --    34 C    0.977
   104   1 H    0.997 --    33 C    0.981
   105   1 H    0.994 --    33 C    0.978
   106   1 H    0.997 --    33 C    0.982
   107   1 H    0.998 --    36 C    0.984
   108   1 H    0.996 --    36 C    0.981
   109   1 H    0.995 --    36 C    0.981
   110   1 H    0.997 --    35 C    0.981
   111   1 H    0.994 --    35 C    0.978
   112   1 H    0.997 --    35 C    0.982
 ---------------------------------------------------------------------------

Topologies differ in bond orders
Writing corrected topology to xtbtopo.mol

molecular dipole:
                 x           y           z       tot (Debye)
 q only:        1.138       0.581       0.642
   full:        1.331       0.802       0.514       4.161
molecular quadrupole (traceless):
                xx          xy          yy          xz          yz          zz
 q only:      -16.474      -7.967      20.445      16.516     -18.325      -3.971
  q+dip:      -14.263     -11.420      31.650      13.704     -16.846     -17.387
   full:      -17.837      -9.315      25.955       9.896     -20.149      -8.118


           -------------------------------------------------
          | TOTAL ENERGY             -166.398600467004 Eh   |
          | GRADIENT NORM               0.068742853329 Eh/α |
          | HOMO-LUMO GAP               1.377397421369 eV   |
           -------------------------------------------------
Note: The following floating-point exceptions are signalling: IEEE_UNDERFLOW_FLAG
normal termination of xtb
########################################################################
[WARNING] Runtime exception occurred
-2- restart_readRestart: Multiplicity missmatch in restart file.
-1- restart_readRestart: Number of electron missmatch in restart file.
########################################################################

------------------------------------------------------------------------
 * finished run on 2024/11/14 at 10:51:00.396     
------------------------------------------------------------------------
 total:
 * wall-time:     0 d,  0 h,  0 min,  0.810 sec
 *  cpu-time:     0 d,  0 h,  0 min,  2.712 sec
 * ratio c/w:     3.347 speedup
 SCF:
 * wall-time:     0 d,  0 h,  0 min,  0.797 sec
 *  cpu-time:     0 d,  0 h,  0 min,  2.683 sec
 * ratio c/w:     3.366 speedup

