      -----------------------------------------------------------      
     |                   =====================                   |     
     |                           x T B                           |     
     |                   =====================                   |     
     |                         S. Grimme                         |     
     |          Mulliken Center for Theoretical Chemistry        |     
     |                    University of Bonn                     |     
      -----------------------------------------------------------      

   * xtb version 6.6.1 (8d0f1dd) compiled by 'runner@Mac-1690902418499.local' on 2023-08-01

   xtb is free software: you can redistribute it and/or modify it under
   the terms of the GNU Lesser General Public License as published by
   the Free Software Foundation, either version 3 of the License, or
   (at your option) any later version.
   
   xtb is distributed in the hope that it will be useful,
   but WITHOUT ANY WARRANTY; without even the implied warranty of
   MERCHANTABILITY or FITNESS FOR A PARTICULAR PURPOSE.  See the
   GNU Lesser General Public License for more details.
   
   Cite this work as:
   * C. Bannwarth, E. Caldeweyher, S. Ehlert, A. Hansen, P. Pracht,
     J. Seibert, S. Spicher, S. Grimme, WIREs Comput. Mol. Sci., 2020, 11,
     e01493. DOI: 10.1002/wcms.1493
   
   for GFN2-xTB:
   * C. Bannwarth, S. Ehlert and S. Grimme., J. Chem. Theory Comput., 2019,
     15, 1652-1671. DOI: 10.1021/acs.jctc.8b01176
   for GFN1-xTB:
   * S. Grimme, C. Bannwarth, P. Shushkov, J. Chem. Theory Comput., 2017,
     13, 1989-2009. DOI: 10.1021/acs.jctc.7b00118
   for GFN0-xTB:
   * P. Pracht, E. Caldeweyher, S. Ehlert, S. Grimme, ChemRxiv, 2019, preprint.
     DOI: 10.26434/chemrxiv.8326202.v1
   for GFN-FF:
   * S. Spicher and S. Grimme, Angew. Chem. Int. Ed., 2020, 59, 15665-15673.
     DOI: 10.1002/anie.202004239
   
   for ALPB and GBSA implicit solvation:
   * S. Ehlert, M. Stahn, S. Spicher, S. Grimme, J. Chem. Theory Comput.,
     2021, 17, 4250-4261. DOI: 10.1021/acs.jctc.1c00471
   
   for DFT-D4:
   * E. Caldeweyher, C. Bannwarth and S. Grimme, J. Chem. Phys., 2017,
     147, 034112. DOI: 10.1063/1.4993215
   * E. Caldeweyher, S. Ehlert, A. Hansen, H. Neugebauer, S. Spicher,
     C. Bannwarth and S. Grimme, J. Chem. Phys., 2019, 150, 154122.
     DOI: 10.1063/1.5090222
   * E. Caldeweyher, J.-M. Mewes, S. Ehlert and S. Grimme, Phys. Chem. Chem. Phys.
     2020, 22, 8499-8512. DOI: 10.1039/D0CP00502A
   
   for sTDA-xTB:
   * S. Grimme and C. Bannwarth, J. Chem. Phys., 2016, 145, 054103.
     DOI: 10.1063/1.4959605
   
   in the mass-spec context:
   * V. Asgeirsson, C. Bauer and S. Grimme, Chem. Sci., 2017, 8, 4879.
     DOI: 10.1039/c7sc00601b
   * J. Koopman and S. Grimme, ACS Omega 2019, 4, 12, 15120-15133.
     DOI: 10.1021/acsomega.9b02011
   
   for metadynamics refer to:
   * S. Grimme, J. Chem. Theory Comput., 2019, 155, 2847-2862
     DOI: 10.1021/acs.jctc.9b00143
   
   for SPH calculations refer to:
   * S. Spicher and S. Grimme, J. Chem. Theory Comput., 2021, 17, 1701-1714
     DOI: 10.1021/acs.jctc.0c01306
   
   with help from (in alphabetical order)
   P. Atkinson, C. Bannwarth, F. Bohle, G. Brandenburg, E. Caldeweyher
   M. Checinski, S. Dohm, S. Ehlert, S. Ehrlich, I. Gerasimov, C. Hölzer
   A. Katbashev, J. Koopman, C. Lavigne, S. Lehtola, F. März, M. Müller,
   F. Musil, H. Neugebauer, J. Pisarek, C. Plett, P. Pracht, F. Pultar,
   J. Seibert, P. Shushkov, S. Spicher, M. Stahn, M. Steiner, T. Strunk,
   J. Stückrath, T. Rose, and J. Unsleber
   
 * started run on 2024/11/14 at 10:50:55.628     

           -------------------------------------------------
          |                Calculation Setup                |
           -------------------------------------------------

          program call               : xtb opt_anion_Nitro3.mol --gfn2 --sp --chrg 0 --uhf 2
          coordinate file            : opt_anion_Nitro3.mol
          omp threads                :                     8

   ID    Z sym.   atoms
    1    6 C      1-42, 45, 46, 48-51
    2    7 N      43, 52, 54, 56, 58
    3   14 Si     44
    4    8 O      47, 53, 55, 57, 59
    5    1 H      60-112
########################################################################
[WARNING] Please study the warnings concerning your input carefully
-1- prog_main: Charge in sdf/mol input was overwritten
########################################################################

           -------------------------------------------------
          |                 G F N 2 - x T B                 |
           -------------------------------------------------

        Reference                      10.1021/acs.jctc.8b01176
      * Hamiltonian:
        H0-scaling (s, p, d)           1.850000    2.230000    2.230000
        zeta-weighting                 0.500000
      * Dispersion:
        s8                             2.700000
        a1                             0.520000
        a2                             5.000000
        s9                             5.000000
      * Repulsion:
        kExp                           1.500000    1.000000
        rExp                           1.000000
      * Coulomb:
        alpha                          2.000000
        third order                    shell-resolved
        anisotropic                    true
        a3                             3.000000
        a5                             4.000000
        cn-shift                       1.200000
        cn-exp                         4.000000
        max-rad                        5.000000

q/qsh data taken from xtbrestart
CAMM data taken from xtbrestart

          ...................................................
          :                      SETUP                      :
          :.................................................:
          :  # basis functions                 295          :
          :  # atomic orbitals                 294          :
          :  # shells                          172          :
          :  # electrons                       304          :
          :  max. iterations                   250          :
          :  Hamiltonian                  GFN2-xTB          :
          :  restarted?                       true          :
          :  GBSA solvation                  false          :
          :  PC potential                    false          :
          :  electronic temp.          300.0000000     K    :
          :  accuracy                    1.0000000          :
          :  -> integral cutoff          0.2500000E+02      :
          :  -> integral neglect         0.1000000E-07      :
          :  -> SCF convergence          0.1000000E-05 Eh   :
          :  -> wf. convergence          0.1000000E-03 e    :
          :  Broyden damping             0.4000000          :
          ...................................................

 iter      E             dE          RMSdq      gap      omega  full diag
   1   -168.8092415 -0.168809E+03  0.442E-01    0.81       0.0  T
   2   -168.8255787 -0.163373E-01  0.253E-01    1.48       1.0  T
   3   -168.8271294 -0.155069E-02  0.162E-01    1.61       1.0  T
   4   -168.8270750  0.543873E-04  0.130E-01    1.64       1.0  T
   5   -168.8275582 -0.483103E-03  0.663E-02    1.65       1.0  T
   6   -168.8279448 -0.386621E-03  0.308E-02    1.66       1.0  T
   7   -168.8280339 -0.891175E-04  0.159E-02    1.65       1.0  T
   8   -168.8280417 -0.777313E-05  0.918E-03    1.65       1.0  T
   9   -168.8280437 -0.206310E-05  0.421E-03    1.65       2.2  T
  10   -168.8280446 -0.831440E-06  0.199E-03    1.65       4.8  T
  11   -168.8280446 -0.832169E-07  0.102E-03    1.65       9.2  T
  12   -168.8280447 -0.229478E-07  0.574E-04    1.65      16.5  T
  13   -168.8280447 -0.187765E-07  0.294E-04    1.65      32.2  T

   *** convergence criteria satisfied after 13 iterations ***

         #    Occupation            Energy/Eh            Energy/eV
      -------------------------------------------------------------
         1        2.0000           -0.7400235             -20.1371
       ...           ...                  ...                  ...
       147        2.0000           -0.3794989             -10.3267
       148        2.0000           -0.3733064             -10.1582
       149        2.0000           -0.3654298              -9.9439
       150        2.0000           -0.3524096              -9.5896
       151        2.0000           -0.3505211              -9.5382
       152        1.0000           -0.3278103              -8.9202
       153        1.0000           -0.3269048              -8.8955 (HOMO)
       154                         -0.2661912              -7.2434 (LUMO)
       155                         -0.2598644              -7.0713
       156                         -0.2526499              -6.8750
       157                         -0.2331680              -6.3448
       158                         -0.2224444              -6.0530
       ...                                ...                  ...
       294                          0.7576733              20.6173
      -------------------------------------------------------------
                  HL-Gap            0.0607136 Eh            1.6521 eV
             Fermi-level           -0.3179038 Eh           -8.6506 eV

 transition dipole moment (au) for excitation:         152         153
     X       Y       Z   
   0.0126  -0.0911   0.0785  total (au/Debye):    0.121   0.307
 dE (eV)             :    0.025
 oscillator strength :  0.12486E-04

 SCC (total)                   0 d,  0 h,  0 min,  0.856 sec
 SCC setup                      ...        0 min,  0.000 sec (  0.044%)
 Dispersion                     ...        0 min,  0.001 sec (  0.126%)
 classical contributions        ...        0 min,  0.000 sec (  0.038%)
 integral evaluation            ...        0 min,  0.006 sec (  0.677%)
 iterations                     ...        0 min,  0.781 sec ( 91.165%)
 molecular gradient             ...        0 min,  0.044 sec (  5.179%)
 printout                       ...        0 min,  0.024 sec (  2.769%)

         :::::::::::::::::::::::::::::::::::::::::::::::::::::
         ::                     SUMMARY                     ::
         :::::::::::::::::::::::::::::::::::::::::::::::::::::
         :: total energy            -166.397078818028 Eh    ::
         :: gradient norm              0.071420470070 Eh/a0 ::
         :: HOMO-LUMO gap              1.652100906745 eV    ::
         ::.................................................::
         :: SCC energy              -168.828044682767 Eh    ::
         :: -> isotropic ES            0.181011449647 Eh    ::
         :: -> anisotropic ES          0.013192968174 Eh    ::
         :: -> anisotropic XC          0.056031993456 Eh    ::
         :: -> dispersion             -0.162013823960 Eh    ::
         :: repulsion energy           2.424837098549 Eh    ::
         :: add. restraining           0.000000000000 Eh    ::
         :: total charge              -0.000094319937 e     ::
         :::::::::::::::::::::::::::::::::::::::::::::::::::::

           -------------------------------------------------
          |                Property Printout                |
           -------------------------------------------------

    * Orbital Energies and Occupations

         #    Occupation            Energy/Eh            Energy/eV
      -------------------------------------------------------------
         1        2.0000           -0.7400235             -20.1371
       ...           ...                  ...                  ...
       141        2.0000           -0.3964062             -10.7868
       142        2.0000           -0.3893155             -10.5938
       143        2.0000           -0.3885090             -10.5719
       144        2.0000           -0.3844402             -10.4612
       145        2.0000           -0.3804082             -10.3514
       146        2.0000           -0.3802908             -10.3482
       147        2.0000           -0.3794989             -10.3267
       148        2.0000           -0.3733064             -10.1582
       149        2.0000           -0.3654298              -9.9439
       150        2.0000           -0.3524096              -9.5896
       151        2.0000           -0.3505211              -9.5382
       152        1.0000           -0.3278103              -8.9202
       153        1.0000           -0.3269048              -8.8955 (HOMO)
       154                         -0.2661912              -7.2434 (LUMO)
       155                         -0.2598644              -7.0713
       156                         -0.2526499              -6.8750
       157                         -0.2331680              -6.3448
       158                         -0.2224444              -6.0530
       159                         -0.2125741              -5.7844
       160                         -0.1872721              -5.0959
       161                         -0.1855875              -5.0501
       162                         -0.1750510              -4.7634
       163                         -0.1620493              -4.4096
       164                         -0.1364601              -3.7133
       ...                                ...                  ...
       294                          0.7576733              20.6173
      -------------------------------------------------------------
                  HL-Gap            0.0607136 Eh            1.6521 eV
             Fermi-level           -0.3179038 Eh           -8.6506 eV

     #   Z          covCN         q      C6AA      α(0)
     1   6 C        2.920    -0.039    28.969     8.826
     2   6 C        2.920    -0.040    28.985     8.829
     3   6 C        2.969     0.008    27.849     8.656
     4   6 C        2.926    -0.039    28.977     8.828
     5   6 C        2.982     0.012    27.741     8.640
     6   6 C        2.989     0.013    27.714     8.636
     7   6 C        2.980     0.016    27.660     8.627
     8   6 C        2.987     0.011    27.755     8.642
     9   6 C        2.918    -0.029    28.724     8.789
    10   6 C        2.914    -0.040    28.999     8.830
    11   6 C        3.063    -0.016    28.335     8.729
    12   6 C        3.087     0.050    26.786     8.484
    13   6 C        2.907    -0.047    29.165     8.855
    14   6 C        2.929    -0.036    28.902     8.816
    15   6 C        3.062    -0.016    28.346     8.731
    16   6 C        3.089     0.049    26.804     8.486
    17   6 C        2.980     0.015    27.661     8.627
    18   6 C        2.987     0.012    27.739     8.640
    19   6 C        2.929    -0.036    28.905     8.817
    20   6 C        2.907    -0.047    29.172     8.856
    21   6 C        2.982     0.012    27.741     8.640
    22   6 C        2.989     0.014    27.704     8.634
    23   6 C        2.914    -0.040    28.992     8.829
    24   6 C        2.918    -0.028    28.701     8.785
    25   6 C        2.969     0.007    27.853     8.657
    26   6 C        2.920    -0.040    28.999     8.831
    27   6 C        2.920    -0.039    28.971     8.827
    28   6 C        2.926    -0.040    28.984     8.829
    29   6 C        2.894     0.056    26.739     8.478
    30   6 C        2.894     0.056    26.744     8.479
    31   6 C        3.887     0.048    19.713     6.312
    32   6 C        3.887     0.049    19.702     6.310
    33   6 C        3.758    -0.114    22.736     6.798
    34   6 C        3.760    -0.114    22.723     6.796
    35   6 C        3.758    -0.115    22.743     6.799
    36   6 C        3.760    -0.113    22.710     6.794
    37   6 C        3.887     0.049    19.712     6.312
    38   6 C        3.887     0.049    19.703     6.310
    39   6 C        3.760    -0.114    22.724     6.796
    40   6 C        3.758    -0.114    22.733     6.798
    41   6 C        3.758    -0.115    22.743     6.799
    42   6 C        3.760    -0.113    22.710     6.794
    43   7 N        2.796    -0.049    22.184     6.995
    44  14 Si       3.506     0.483   100.787    19.414
    45   6 C        3.699    -0.170    23.989     7.005
    46   6 C        3.714     0.095    19.137     6.250
    47   8 O        1.702    -0.321    19.368     5.942
    48   6 C        3.648    -0.210    25.044     7.190
    49   6 C        3.648    -0.208    25.014     7.186
    50   6 C        3.648    -0.208    25.004     7.184
    51   6 C        3.642     0.155    18.406     6.168
    52   7 N        2.804     0.177    18.285     6.351
    53   8 O        0.923    -0.447    22.620     6.378
    54   7 N        2.804     0.179    18.260     6.347
    55   8 O        0.923    -0.448    22.635     6.380
    56   7 N        2.803     0.178    18.269     6.348
    57   8 O        0.923    -0.450    22.676     6.386
    58   7 N        2.804     0.177    18.283     6.351
    59   8 O        0.923    -0.447    22.611     6.377
    60   1 H        0.925     0.046     2.370     2.407
    61   1 H        0.925     0.055     2.258     2.350
    62   1 H        0.925     0.071     2.078     2.254
    63   1 H        0.925     0.053     2.281     2.362
    64   1 H        0.925     0.077     2.013     2.218
    65   1 H        0.925     0.049     2.338     2.391
    66   1 H        0.925     0.043     2.407     2.426
    67   1 H        0.925     0.055     2.259     2.351
    68   1 H        0.925     0.071     2.072     2.251
    69   1 H        0.925     0.055     2.263     2.352
    70   1 H        0.925     0.078     2.002     2.212
    71   1 H        0.925     0.048     2.342     2.393
    72   1 H        0.925     0.044     2.398     2.422
    73   1 H        0.925     0.040     2.445     2.445
    74   1 H        0.923     0.004     2.990     2.704
    75   1 H        0.923     0.002     3.030     2.722
    76   1 H        0.922     0.027     2.635     2.539
    77   1 H        0.923     0.028     2.616     2.530
    78   1 H        0.925     0.032     2.561     2.503
    79   1 H        0.925     0.039     2.467     2.456
    80   1 H        0.925     0.038     2.482     2.464
    81   1 H        0.925     0.035     2.511     2.478
    82   1 H        0.925     0.032     2.560     2.502
    83   1 H        0.925     0.035     2.512     2.479
    84   1 H        0.925     0.031     2.578     2.511
    85   1 H        0.925     0.038     2.471     2.458
    86   1 H        0.925     0.037     2.494     2.469
    87   1 H        0.926     0.029     2.604     2.524
    88   1 H        0.925     0.033     2.551     2.498
    89   1 H        0.925     0.028     2.621     2.532
    90   1 H        0.925     0.025     2.661     2.551
    91   1 H        0.926     0.084     1.941     2.178
    92   1 H        0.926     0.078     1.996     2.209
    93   1 H        0.925     0.030     2.593     2.518
    94   1 H        0.925     0.025     2.659     2.550
    95   1 H        0.925     0.028     2.620     2.531
    96   1 H        0.925     0.033     2.551     2.498
    97   1 H        0.926     0.029     2.600     2.521
    98   1 H        0.926     0.085     1.932     2.174
    99   1 H        0.926     0.078     1.999     2.211
   100   1 H        0.925     0.030     2.592     2.518
   101   1 H        0.925     0.045     2.378     2.411
   102   1 H        0.925     0.055     2.260     2.351
   103   1 H        0.925     0.071     2.075     2.253
   104   1 H        0.925     0.053     2.277     2.360
   105   1 H        0.925     0.077     2.009     2.216
   106   1 H        0.925     0.048     2.340     2.392
   107   1 H        0.925     0.044     2.403     2.424
   108   1 H        0.925     0.055     2.260     2.351
   109   1 H        0.925     0.071     2.073     2.251
   110   1 H        0.925     0.054     2.265     2.354
   111   1 H        0.925     0.078     2.003     2.213
   112   1 H        0.925     0.048     2.343     2.394

 Mol. C6AA /au·bohr⁶  :     144187.617273
 Mol. C8AA /au·bohr⁸  :    3541382.600045
 Mol. α(0) /au        :        592.834252


Wiberg/Mayer (AO) data.
largest (>0.10) Wiberg bond orders for each atom

 ---------------------------------------------------------------------------
     #   Z sym  total        # sym  WBO       # sym  WBO       # sym  WBO
 ---------------------------------------------------------------------------
     1   6 C    3.983 --     2 C    1.545     6 C    1.298   100 H    0.967
     2   6 C    3.974 --     1 C    1.545     3 C    1.282    99 H    0.955
     3   6 C    3.973 --     4 C    1.421     2 C    1.282    30 C    1.092
     4   6 C    3.980 --     3 C    1.421     5 C    1.338    98 H    0.946
     5   6 C    3.987 --     4 C    1.338     6 C    1.267     7 C    1.170
     6   6 C    3.985 --     1 C    1.298     5 C    1.267    10 C    1.224
     7   6 C    3.978 --     8 C    1.295    11 C    1.263     5 C    1.170
     8   6 C    3.985 --     7 C    1.295    14 C    1.284     9 C    1.219
     9   6 C    3.974 --    10 C    1.622     8 C    1.219    89 H    0.967
    10   6 C    3.978 --     9 C    1.622     6 C    1.224    90 H    0.966
    11   6 C    3.976 --    12 C    1.290     7 C    1.263    15 C    1.172
    12   6 C    3.947 --    13 C    1.304    11 C    1.290    43 N    1.137
    13   6 C    3.978 --    14 C    1.534    12 C    1.304    87 H    0.964
    14   6 C    3.960 --    13 C    1.534     8 C    1.284    88 H    0.968
    15   6 C    3.976 --    16 C    1.290    17 C    1.262    11 C    1.172
    16   6 C    3.947 --    20 C    1.304    15 C    1.290    43 N    1.137
    17   6 C    3.978 --    18 C    1.295    15 C    1.262    21 C    1.171
    18   6 C    3.985 --    17 C    1.295    19 C    1.283    24 C    1.219
    19   6 C    3.960 --    20 C    1.533    18 C    1.283    96 H    0.968
    20   6 C    3.978 --    19 C    1.533    16 C    1.304    97 H    0.965
    21   6 C    3.987 --    28 C    1.337    22 C    1.267    17 C    1.171
    22   6 C    3.985 --    27 C    1.297    21 C    1.267    23 C    1.224
    23   6 C    3.978 --    24 C    1.622    22 C    1.224    94 H    0.966
    24   6 C    3.974 --    23 C    1.622    18 C    1.219    95 H    0.967
    25   6 C    3.972 --    28 C    1.421    26 C    1.282    29 C    1.092
    26   6 C    3.974 --    27 C    1.545    25 C    1.282    92 H    0.954
    27   6 C    3.983 --    26 C    1.545    22 C    1.297    93 H    0.967
    28   6 C    3.980 --    25 C    1.421    21 C    1.337    91 H    0.946
    29   6 C    3.944 --    56 N    1.257    58 N    1.253    25 C    1.092
                            57 O    0.131    59 O    0.129
    30   6 C    3.944 --    54 N    1.257    52 N    1.253     3 C    1.092
                            55 O    0.131    53 O    0.129
    31   6 C    3.965 --    33 C    0.996    34 C    0.980    32 C    0.960
                            54 N    0.920
    32   6 C    3.965 --    35 C    0.996    36 C    0.979    31 C    0.960
                            52 N    0.922
    33   6 C    3.988 --    31 C    0.996   106 H    0.983   104 H    0.981
                           105 H    0.976
    34   6 C    3.988 --   101 H    0.982   102 H    0.981    31 C    0.980
                           103 H    0.977
    35   6 C    3.987 --    32 C    0.996   112 H    0.983   110 H    0.981
                           111 H    0.977
    36   6 C    3.988 --   107 H    0.984   108 H    0.981    32 C    0.979
                           109 H    0.979
    37   6 C    3.965 --    40 C    0.996    39 C    0.980    38 C    0.960
                            56 N    0.920
    38   6 C    3.965 --    41 C    0.996    42 C    0.979    37 C    0.960
                            58 N    0.922
    39   6 C    3.988 --    60 H    0.982    61 H    0.981    37 C    0.980
                            62 H    0.977
    40   6 C    3.988 --    37 C    0.996    65 H    0.983    63 H    0.981
                            64 H    0.977
    41   6 C    3.987 --    38 C    0.996    71 H    0.983    69 H    0.981
                            70 H    0.977
    42   6 C    3.988 --    66 H    0.984    67 H    0.981    38 C    0.979
                            68 H    0.979
    43   7 N    3.543 --    12 C    1.137    16 C    1.137    51 C    1.015
    44  14 Si   3.618 --    50 C    0.902    49 C    0.901    48 C    0.894
                            45 C    0.847
    45   6 C    3.970 --    46 C    1.022    73 H    0.982    72 H    0.980
                            44 Si   0.847
    46   6 C    3.946 --    45 C    1.022    74 H    0.971    47 O    0.971
                            75 H    0.970
    47   8 O    2.069 --    51 C    0.974    46 C    0.971
    48   6 C    3.980 --    82 H    0.991    83 H    0.988    81 H    0.988
                            44 Si   0.894
    49   6 C    3.981 --    84 H    0.988    85 H    0.987    86 H    0.986
                            44 Si   0.901
    50   6 C    3.981 --    80 H    0.987    78 H    0.987    79 H    0.986
                            44 Si   0.902
    51   6 C    3.956 --    43 N    1.015    47 O    0.974    76 H    0.955
                            77 H    0.954
    52   7 N    3.697 --    53 O    1.284    30 C    1.253    32 C    0.922
    53   8 O    1.718 --    52 N    1.284    30 C    0.129    55 O    0.101
    54   7 N    3.702 --    55 O    1.285    30 C    1.257    31 C    0.920
    55   8 O    1.726 --    54 N    1.285    30 C    0.131    53 O    0.101
    56   7 N    3.702 --    57 O    1.284    29 C    1.257    37 C    0.920
    57   8 O    1.724 --    56 N    1.284    29 C    0.131    59 O    0.101
    58   7 N    3.697 --    59 O    1.284    29 C    1.253    38 C    0.922
    59   8 O    1.718 --    58 N    1.284    29 C    0.129    57 O    0.101
    60   1 H    0.998 --    39 C    0.982
    61   1 H    0.996 --    39 C    0.981
    62   1 H    0.995 --    39 C    0.977
    63   1 H    0.997 --    40 C    0.981
    64   1 H    0.993 --    40 C    0.977
    65   1 H    0.997 --    40 C    0.983
    66   1 H    0.998 --    42 C    0.984
    67   1 H    0.996 --    42 C    0.981
    68   1 H    0.995 --    42 C    0.979
    69   1 H    0.997 --    41 C    0.981
    70   1 H    0.993 --    41 C    0.977
    71   1 H    0.997 --    41 C    0.983
    72   1 H    0.998 --    45 C    0.980
    73   1 H    0.998 --    45 C    0.982
    74   1 H    1.000 --    46 C    0.971
    75   1 H    1.000 --    46 C    0.970
    76   1 H    0.998 --    51 C    0.955
    77   1 H    0.998 --    51 C    0.954
    78   1 H    0.999 --    50 C    0.987
    79   1 H    0.999 --    50 C    0.986
    80   1 H    0.999 --    50 C    0.987
    81   1 H    0.999 --    48 C    0.988
    82   1 H    0.999 --    48 C    0.991
    83   1 H    0.999 --    48 C    0.988
    84   1 H    0.999 --    49 C    0.988
    85   1 H    0.998 --    49 C    0.987
    86   1 H    0.999 --    49 C    0.986
    87   1 H    0.998 --    13 C    0.964
    88   1 H    0.998 --    14 C    0.968
    89   1 H    0.998 --     9 C    0.967
    90   1 H    0.998 --    10 C    0.966
    91   1 H    0.993 --    28 C    0.946
    92   1 H    0.993 --    26 C    0.954
    93   1 H    0.998 --    27 C    0.967
    94   1 H    0.998 --    23 C    0.966
    95   1 H    0.998 --    24 C    0.967
    96   1 H    0.998 --    19 C    0.968
    97   1 H    0.998 --    20 C    0.965
    98   1 H    0.992 --     4 C    0.946
    99   1 H    0.993 --     2 C    0.955
   100   1 H    0.998 --     1 C    0.967
   101   1 H    0.998 --    34 C    0.982
   102   1 H    0.996 --    34 C    0.981
   103   1 H    0.995 --    34 C    0.977
   104   1 H    0.997 --    33 C    0.981
   105   1 H    0.993 --    33 C    0.976
   106   1 H    0.997 --    33 C    0.983
   107   1 H    0.998 --    36 C    0.984
   108   1 H    0.996 --    36 C    0.981
   109   1 H    0.995 --    36 C    0.979
   110   1 H    0.997 --    35 C    0.981
   111   1 H    0.993 --    35 C    0.977
   112   1 H    0.997 --    35 C    0.983
 ---------------------------------------------------------------------------

Topologies differ in bond orders
Writing corrected topology to xtbtopo.mol

molecular dipole:
                 x           y           z       tot (Debye)
 q only:        1.171       0.604       0.562
   full:        1.342       0.806       0.423       4.122
molecular quadrupole (traceless):
                xx          xy          yy          xz          yz          zz
 q only:      -16.780     -12.266      25.986      14.698     -20.695      -9.206
  q+dip:      -14.750     -15.968      37.323      11.770     -19.481     -22.573
   full:      -17.937     -13.831      31.460       7.489     -22.596     -13.523


           -------------------------------------------------
          | TOTAL ENERGY             -166.397078818028 Eh   |
          | GRADIENT NORM               0.071420470070 Eh/α |
          | HOMO-LUMO GAP               1.652100906745 eV   |
Note: The following floating-point exceptions are signalling: IEEE_UNDERFLOW_FLAG
normal termination of xtb
           -------------------------------------------------
########################################################################
[WARNING] Runtime exception occurred
-2- restart_readRestart: Multiplicity missmatch in restart file.
-1- restart_readRestart: Number of electron missmatch in restart file.
########################################################################

------------------------------------------------------------------------
 * finished run on 2024/11/14 at 10:50:56.499     
------------------------------------------------------------------------
 total:
 * wall-time:     0 d,  0 h,  0 min,  0.870 sec
 *  cpu-time:     0 d,  0 h,  0 min,  3.323 sec
 * ratio c/w:     3.819 speedup
 SCF:
 * wall-time:     0 d,  0 h,  0 min,  0.857 sec
 *  cpu-time:     0 d,  0 h,  0 min,  3.292 sec
 * ratio c/w:     3.842 speedup

