      -----------------------------------------------------------      
     |                   =====================                   |     
     |                           x T B                           |     
     |                   =====================                   |     
     |                         S. Grimme                         |     
     |          Mulliken Center for Theoretical Chemistry        |     
     |                    University of Bonn                     |     
      -----------------------------------------------------------      

   * xtb version 6.6.1 (8d0f1dd) compiled by 'runner@Mac-1690902418499.local' on 2023-08-01

   xtb is free software: you can redistribute it and/or modify it under
   the terms of the GNU Lesser General Public License as published by
   the Free Software Foundation, either version 3 of the License, or
   (at your option) any later version.
   
   xtb is distributed in the hope that it will be useful,
   but WITHOUT ANY WARRANTY; without even the implied warranty of
   MERCHANTABILITY or FITNESS FOR A PARTICULAR PURPOSE.  See the
   GNU Lesser General Public License for more details.
   
   Cite this work as:
   * C. Bannwarth, E. Caldeweyher, S. Ehlert, A. Hansen, P. Pracht,
     J. Seibert, S. Spicher, S. Grimme, WIREs Comput. Mol. Sci., 2020, 11,
     e01493. DOI: 10.1002/wcms.1493
   
   for GFN2-xTB:
   * C. Bannwarth, S. Ehlert and S. Grimme., J. Chem. Theory Comput., 2019,
     15, 1652-1671. DOI: 10.1021/acs.jctc.8b01176
   for GFN1-xTB:
   * S. Grimme, C. Bannwarth, P. Shushkov, J. Chem. Theory Comput., 2017,
     13, 1989-2009. DOI: 10.1021/acs.jctc.7b00118
   for GFN0-xTB:
   * P. Pracht, E. Caldeweyher, S. Ehlert, S. Grimme, ChemRxiv, 2019, preprint.
     DOI: 10.26434/chemrxiv.8326202.v1
   for GFN-FF:
   * S. Spicher and S. Grimme, Angew. Chem. Int. Ed., 2020, 59, 15665-15673.
     DOI: 10.1002/anie.202004239
   
   for ALPB and GBSA implicit solvation:
   * S. Ehlert, M. Stahn, S. Spicher, S. Grimme, J. Chem. Theory Comput.,
     2021, 17, 4250-4261. DOI: 10.1021/acs.jctc.1c00471
   
   for DFT-D4:
   * E. Caldeweyher, C. Bannwarth and S. Grimme, J. Chem. Phys., 2017,
     147, 034112. DOI: 10.1063/1.4993215
   * E. Caldeweyher, S. Ehlert, A. Hansen, H. Neugebauer, S. Spicher,
     C. Bannwarth and S. Grimme, J. Chem. Phys., 2019, 150, 154122.
     DOI: 10.1063/1.5090222
   * E. Caldeweyher, J.-M. Mewes, S. Ehlert and S. Grimme, Phys. Chem. Chem. Phys.
     2020, 22, 8499-8512. DOI: 10.1039/D0CP00502A
   
   for sTDA-xTB:
   * S. Grimme and C. Bannwarth, J. Chem. Phys., 2016, 145, 054103.
     DOI: 10.1063/1.4959605
   
   in the mass-spec context:
   * V. Asgeirsson, C. Bauer and S. Grimme, Chem. Sci., 2017, 8, 4879.
     DOI: 10.1039/c7sc00601b
   * J. Koopman and S. Grimme, ACS Omega 2019, 4, 12, 15120-15133.
     DOI: 10.1021/acsomega.9b02011
   
   for metadynamics refer to:
   * S. Grimme, J. Chem. Theory Comput., 2019, 155, 2847-2862
     DOI: 10.1021/acs.jctc.9b00143
   
   for SPH calculations refer to:
   * S. Spicher and S. Grimme, J. Chem. Theory Comput., 2021, 17, 1701-1714
     DOI: 10.1021/acs.jctc.0c01306
   
   with help from (in alphabetical order)
   P. Atkinson, C. Bannwarth, F. Bohle, G. Brandenburg, E. Caldeweyher
   M. Checinski, S. Dohm, S. Ehlert, S. Ehrlich, I. Gerasimov, C. Hölzer
   A. Katbashev, J. Koopman, C. Lavigne, S. Lehtola, F. März, M. Müller,
   F. Musil, H. Neugebauer, J. Pisarek, C. Plett, P. Pracht, F. Pultar,
   J. Seibert, P. Shushkov, S. Spicher, M. Stahn, M. Steiner, T. Strunk,
   J. Stückrath, T. Rose, and J. Unsleber
   
 * started run on 2024/11/14 at 11:07:19.020     

           -------------------------------------------------
          |                Calculation Setup                |
           -------------------------------------------------

          program call               : xtb stacked_dimer_Nitro3.mol --opt --gfn2 --chrg 0 --uhf 4 --tight
          coordinate file            : stacked_dimer_Nitro3.mol
          omp threads                :                     8

   ID    Z sym.   atoms
    1    6 C      1-42, 45, 46, 48-51, 113-154, 157, 158, 160-163
    2    7 N      43, 52, 54, 56, 58, 155, 164, 166, 168, 170
    3   14 Si     44, 156
    4    8 O      47, 53, 55, 57, 59, 159, 165, 167, 169, 171
    5    1 H      60-112, 172-224

molecular fragmentation (1/2 indicates fragments):
111111111111111111111111111111111111111111111111111111111111111111111111
111111111111111111111111111111111111111122222222222222222222222222222222
222222222222222222222222222222222222222222222222222222222222222222222222
22222222
# atoms in fragment 1/2:   112   112
 fragment masses (1/2) :      808.05      808.05
CMA distance (Bohr)    :  15.695
constraining FC (au)   :  0.0500
########################################################################
[WARNING] Please study the warnings concerning your input carefully
-1- prog_main_parseArguments: Unknown option '--tight' provided
########################################################################

           -------------------------------------------------
          |                 G F N 2 - x T B                 |
           -------------------------------------------------

        Reference                      10.1021/acs.jctc.8b01176
      * Hamiltonian:
        H0-scaling (s, p, d)           1.850000    2.230000    2.230000
        zeta-weighting                 0.500000
      * Dispersion:
        s8                             2.700000
        a1                             0.520000
        a2                             5.000000
        s9                             5.000000
      * Repulsion:
        kExp                           1.500000    1.000000
        rExp                           1.000000
      * Coulomb:
        alpha                          2.000000
        third order                    shell-resolved
        anisotropic                    true
        a3                             3.000000
        a5                             4.000000
        cn-shift                       1.200000
        cn-exp                         4.000000
        max-rad                        5.000000


          ...................................................
          :                      SETUP                      :
          :.................................................:
          :  # basis functions                 590          :
          :  # atomic orbitals                 588          :
          :  # shells                          344          :
          :  # electrons                       608          :
          :  max. iterations                   250          :
          :  Hamiltonian                  GFN2-xTB          :
          :  restarted?                      false          :
          :  GBSA solvation                  false          :
          :  PC potential                    false          :
          :  electronic temp.          300.0000000     K    :
          :  accuracy                    1.0000000          :
          :  -> integral cutoff          0.2500000E+02      :
          :  -> integral neglect         0.1000000E-07      :
          :  -> SCF convergence          0.1000000E-05 Eh   :
          :  -> wf. convergence          0.1000000E-03 e    :
          :  Broyden damping             0.4000000          :
          ...................................................

 iter      E             dE          RMSdq      gap      omega  full diag
   1   -336.0201807 -0.336020E+03  0.404E+00    0.48       0.0  T
   2   -336.9681456 -0.947965E+00  0.242E+00    1.32       1.0  T
   3   -336.8689261  0.992195E-01  0.157E+00    1.32       1.0  T
   4   -336.9123216 -0.433955E-01  0.110E+00    1.13       1.0  T
   5   -337.2398008 -0.327479E+00  0.305E-01    1.36       1.0  T
   6   -337.2566882 -0.168874E-01  0.131E-01    1.33       1.0  T
   7   -337.2565725  0.115698E-03  0.889E-02    1.37       1.0  T
   8   -337.2571682 -0.595723E-03  0.503E-02    1.35       1.0  T
   9   -337.2573299 -0.161706E-03  0.291E-02    1.36       1.0  T
  10   -337.2573717 -0.417618E-04  0.158E-02    1.35       1.0  T
  11   -337.2573849 -0.132706E-04  0.961E-03    1.36       1.0  T
  12   -337.2573933 -0.832328E-05  0.456E-03    1.36       1.5  T
  13   -337.2573962 -0.293285E-05  0.191E-03    1.36       3.5  T
  14   -337.2573963 -0.129485E-06  0.126E-03    1.36       5.3  T
  15   -337.2573966 -0.273861E-06  0.558E-04    1.36      12.0  T
  16   -337.2573966 -0.236429E-07  0.322E-04    1.36      20.7  T

   *** convergence criteria satisfied after 16 iterations ***

         #    Occupation            Energy/Eh            Energy/eV
      -------------------------------------------------------------
         1        2.0000           -0.7528772             -20.4868
       ...           ...                  ...                  ...
       300        2.0000           -0.3421183              -9.3095
       301        2.0000           -0.3415716              -9.2946
       302        2.0000           -0.3386198              -9.2143
       303        1.0000           -0.3174032              -8.6370
       304        1.0000           -0.3160807              -8.6010
       305        1.0000           -0.3147614              -8.5651
       306        1.0000           -0.3083008              -8.3893 (HOMO)
       307                         -0.2584996              -7.0341 (LUMO)
       308                         -0.2549030              -6.9363
       309                         -0.2519181              -6.8550
       310                         -0.2499818              -6.8024
       311                         -0.2481612              -6.7528
       ...                                ...                  ...
       588                          0.7737049              21.0536
      -------------------------------------------------------------
                  HL-Gap            0.0498012 Eh            1.3552 eV
             Fermi-level           -0.3057598 Eh           -8.3201 eV

 SCC (total)                   0 d,  0 h,  0 min,  2.419 sec
 SCC setup                      ...        0 min,  0.002 sec (  0.066%)
 Dispersion                     ...        0 min,  0.005 sec (  0.220%)
 classical contributions        ...        0 min,  0.001 sec (  0.052%)
 integral evaluation            ...        0 min,  0.043 sec (  1.779%)
 iterations                     ...        0 min,  2.139 sec ( 88.424%)
 molecular gradient             ...        0 min,  0.210 sec (  8.692%)
 printout                       ...        0 min,  0.019 sec (  0.766%)

         :::::::::::::::::::::::::::::::::::::::::::::::::::::
         ::                     SUMMARY                     ::
         :::::::::::::::::::::::::::::::::::::::::::::::::::::
         :: total energy            -332.610650096150 Eh    ::
         :: gradient norm              0.415609146807 Eh/a0 ::
         :: HOMO-LUMO gap              1.355160573823 eV    ::
         ::.................................................::
         :: SCC energy              -337.257396614923 Eh    ::
         :: -> isotropic ES            0.356822062023 Eh    ::
         :: -> anisotropic ES          0.044815331696 Eh    ::
         :: -> anisotropic XC          0.118661929157 Eh    ::
         :: -> dispersion             -0.344902248351 Eh    ::
         :: repulsion energy           4.622320890233 Eh    ::
         :: add. restraining           0.000000000000 Eh    ::
         :: total charge              -0.000000000000 e     ::
         :::::::::::::::::::::::::::::::::::::::::::::::::::::

      ----------------------------------------------------------- 
     |                   =====================                   |
     |                        A N C O P T                        |
     |                   =====================                   |
     |               Approximate Normal Coordinate               |
     |                Rational Function Optimizer                |
      ----------------------------------------------------------- 

          ...................................................
          :                      SETUP                      :
          :.................................................:
          :   optimization level            normal          :
          :   max. optcycles                   672          :
          :   ANC micro-cycles                  20          :
          :   degrees of freedom               666          :
          :.................................................:
          :   RF solver                   davidson          :
          :   write xtbopt.log                true          :
          :   linear?                        false          :
          :   energy convergence         0.5000000E-05 Eh   :
          :   grad. convergence          0.1000000E-02 Eh/α :
          :   maxmium RF displ.          1.0000000          :
          :   Hlow (freq-cutoff)         0.1000000E-01      :
          :   Hmax (freq-cutoff)         5.0000000          :
          :   S6 in model hess.         20.0000000          :
          ...................................................

generating ANC from model Hessian ...
Using Lindh-Hessian (1995)
 Shifting diagonal of input Hessian by    1.0048266087585363E-002
 Lowest  eigenvalues of input Hessian
    0.010000    0.010023    0.010036    0.010045    0.000000    0.000000
    0.000000    0.000000    0.000000    0.000000    0.010076    0.010091
    0.010106    0.010109    0.010123    0.010169    0.010183    0.010191
 Highest eigenvalues
    2.218707    2.221075    2.573764    2.574432    2.588008    2.594682


........................................................................
.............................. CYCLE    1 ..............................
........................................................................

 iter      E             dE          RMSdq      gap      omega  full diag
   1   -337.2573966 -0.337257E+03  0.161E-04    1.36       0.0  T
   2   -337.2573966  0.217710E-10  0.124E-04    1.36      54.0  T
   3   -337.2573966 -0.965315E-09  0.948E-05    1.36      70.5  T
     SCC iter.                  ...        0 min,  0.828 sec
     gradient                   ...        0 min,  0.254 sec
 * total energy  :  -332.6106501 Eh     change       -0.9865801E-08 Eh
   gradient norm :     0.4156013 Eh/α   predicted     0.0000000E+00 (-100.00%)
   displ. norm   :     0.4688187 α      lambda       -0.1509475E+00
   maximum displ.:     0.0972918 α      in ANC's #156, #157, #402, ...

........................................................................
.............................. CYCLE    2 ..............................
........................................................................

 iter      E             dE          RMSdq      gap      omega  full diag
   1   -337.4243213 -0.337424E+03  0.334E-01    1.32       0.0  T
   2   -337.4007716  0.235498E-01  0.473E-01    1.37       1.0  T
   3   -337.4610818 -0.603103E-01  0.122E-01    1.33       1.0  T
   4   -337.4592830  0.179877E-02  0.106E-01    1.34       1.0  T
   5   -337.4614048 -0.212176E-02  0.378E-02    1.33       1.0  T
   6   -337.4616126 -0.207830E-03  0.101E-02    1.33       1.0  T
   7   -337.4616194 -0.672752E-05  0.665E-03    1.33       1.0  T
   8   -337.4616217 -0.235599E-05  0.355E-03    1.33       1.9  T
   9   -337.4616239 -0.213018E-05  0.160E-03    1.33       4.2  T
  10   -337.4616243 -0.400675E-06  0.788E-04    1.33       8.5  T
  11   -337.4616243 -0.914996E-07  0.407E-04    1.33      16.4  T
     SCC iter.                  ...        0 min,  2.135 sec
     gradient                   ...        0 min,  0.212 sec
 * total energy  :  -332.7218641 Eh     change       -0.1112140E+00 Eh
   gradient norm :     0.1875224 Eh/α   predicted    -0.9209419E-01 ( -17.19%)
   displ. norm   :     0.5262047 α      lambda       -0.6652092E-01
   maximum displ.:     0.1279135 α      in ANC's #156, #157, #154, ...

........................................................................
.............................. CYCLE    3 ..............................
........................................................................

 iter      E             dE          RMSdq      gap      omega  full diag
   1   -337.5857211 -0.337586E+03  0.260E-01    1.29       0.0  T
   2   -337.5710960  0.146252E-01  0.362E-01    1.30       1.0  T
   3   -337.6067882 -0.356922E-01  0.922E-02    1.30       1.0  T
   4   -337.6057442  0.104399E-02  0.784E-02    1.30       1.0  T
   5   -337.6068896 -0.114537E-02  0.282E-02    1.30       1.0  T
   6   -337.6070154 -0.125797E-03  0.741E-03    1.30       1.0  T
   7   -337.6070197 -0.429361E-05  0.481E-03    1.30       1.4  T
   8   -337.6070210 -0.126328E-05  0.261E-03    1.30       2.6  T
   9   -337.6070222 -0.126478E-05  0.104E-03    1.30       6.4  T
  10   -337.6070224 -0.198715E-06  0.493E-04    1.30      13.6  T
  11   -337.6070225 -0.386481E-07  0.249E-04    1.30      26.9  T
     SCC iter.                  ...        0 min,  1.633 sec
     gradient                   ...        0 min,  0.210 sec
 * total energy  :  -332.7652091 Eh     change       -0.4334499E-01 Eh
   gradient norm :     0.0515058 Eh/α   predicted    -0.4247001E-01 (  -2.02%)
   displ. norm   :     0.5992412 α      lambda       -0.2063402E-01
   maximum displ.:     0.1434413 α      in ANC's #156, #135, #157, ...

........................................................................
.............................. CYCLE    4 ..............................
........................................................................

 iter      E             dE          RMSdq      gap      omega  full diag
   1   -337.6486802 -0.337649E+03  0.114E-01    1.31       0.0  T
   2   -337.6481891  0.491150E-03  0.940E-02    1.31       1.0  T
   3   -337.6491795 -0.990439E-03  0.555E-02    1.31       1.0  T
   4   -337.6495488 -0.369260E-03  0.215E-02    1.31       1.0  T
   5   -337.6496713 -0.122487E-03  0.724E-03    1.31       1.0  T
   6   -337.6496824 -0.111892E-04  0.272E-03    1.31       2.5  T
   7   -337.6496824  0.592734E-07  0.195E-03    1.31       3.4  T
   8   -337.6496828 -0.387845E-06  0.946E-04    1.31       7.1  T
   9   -337.6496829 -0.135276E-06  0.550E-04    1.31      12.2  T
     SCC iter.                  ...        0 min,  1.456 sec
     gradient                   ...        0 min,  0.206 sec
 * total energy  :  -332.7806672 Eh     change       -0.1545811E-01 Eh
   gradient norm :     0.0289500 Eh/α   predicted    -0.1402297E-01 (  -9.28%)
   displ. norm   :     0.6218838 α      lambda       -0.1082373E-01
   maximum displ.:     0.1555366 α      in ANC's #88, #66, #135, ...

........................................................................
.............................. CYCLE    5 ..............................
........................................................................

 iter      E             dE          RMSdq      gap      omega  full diag
   1   -337.6737059 -0.337674E+03  0.830E-02    1.32       0.0  T
   2   -337.6737634 -0.575617E-04  0.495E-02    1.32       1.0  T
   3   -337.6736576  0.105817E-03  0.235E-02    1.32       1.0  T
   4   -337.6737695 -0.111850E-03  0.893E-03    1.32       1.0  T
   5   -337.6737871 -0.176035E-04  0.490E-03    1.32       1.4  T
   6   -337.6737908 -0.376693E-05  0.289E-03    1.32       2.3  T
   7   -337.6737906  0.205061E-06  0.185E-03    1.32       3.6  T
   8   -337.6737912 -0.585736E-06  0.843E-04    1.32       7.9  T
   9   -337.6737912 -0.215184E-07  0.483E-04    1.32      13.8  T
     SCC iter.                  ...        0 min,  1.560 sec
     gradient                   ...        0 min,  0.210 sec
 * total energy  :  -332.7887495 Eh     change       -0.8082330E-02 Eh
   gradient norm :     0.0182827 Eh/α   predicted    -0.7504848E-02 (  -7.14%)
   displ. norm   :     0.6165598 α      lambda       -0.5697280E-02
   maximum displ.:     0.1709376 α      in ANC's #18, #66, #16, ...

........................................................................
.............................. CYCLE    6 ..............................
........................................................................

 iter      E             dE          RMSdq      gap      omega  full diag
   1   -337.6903038 -0.337690E+03  0.608E-02    1.32       0.0  T
   2   -337.6903236 -0.198477E-04  0.364E-02    1.33       1.0  T
   3   -337.6901922  0.131482E-03  0.243E-02    1.33       1.0  T
   4   -337.6903258 -0.133671E-03  0.853E-03    1.33       1.0  T
   5   -337.6903445 -0.187034E-04  0.404E-03    1.33       1.7  T
   6   -337.6903456 -0.110478E-05  0.253E-03    1.33       2.6  T
   7   -337.6903454  0.198708E-06  0.151E-03    1.33       4.4  T
   8   -337.6903458 -0.368425E-06  0.715E-04    1.33       9.3  T
   9   -337.6903458 -0.297765E-07  0.387E-04    1.33      17.3  T
     SCC iter.                  ...        0 min,  1.549 sec
     gradient                   ...        0 min,  0.211 sec
 * total energy  :  -332.7931716 Eh     change       -0.4422092E-02 Eh
   gradient norm :     0.0138203 Eh/α   predicted    -0.3931543E-02 ( -11.09%)
   displ. norm   :     0.6386631 α      lambda       -0.3752205E-02
   maximum displ.:     0.2209323 α      in ANC's #18, #16, #21, ...

........................................................................
.............................. CYCLE    7 ..............................
........................................................................

 iter      E             dE          RMSdq      gap      omega  full diag
   1   -337.7010040 -0.337701E+03  0.489E-02    1.32       0.0  T
   2   -337.7010133 -0.926002E-05  0.295E-02    1.33       1.0  T
   3   -337.7008970  0.116214E-03  0.217E-02    1.33       1.0  T
   4   -337.7010179 -0.120819E-03  0.682E-03    1.33       1.0  T
   5   -337.7010293 -0.114373E-04  0.320E-03    1.33       2.1  T
   6   -337.7010299 -0.621928E-06  0.205E-03    1.33       3.3  T
   7   -337.7010298  0.110762E-06  0.119E-03    1.33       5.6  T
   8   -337.7010300 -0.222267E-06  0.576E-04    1.33      11.6  T
   9   -337.7010300 -0.165633E-07  0.315E-04    1.33      21.2  T
     SCC iter.                  ...        0 min,  1.303 sec
     gradient                   ...        0 min,  0.219 sec
 * total energy  :  -332.7961722 Eh     change       -0.3000546E-02 Eh
   gradient norm :     0.0100199 Eh/α   predicted    -0.2641348E-02 ( -11.97%)
   displ. norm   :     0.6613690 α      lambda       -0.2768190E-02
   maximum displ.:     0.2583109 α      in ANC's #18, #16, #21, ...

........................................................................
.............................. CYCLE    8 ..............................
........................................................................

 iter      E             dE          RMSdq      gap      omega  full diag
   1   -337.7070181 -0.337707E+03  0.425E-02    1.33       0.0  T
   2   -337.7070229 -0.470803E-05  0.257E-02    1.33       1.0  T
   3   -337.7069352  0.876826E-04  0.176E-02    1.33       1.0  T
   4   -337.7070262 -0.910215E-04  0.486E-03    1.33       1.4  T
   5   -337.7070316 -0.544076E-05  0.235E-03    1.33       2.8  T
   6   -337.7070319 -0.251546E-06  0.158E-03    1.33       4.2  T
   7   -337.7070319  0.398069E-08  0.871E-04    1.33       7.7  T
   8   -337.7070320 -0.988549E-07  0.447E-04    1.33      15.0  T
     SCC iter.                  ...        0 min,  1.170 sec
     gradient                   ...        0 min,  0.207 sec
 * total energy  :  -332.7984604 Eh     change       -0.2288207E-02 Eh
   gradient norm :     0.0076643 Eh/α   predicted    -0.1989511E-02 ( -13.05%)
   displ. norm   :     0.6927033 α      lambda       -0.2287668E-02
   maximum displ.:     0.2869678 α      in ANC's #18, #16, #21, ...

........................................................................
.............................. CYCLE    9 ..............................
........................................................................

 iter      E             dE          RMSdq      gap      omega  full diag
   1   -337.7096937 -0.337710E+03  0.408E-02    1.33       0.0  T
   2   -337.7096965 -0.277309E-05  0.246E-02    1.33       1.0  T
   3   -337.7096235  0.729554E-04  0.154E-02    1.33       1.0  T
   4   -337.7096996 -0.760385E-04  0.384E-03    1.33       1.7  T
   5   -337.7097029 -0.330060E-05  0.190E-03    1.33       3.5  T
   6   -337.7097030 -0.103436E-06  0.129E-03    1.33       5.2  T
   7   -337.7097030 -0.151536E-07  0.724E-04    1.33       9.2  T
   8   -337.7097031 -0.736518E-07  0.375E-04    1.33      17.8  T
     SCC iter.                  ...        0 min,  1.224 sec
     gradient                   ...        0 min,  0.201 sec
 * total energy  :  -332.8004252 Eh     change       -0.1964856E-02 Eh
   gradient norm :     0.0077023 Eh/α   predicted    -0.1692689E-02 ( -13.85%)
   displ. norm   :     0.7381450 α      lambda       -0.2094085E-02
   maximum displ.:     0.3112521 α      in ANC's #18, #16, #17, ...

........................................................................
.............................. CYCLE   10 ..............................
........................................................................

 iter      E             dE          RMSdq      gap      omega  full diag
   1   -337.7099184 -0.337710E+03  0.415E-02    1.33       0.0  T
   2   -337.7099206 -0.217553E-05  0.250E-02    1.33       1.0  T
   3   -337.7098467  0.738927E-04  0.154E-02    1.33       1.0  T
   4   -337.7099241 -0.774226E-04  0.359E-03    1.33       1.9  T
   5   -337.7099272 -0.306088E-05  0.176E-03    1.33       3.8  T
   6   -337.7099273 -0.103118E-06  0.115E-03    1.33       5.8  T
   7   -337.7099273 -0.164774E-07  0.676E-04    1.33       9.9  T
   8   -337.7099274 -0.730130E-07  0.344E-04    1.33      19.4  T
     SCC iter.                  ...        0 min,  1.215 sec
     gradient                   ...        0 min,  0.209 sec
 * total energy  :  -332.8022674 Eh     change       -0.1842191E-02 Eh
   gradient norm :     0.0081882 Eh/α   predicted    -0.1617543E-02 ( -12.19%)
   displ. norm   :     0.7761321 α      lambda       -0.1937658E-02
   maximum displ.:     0.3278552 α      in ANC's #18, #16, #17, ...

........................................................................
.............................. CYCLE   11 ..............................
........................................................................

 iter      E             dE          RMSdq      gap      omega  full diag
   1   -337.7085398 -0.337709E+03  0.419E-02    1.33       0.0  T
   2   -337.7085428 -0.299101E-05  0.250E-02    1.33       1.0  T
   3   -337.7084839  0.588622E-04  0.140E-02    1.33       1.0  T
   4   -337.7085456 -0.616995E-04  0.346E-03    1.33       1.9  T
   5   -337.7085485 -0.286338E-05  0.174E-03    1.33       3.8  T
   6   -337.7085487 -0.181424E-06  0.110E-03    1.33       6.1  T
   7   -337.7085487 -0.139343E-07  0.644E-04    1.33      10.4  T
   8   -337.7085487 -0.645668E-07  0.330E-04    1.33      20.2  T
     SCC iter.                  ...        0 min,  1.073 sec
     gradient                   ...        0 min,  0.211 sec
 * total energy  :  -332.8039753 Eh     change       -0.1707895E-02 Eh
   gradient norm :     0.0071615 Eh/α   predicted    -0.1552443E-02 (  -9.10%)
   displ. norm   :     0.7939132 α      lambda       -0.1683170E-02
   maximum displ.:     0.3357280 α      in ANC's #18, #16, #17, ...

........................................................................
.............................. CYCLE   12 ..............................
........................................................................

 iter      E             dE          RMSdq      gap      omega  full diag
   1   -337.7068421 -0.337707E+03  0.409E-02    1.33       0.0  T
   2   -337.7068466 -0.444994E-05  0.244E-02    1.33       1.0  T
   3   -337.7068103  0.362328E-04  0.116E-02    1.33       1.0  T
   4   -337.7068492 -0.388779E-04  0.301E-03    1.33       2.2  T
   5   -337.7068510 -0.178734E-05  0.169E-03    1.33       4.0  T
   6   -337.7068512 -0.234095E-06  0.105E-03    1.33       6.4  T
   7   -337.7068513 -0.272776E-07  0.564E-04    1.33      11.8  T
   8   -337.7068513 -0.346240E-07  0.321E-04    1.33      20.8  T
     SCC iter.                  ...        0 min,  1.184 sec
     gradient                   ...        0 min,  0.213 sec
 * total energy  :  -332.8054460 Eh     change       -0.1470643E-02 Eh
   gradient norm :     0.0053456 Eh/α   predicted    -0.1372044E-02 (  -6.70%)
   displ. norm   :     0.7946216 α      lambda       -0.1374800E-02
   maximum displ.:     0.3371221 α      in ANC's #18, #17, #16, ...

........................................................................
.............................. CYCLE   13 ..............................
........................................................................

 iter      E             dE          RMSdq      gap      omega  full diag
   1   -337.7060487 -0.337706E+03  0.389E-02    1.33       0.0  T
   2   -337.7060531 -0.448432E-05  0.233E-02    1.33       1.0  T
   3   -337.7060144  0.387056E-04  0.120E-02    1.33       1.0  T
   4   -337.7060556 -0.411222E-04  0.322E-03    1.33       2.1  T
   5   -337.7060581 -0.249541E-05  0.163E-03    1.33       4.1  T
   6   -337.7060583 -0.216591E-06  0.104E-03    1.33       6.4  T
   7   -337.7060583 -0.140906E-07  0.572E-04    1.33      11.7  T
   8   -337.7060583 -0.316621E-07  0.333E-04    1.33      20.1  T
     SCC iter.                  ...        0 min,  1.019 sec
     gradient                   ...        0 min,  0.216 sec
 * total energy  :  -332.8066438 Eh     change       -0.1197883E-02 Eh
   gradient norm :     0.0046729 Eh/α   predicted    -0.1121447E-02 (  -6.38%)
   displ. norm   :     0.7875625 α      lambda       -0.1119339E-02
   maximum displ.:     0.3345056 α      in ANC's #18, #17, #16, ...

........................................................................
.............................. CYCLE   14 ..............................
........................................................................

 iter      E             dE          RMSdq      gap      omega  full diag
   1   -337.7064765 -0.337706E+03  0.371E-02    1.33       0.0  T
   2   -337.7064799 -0.341859E-05  0.223E-02    1.33       1.0  T
   3   -337.7064287  0.511718E-04  0.134E-02    1.34       1.0  T
   4   -337.7064825 -0.537730E-04  0.352E-03    1.33       1.9  T
   5   -337.7064860 -0.348977E-05  0.152E-03    1.33       4.4  T
   6   -337.7064861 -0.125835E-06  0.101E-03    1.33       6.6  T
   7   -337.7064861  0.981015E-08  0.591E-04    1.33      11.3  T
   8   -337.7064862 -0.470671E-07  0.326E-04    1.33      20.5  T
     SCC iter.                  ...        0 min,  0.969 sec
     gradient                   ...        0 min,  0.216 sec
 * total energy  :  -332.8076219 Eh     change       -0.9780183E-03 Eh
   gradient norm :     0.0046865 Eh/α   predicted    -0.9068141E-03 (  -7.28%)
   displ. norm   :     0.7785160 α      lambda       -0.9336278E-03
   maximum displ.:     0.3297434 α      in ANC's #18, #17, #16, ...

........................................................................
.............................. CYCLE   15 ..............................
........................................................................

 iter      E             dE          RMSdq      gap      omega  full diag
   1   -337.7078409 -0.337708E+03  0.362E-02    1.34       0.0  T
   2   -337.7078431 -0.222252E-05  0.218E-02    1.34       1.0  T
   3   -337.7077759  0.672672E-04  0.152E-02    1.34       1.0  T
   4   -337.7078468 -0.709715E-04  0.369E-03    1.34       1.8  T
   5   -337.7078510 -0.411536E-05  0.143E-03    1.34       4.7  T
   6   -337.7078510 -0.866721E-07  0.961E-04    1.34       7.0  T
   7   -337.7078510  0.101966E-07  0.552E-04    1.34      12.1  T
     SCC iter.                  ...        0 min,  0.841 sec
     gradient                   ...        0 min,  0.211 sec
 * total energy  :  -332.8084355 Eh     change       -0.8136558E-03 Eh
   gradient norm :     0.0042893 Eh/α   predicted    -0.7497445E-03 (  -7.85%)
   displ. norm   :     0.7660203 α      lambda       -0.7803684E-03
   maximum displ.:     0.3223052 α      in ANC's #18, #17, #16, ...

........................................................................
.............................. CYCLE   16 ..............................
........................................................................

 iter      E             dE          RMSdq      gap      omega  full diag
   1   -337.7094430 -0.337709E+03  0.359E-02    1.34       0.0  T
   2   -337.7094459 -0.289663E-05  0.215E-02    1.34       1.0  T
   3   -337.7093937  0.522102E-04  0.134E-02    1.34       1.0  T
   4   -337.7094483 -0.546043E-04  0.345E-03    1.34       1.9  T
   5   -337.7094519 -0.356948E-05  0.138E-03    1.34       4.9  T
   6   -337.7094520 -0.895898E-07  0.924E-04    1.34       7.2  T
   7   -337.7094520 -0.741170E-08  0.499E-04    1.34      13.4  T
     SCC iter.                  ...        0 min,  1.155 sec
     gradient                   ...        0 min,  0.208 sec
 * total energy  :  -332.8091093 Eh     change       -0.6738259E-03 Eh
   gradient norm :     0.0039326 Eh/α   predicted    -0.6191397E-03 (  -8.12%)
   displ. norm   :     0.7476445 α      lambda       -0.6406734E-03
   maximum displ.:     0.3112125 α      in ANC's #18, #17, #21, ...

........................................................................
.............................. CYCLE   17 ..............................
........................................................................

 iter      E             dE          RMSdq      gap      omega  full diag
   1   -337.7107308 -0.337711E+03  0.361E-02    1.35       0.0  T
   2   -337.7107340 -0.318492E-05  0.215E-02    1.35       1.0  T
   3   -337.7106950  0.390248E-04  0.117E-02    1.35       1.0  T
   4   -337.7107365 -0.414885E-04  0.289E-03    1.35       2.3  T
   5   -337.7107386 -0.213337E-05  0.134E-03    1.35       5.0  T
   6   -337.7107387 -0.895607E-07  0.915E-04    1.35       7.3  T
   7   -337.7107387 -0.284703E-07  0.520E-04    1.35      12.9  T
     SCC iter.                  ...        0 min,  0.801 sec
     gradient                   ...        0 min,  0.210 sec
 * total energy  :  -332.8096563 Eh     change       -0.5469563E-03 Eh
   gradient norm :     0.0042580 Eh/α   predicted    -0.4993978E-03 (  -8.70%)
   displ. norm   :     0.7223625 α      lambda       -0.5199827E-03
   maximum displ.:     0.2959637 α      in ANC's #18, #17, #21, ...

........................................................................
.............................. CYCLE   18 ..............................
........................................................................

 iter      E             dE          RMSdq      gap      omega  full diag
   1   -337.7115180 -0.337712E+03  0.360E-02    1.35       0.0  T
   2   -337.7115214 -0.341393E-05  0.214E-02    1.35       1.0  T
   3   -337.7114966  0.248657E-04  0.951E-03    1.35       1.0  T
   4   -337.7115241 -0.275396E-04  0.214E-03    1.35       3.1  T
   5   -337.7115248 -0.715886E-06  0.124E-03    1.35       5.4  T
   6   -337.7115249 -0.532418E-07  0.803E-04    1.35       8.3  T
   7   -337.7115249 -0.469883E-07  0.387E-04    1.35      17.3  T
     SCC iter.                  ...        0 min,  0.943 sec
     gradient                   ...        0 min,  0.226 sec
 * total energy  :  -332.8100952 Eh     change       -0.4388701E-03 Eh
   gradient norm :     0.0046459 Eh/α   predicted    -0.3956599E-03 (  -9.85%)
   displ. norm   :     0.6883764 α      lambda       -0.4205652E-03
   maximum displ.:     0.2766391 α      in ANC's #18, #17, #21, ...

........................................................................
.............................. CYCLE   19 ..............................
........................................................................

 iter      E             dE          RMSdq      gap      omega  full diag
   1   -337.7117872 -0.337712E+03  0.353E-02    1.35       0.0  T
   2   -337.7117891 -0.190349E-05  0.211E-02    1.36       1.0  T
   3   -337.7117364  0.527205E-04  0.131E-02    1.35       1.0  T
   4   -337.7117927 -0.563330E-04  0.271E-03    1.36       2.5  T
   5   -337.7117945 -0.180733E-05  0.133E-03    1.36       5.0  T
   6   -337.7117946 -0.894589E-07  0.920E-04    1.36       7.3  T
   7   -337.7117947 -0.666607E-07  0.487E-04    1.36      13.7  T
     SCC iter.                  ...        0 min,  0.789 sec
     gradient                   ...        0 min,  0.207 sec
 * total energy  :  -332.8104447 Eh     change       -0.3495868E-03 Eh
   gradient norm :     0.0043818 Eh/α   predicted    -0.3099329E-03 ( -11.34%)
   displ. norm   :     0.6408231 α      lambda       -0.3363963E-03
   maximum displ.:     0.2508865 α      in ANC's #18, #17, #21, ...

........................................................................
.............................. CYCLE   20 ..............................
........................................................................

 iter      E             dE          RMSdq      gap      omega  full diag
   1   -337.7119815 -0.337712E+03  0.336E-02    1.36       0.0  T
   2   -337.7119829 -0.135082E-05  0.202E-02    1.36       1.0  T
   3   -337.7119241  0.587759E-04  0.136E-02    1.36       1.0  T
   4   -337.7119864 -0.623150E-04  0.288E-03    1.36       2.3  T
   5   -337.7119888 -0.236902E-05  0.128E-03    1.36       5.2  T
   6   -337.7119889 -0.816212E-07  0.873E-04    1.36       7.7  T
   7   -337.7119889 -0.424236E-07  0.463E-04    1.36      14.4  T
     SCC iter.                  ...        0 min,  0.887 sec
     gradient                   ...        0 min,  0.212 sec
 * total energy  :  -332.8107185 Eh     change       -0.2737144E-03 Eh
   gradient norm :     0.0036022 Eh/α   predicted    -0.2372706E-03 ( -13.31%)
   displ. norm   :     0.5816846 α      lambda       -0.2629792E-03
   maximum displ.:     0.2231658 α      in ANC's #18, #17, #21, ...
 * RMSD in coord.:     0.7405866 α      energy gain  -0.2000684E+00 Eh

generating ANC from model Hessian ...
Using Lindh-Hessian (1995)
 Shifting diagonal of input Hessian by    1.0029283119743467E-002
 Lowest  eigenvalues of input Hessian
    0.010000    0.010010    0.010021    0.000000    0.000000    0.000000
    0.000000    0.000000    0.000000    0.010032    0.010061    0.010090
    0.010091    0.010109    0.010117    0.010118    0.010137    0.010180
 Highest eigenvalues
    2.196738    2.203662    2.376321    2.378745    2.381288    2.387823


........................................................................
.............................. CYCLE   21 ..............................
........................................................................

 iter      E             dE          RMSdq      gap      omega  full diag
   1   -337.7117351 -0.337712E+03  0.310E-02    1.36       0.0  T
   2   -337.7117347  0.431387E-06  0.189E-02    1.36       1.0  T
   3   -337.7116628  0.718657E-04  0.152E-02    1.36       1.0  T
   4   -337.7117408 -0.779935E-04  0.265E-03    1.36       2.5  T
   5   -337.7117427 -0.188079E-05  0.124E-03    1.36       5.4  T
   6   -337.7117427 -0.724664E-07  0.871E-04    1.36       7.7  T
   7   -337.7117428 -0.549139E-07  0.435E-04    1.36      15.3  T
     SCC iter.                  ...        0 min,  0.846 sec
     gradient                   ...        0 min,  0.211 sec
 * total energy  :  -332.8109277 Eh     change       -0.2092620E-03 Eh
   gradient norm :     0.0031873 Eh/α   predicted     0.0000000E+00 (-100.00%)
   displ. norm   :     0.0594801 α      lambda       -0.5965929E-04
   maximum displ.:     0.0199868 α      in ANC's #18, #34, #3, ...

........................................................................
.............................. CYCLE   22 ..............................
........................................................................

 iter      E             dE          RMSdq      gap      omega  full diag
   1   -337.7124552 -0.337712E+03  0.581E-03    1.36       0.0  T
   2   -337.7124552  0.120493E-07  0.370E-03    1.36       1.8  T
   3   -337.7124535  0.166912E-05  0.298E-03    1.36       2.2  T
   4   -337.7124557 -0.217695E-05  0.627E-04    1.36      10.7  T
   5   -337.7124558 -0.956540E-07  0.306E-04    1.36      21.8  T
   6   -337.7124558 -0.204072E-07  0.163E-04    1.36      40.9  T
     SCC iter.                  ...        0 min,  0.894 sec
     gradient                   ...        0 min,  0.205 sec
 * total energy  :  -332.8109823 Eh     change       -0.5460369E-04 Eh
   gradient norm :     0.0016730 Eh/α   predicted    -0.3056214E-04 ( -44.03%)
   displ. norm   :     0.4586330 α      lambda       -0.2398866E-03
   maximum displ.:     0.1589304 α      in ANC's #18, #34, #3, ...

........................................................................
.............................. CYCLE   23 ..............................
........................................................................

 iter      E             dE          RMSdq      gap      omega  full diag
   1   -337.7131165 -0.337713E+03  0.403E-02    1.34       0.0  T
   2   -337.7131187 -0.221718E-05  0.244E-02    1.34       1.0  T
   3   -337.7130448  0.739104E-04  0.169E-02    1.34       1.0  T
   4   -337.7131267 -0.818818E-04  0.291E-03    1.34       2.3  T
   5   -337.7131285 -0.183476E-05  0.146E-03    1.34       4.6  T
   6   -337.7131287 -0.162702E-06  0.995E-04    1.34       6.7  T
   7   -337.7131288 -0.833080E-07  0.570E-04    1.34      11.7  T
     SCC iter.                  ...        0 min,  1.034 sec
     gradient                   ...        0 min,  0.220 sec
 * total energy  :  -332.8111618 Eh     change       -0.1794643E-03 Eh
   gradient norm :     0.0060727 Eh/α   predicted    -0.1311610E-03 ( -26.92%)
   displ. norm   :     0.0954962 α      lambda       -0.6165819E-04
   maximum displ.:     0.0401349 α      in ANC's #18, #3, #32, ...

........................................................................
.............................. CYCLE   24 ..............................
........................................................................

 iter      E             dE          RMSdq      gap      omega  full diag
   1   -337.7127849 -0.337713E+03  0.725E-03    1.35       0.0  T
   2   -337.7127851 -0.204646E-06  0.455E-03    1.35       1.5  T
   3   -337.7127830  0.206240E-05  0.337E-03    1.35       2.0  T
   4   -337.7127856 -0.257565E-05  0.757E-04    1.35       8.8  T
   5   -337.7127857 -0.138120E-06  0.347E-04    1.35      19.3  T
   6   -337.7127857 -0.853419E-08  0.240E-04    1.35      27.8  T
     SCC iter.                  ...        0 min,  1.073 sec
     gradient                   ...        0 min,  0.216 sec
 * total energy  :  -332.8112174 Eh     change       -0.5564905E-04 Eh
   gradient norm :     0.0044873 Eh/α   predicted    -0.3111066E-04 ( -44.09%)
   displ. norm   :     0.3474824 α      lambda       -0.1960744E-03
   maximum displ.:     0.1475671 α      in ANC's #18, #3, #20, ...

........................................................................
.............................. CYCLE   25 ..............................
........................................................................

 iter      E             dE          RMSdq      gap      omega  full diag
   1   -337.7111695 -0.337711E+03  0.248E-02    1.35       0.0  T
   2   -337.7111725 -0.293864E-05  0.154E-02    1.35       1.0  T
   3   -337.7111498  0.226478E-04  0.110E-02    1.35       1.0  T
   4   -337.7111769 -0.270620E-04  0.268E-03    1.35       2.5  T
   5   -337.7111787 -0.185845E-05  0.123E-03    1.35       5.5  T
   6   -337.7111789 -0.143272E-06  0.829E-04    1.35       8.1  T
   7   -337.7111789 -0.300042E-08  0.574E-04    1.35      11.6  T
     SCC iter.                  ...        0 min,  0.780 sec
     gradient                   ...        0 min,  0.204 sec
 * total energy  :  -332.8113484 Eh     change       -0.1309604E-03 Eh
   gradient norm :     0.0023404 Eh/α   predicted    -0.1098747E-03 ( -16.10%)
   displ. norm   :     0.2463093 α      lambda       -0.6839730E-04
   maximum displ.:     0.1086675 α      in ANC's #18, #3, #20, ...

........................................................................
.............................. CYCLE   26 ..............................
........................................................................

 iter      E             dE          RMSdq      gap      omega  full diag
   1   -337.7105992 -0.337711E+03  0.158E-02    1.35       0.0  T
   2   -337.7106004 -0.113515E-05  0.950E-03    1.35       1.0  T
   3   -337.7105946  0.576926E-05  0.521E-03    1.35       1.3  T
   4   -337.7106012 -0.657295E-05  0.117E-03    1.35       5.7  T
   5   -337.7106014 -0.275735E-06  0.604E-04    1.35      11.1  T
   6   -337.7106015 -0.213856E-07  0.403E-04    1.35      16.6  T
     SCC iter.                  ...        0 min,  1.043 sec
     gradient                   ...        0 min,  0.218 sec
 * total energy  :  -332.8114016 Eh     change       -0.5318818E-04 Eh
   gradient norm :     0.0035591 Eh/α   predicted    -0.3627608E-04 ( -31.80%)
   displ. norm   :     0.2814485 α      lambda       -0.8020078E-04
   maximum displ.:     0.1273476 α      in ANC's #18, #3, #20, ...

........................................................................
.............................. CYCLE   27 ..............................
........................................................................

 iter      E             dE          RMSdq      gap      omega  full diag
   1   -337.7110810 -0.337711E+03  0.163E-02    1.35       0.0  T
   2   -337.7110821 -0.109886E-05  0.976E-03    1.35       1.0  T
   3   -337.7110754  0.672446E-05  0.508E-03    1.35       1.3  T
   4   -337.7110829 -0.743964E-05  0.122E-03    1.35       5.5  T
   5   -337.7110832 -0.350330E-06  0.593E-04    1.35      11.3  T
   6   -337.7110832 -0.331361E-07  0.380E-04    1.35      17.6  T
     SCC iter.                  ...        0 min,  1.106 sec
     gradient                   ...        0 min,  0.214 sec
 * total energy  :  -332.8114679 Eh     change       -0.6631460E-04 Eh
   gradient norm :     0.0035584 Eh/α   predicted    -0.4327723E-04 ( -34.74%)
   displ. norm   :     0.3696319 α      lambda       -0.1126575E-03
   maximum displ.:     0.1713673 α      in ANC's #18, #3, #20, ...

........................................................................
.............................. CYCLE   28 ..............................
........................................................................

 iter      E             dE          RMSdq      gap      omega  full diag
   1   -337.7123567 -0.337712E+03  0.201E-02    1.35       0.0  T
   2   -337.7123582 -0.147413E-05  0.121E-02    1.35       1.0  T
   3   -337.7123409  0.173173E-04  0.783E-03    1.35       1.0  T
   4   -337.7123599 -0.190611E-04  0.173E-03    1.35       3.9  T
   5   -337.7123607 -0.791565E-06  0.726E-04    1.35       9.2  T
   6   -337.7123608 -0.583129E-07  0.448E-04    1.35      14.9  T
     SCC iter.                  ...        0 min,  0.867 sec
     gradient                   ...        0 min,  0.200 sec
 * total energy  :  -332.8115577 Eh     change       -0.8977162E-04 Eh
   gradient norm :     0.0027989 Eh/α   predicted    -0.6403071E-04 ( -28.67%)
   displ. norm   :     0.3904415 α      lambda       -0.1080886E-03
   maximum displ.:     0.1854005 α      in ANC's #18, #3, #20, ...

........................................................................
.............................. CYCLE   29 ..............................
........................................................................

 iter      E             dE          RMSdq      gap      omega  full diag
   1   -337.7135209 -0.337714E+03  0.207E-02    1.34       0.0  T
   2   -337.7135224 -0.151774E-05  0.125E-02    1.35       1.0  T
   3   -337.7135017  0.206345E-04  0.867E-03    1.35       1.0  T
   4   -337.7135248 -0.230121E-04  0.182E-03    1.35       3.7  T
   5   -337.7135256 -0.862336E-06  0.779E-04    1.35       8.6  T
   6   -337.7135257 -0.669844E-07  0.477E-04    1.35      14.0  T
     SCC iter.                  ...        0 min,  1.122 sec
     gradient                   ...        0 min,  0.220 sec
 * total energy  :  -332.8116424 Eh     change       -0.8473437E-04 Eh
   gradient norm :     0.0025321 Eh/α   predicted    -0.6228326E-04 ( -26.50%)
   displ. norm   :     0.3675361 α      lambda       -0.9113196E-04
   maximum displ.:     0.1778394 α      in ANC's #18, #3, #19, ...

........................................................................
.............................. CYCLE   30 ..............................
........................................................................

 iter      E             dE          RMSdq      gap      omega  full diag
   1   -337.7143090 -0.337714E+03  0.194E-02    1.34       0.0  T
   2   -337.7143106 -0.164323E-05  0.117E-02    1.34       1.0  T
   3   -337.7142959  0.146778E-04  0.745E-03    1.34       1.0  T
   4   -337.7143124 -0.164757E-04  0.161E-03    1.34       4.2  T
   5   -337.7143130 -0.630368E-06  0.730E-04    1.34       9.2  T
   6   -337.7143131 -0.581272E-07  0.439E-04    1.34      15.2  T
     SCC iter.                  ...        0 min,  0.994 sec
     gradient                   ...        0 min,  0.198 sec
 * total energy  :  -332.8117138 Eh     change       -0.7141955E-04 Eh
   gradient norm :     0.0024760 Eh/α   predicted    -0.5174006E-04 ( -27.55%)
   displ. norm   :     0.3262200 α      lambda       -0.7482371E-04
   maximum displ.:     0.1598469 α      in ANC's #18, #3, #19, ...

........................................................................
.............................. CYCLE   31 ..............................
........................................................................

 iter      E             dE          RMSdq      gap      omega  full diag
   1   -337.7146670 -0.337715E+03  0.170E-02    1.34       0.0  T
   2   -337.7146685 -0.153553E-05  0.102E-02    1.34       1.0  T
   3   -337.7146600  0.845139E-05  0.586E-03    1.34       1.1  T
   4   -337.7146697 -0.969785E-05  0.125E-03    1.34       5.4  T
   5   -337.7146700 -0.314117E-06  0.624E-04    1.34      10.7  T
   6   -337.7146701 -0.420566E-07  0.372E-04    1.34      18.0  T
     SCC iter.                  ...        0 min,  0.702 sec
     gradient                   ...        0 min,  0.213 sec
 * total energy  :  -332.8117717 Eh     change       -0.5785837E-04 Eh
   gradient norm :     0.0020600 Eh/α   predicted    -0.4139418E-04 ( -28.46%)
   displ. norm   :     0.2748752 α      lambda       -0.5842250E-04
   maximum displ.:     0.1354499 α      in ANC's #18, #3, #15, ...

........................................................................
.............................. CYCLE   32 ..............................
........................................................................

 iter      E             dE          RMSdq      gap      omega  full diag
   1   -337.7146466 -0.337715E+03  0.137E-02    1.34       0.0  T
   2   -337.7146476 -0.105630E-05  0.828E-03    1.34       1.0  T
   3   -337.7146420  0.562141E-05  0.482E-03    1.34       1.4  T
   4   -337.7146484 -0.640290E-05  0.110E-03    1.34       6.1  T
   5   -337.7146487 -0.260518E-06  0.529E-04    1.34      12.6  T
   6   -337.7146487 -0.308241E-07  0.320E-04    1.34      20.9  T
     SCC iter.                  ...        0 min,  1.371 sec
     gradient                   ...        0 min,  0.208 sec
 * total energy  :  -332.8118166 Eh     change       -0.4494234E-04 Eh
   gradient norm :     0.0017084 Eh/α   predicted    -0.3142634E-04 ( -30.07%)
   displ. norm   :     0.3609933 α      lambda       -0.5005549E-04
   maximum displ.:     0.1757331 α      in ANC's #18, #3, #15, ...

........................................................................
.............................. CYCLE   33 ..............................
........................................................................

 iter      E             dE          RMSdq      gap      omega  full diag
   1   -337.7141905 -0.337714E+03  0.169E-02    1.34       0.0  T
   2   -337.7141918 -0.135183E-05  0.102E-02    1.34       1.0  T
   3   -337.7141807  0.111512E-04  0.661E-03    1.34       1.0  T
   4   -337.7141931 -0.123809E-04  0.157E-03    1.34       4.3  T
   5   -337.7141937 -0.605252E-06  0.708E-04    1.34       9.4  T
   6   -337.7141937 -0.424457E-07  0.455E-04    1.34      14.7  T
     SCC iter.                  ...        0 min,  0.753 sec
     gradient                   ...        0 min,  0.205 sec
 * total energy  :  -332.8118672 Eh     change       -0.5060666E-04 Eh
   gradient norm :     0.0023048 Eh/α   predicted    -0.2647820E-04 ( -47.68%)
   displ. norm   :     0.1520722 α      lambda       -0.3670440E-04
   maximum displ.:     0.0704273 α      in ANC's #18, #3, #15, ...

........................................................................
.............................. CYCLE   34 ..............................
........................................................................

 iter      E             dE          RMSdq      gap      omega  full diag
   1   -337.7139738 -0.337714E+03  0.681E-03    1.34       0.0  T
   2   -337.7139739 -0.836848E-07  0.418E-03    1.34       1.6  T
   3   -337.7139710  0.288772E-05  0.315E-03    1.34       2.1  T
   4   -337.7139742 -0.313203E-05  0.713E-04    1.34       9.4  T
   5   -337.7139743 -0.121303E-06  0.348E-04    1.34      19.2  T
   6   -337.7139743 -0.267528E-08  0.240E-04    1.34      27.9  T
     SCC iter.                  ...        0 min,  1.105 sec
     gradient                   ...        0 min,  0.343 sec
 * total energy  :  -332.8118999 Eh     change       -0.3270081E-04 Eh
   gradient norm :     0.0022089 Eh/α   predicted    -0.1877666E-04 ( -42.58%)
   displ. norm   :     0.3647276 α      lambda       -0.9714047E-04
   maximum displ.:     0.1569836 α      in ANC's #18, #3, #15, ...

........................................................................
.............................. CYCLE   35 ..............................
........................................................................

 iter      E             dE          RMSdq      gap      omega  full diag
   1   -337.7136777 -0.337714E+03  0.177E-02    1.34       0.0  T
   2   -337.7136780 -0.267635E-06  0.108E-02    1.34       1.0  T
   3   -337.7136584  0.195958E-04  0.795E-03    1.34       1.0  T
   4   -337.7136793 -0.209536E-04  0.163E-03    1.34       4.1  T
   5   -337.7136800 -0.641199E-06  0.801E-04    1.34       8.3  T
   6   -337.7136800 -0.168624E-07  0.542E-04    1.34      12.3  T
     SCC iter.                  ...        0 min,  1.029 sec
     gradient                   ...        0 min,  0.274 sec
 * total energy  :  -332.8119709 Eh     change       -0.7100969E-04 Eh
   gradient norm :     0.0020828 Eh/α   predicted    -0.5503564E-04 ( -22.50%)
   displ. norm   :     0.3244413 α      lambda       -0.5694786E-04
   maximum displ.:     0.1437172 α      in ANC's #18, #3, #15, ...

........................................................................
.............................. CYCLE   36 ..............................
........................................................................

 iter      E             dE          RMSdq      gap      omega  full diag
   1   -337.7129716 -0.337713E+03  0.150E-02    1.34       0.0  T
   2   -337.7129719 -0.256252E-06  0.915E-03    1.34       1.0  T
   3   -337.7129588  0.130533E-04  0.666E-03    1.34       1.0  T
   4   -337.7129727 -0.138950E-04  0.146E-03    1.34       4.6  T
   5   -337.7129733 -0.583739E-06  0.670E-04    1.34      10.0  T
   6   -337.7129733 -0.186649E-07  0.448E-04    1.34      14.9  T
     SCC iter.                  ...        0 min,  1.058 sec
     gradient                   ...        0 min,  0.204 sec
 * total energy  :  -332.8120136 Eh     change       -0.4261283E-04 Eh
   gradient norm :     0.0021597 Eh/α   predicted    -0.3147442E-04 ( -26.14%)
   displ. norm   :     0.2988121 α      lambda       -0.5004979E-04
   maximum displ.:     0.1284696 α      in ANC's #3, #18, #15, ...

........................................................................
.............................. CYCLE   37 ..............................
........................................................................

 iter      E             dE          RMSdq      gap      omega  full diag
   1   -337.7134331 -0.337713E+03  0.137E-02    1.34       0.0  T
   2   -337.7134333 -0.185180E-06  0.840E-03    1.34       1.0  T
   3   -337.7134228  0.104932E-04  0.619E-03    1.34       1.1  T
   4   -337.7134341 -0.113016E-04  0.130E-03    1.34       5.1  T
   5   -337.7134346 -0.499049E-06  0.553E-04    1.34      12.1  T
   6   -337.7134346 -0.231806E-07  0.364E-04    1.34      18.4  T
     SCC iter.                  ...        0 min,  0.914 sec
     gradient                   ...        0 min,  0.207 sec
 * total energy  :  -332.8120532 Eh     change       -0.3966253E-04 Eh
   gradient norm :     0.0019861 Eh/α   predicted    -0.2726201E-04 ( -31.27%)
   displ. norm   :     0.5226993 α      lambda       -0.6079399E-04
   maximum displ.:     0.2322692 α      in ANC's #3, #18, #15, ...

........................................................................
.............................. CYCLE   38 ..............................
........................................................................

 iter      E             dE          RMSdq      gap      omega  full diag
   1   -337.7137735 -0.337714E+03  0.240E-02    1.34       0.0  T
   2   -337.7137745 -0.103862E-05  0.146E-02    1.34       1.0  T
   3   -337.7137489  0.255968E-04  0.995E-03    1.34       1.0  T
   4   -337.7137764 -0.274931E-04  0.211E-03    1.34       3.2  T
   5   -337.7137778 -0.135489E-05  0.880E-04    1.34       7.6  T
   6   -337.7137779 -0.817235E-07  0.549E-04    1.34      12.2  T
   7   -337.7137779 -0.171257E-07  0.304E-04    1.34      21.9  T
     SCC iter.                  ...        0 min,  0.940 sec
     gradient                   ...        0 min,  0.209 sec
 * total energy  :  -332.8121142 Eh     change       -0.6100406E-04 Eh
   gradient norm :     0.0022372 Eh/α   predicted    -0.3409152E-04 ( -44.12%)
   displ. norm   :     0.2098274 α      lambda       -0.3783740E-04
   maximum displ.:     0.0953998 α      in ANC's #3, #18, #15, ...

........................................................................
.............................. CYCLE   39 ..............................
........................................................................

 iter      E             dE          RMSdq      gap      omega  full diag
   1   -337.7146808 -0.337715E+03  0.988E-03    1.34       0.0  T
   2   -337.7146811 -0.282872E-06  0.590E-03    1.34       1.1  T
   3   -337.7146794  0.169486E-05  0.267E-03    1.34       2.5  T
   4   -337.7146812 -0.177351E-05  0.720E-04    1.34       9.3  T
   5   -337.7146813 -0.123805E-06  0.379E-04    1.34      17.6  T
   6   -337.7146813 -0.217733E-07  0.215E-04    1.34      31.1  T
     SCC iter.                  ...        0 min,  0.831 sec
     gradient                   ...        0 min,  0.206 sec
 * total energy  :  -332.8121464 Eh     change       -0.3216488E-04 Eh
   gradient norm :     0.0019074 Eh/α   predicted    -0.1975201E-04 ( -38.59%)
   displ. norm   :     0.6197477 α      lambda       -0.6900390E-04
   maximum displ.:     0.2819583 α      in ANC's #3, #18, #15, ...

........................................................................
.............................. CYCLE   40 ..............................
........................................................................

 iter      E             dE          RMSdq      gap      omega  full diag
   1   -337.7138198 -0.337714E+03  0.296E-02    1.34       0.0  T
   2   -337.7138220 -0.216210E-05  0.176E-02    1.34       1.0  T
   3   -337.7138087  0.132511E-04  0.742E-03    1.34       1.0  T
   4   -337.7138232 -0.144810E-04  0.165E-03    1.34       4.0  T
   5   -337.7138237 -0.477211E-06  0.917E-04    1.34       7.3  T
   6   -337.7138238 -0.690060E-07  0.558E-04    1.34      12.0  T
     SCC iter.                  ...        0 min,  0.844 sec
     gradient                   ...        0 min,  0.212 sec
 * total energy  :  -332.8122075 Eh     change       -0.6113394E-04 Eh
   gradient norm :     0.0023675 Eh/α   predicted    -0.4039624E-04 ( -33.92%)
   displ. norm   :     0.1854477 α      lambda       -0.2741447E-04
   maximum displ.:     0.0832007 α      in ANC's #3, #15, #18, ...

........................................................................
.............................. CYCLE   41 ..............................
........................................................................

 iter      E             dE          RMSdq      gap      omega  full diag
   1   -337.7148873 -0.337715E+03  0.829E-03    1.34       0.0  T
   2   -337.7148876 -0.257569E-06  0.494E-03    1.34       1.4  T
   3   -337.7148858  0.180642E-05  0.270E-03    1.34       2.5  T
   4   -337.7148877 -0.192794E-05  0.668E-04    1.34      10.0  T
   5   -337.7148878 -0.106236E-06  0.319E-04    1.34      21.0  T
   6   -337.7148878 -0.150197E-07  0.179E-04    1.34      37.4  T
     SCC iter.                  ...        0 min,  0.958 sec
     gradient                   ...        0 min,  0.205 sec
 * total energy  :  -332.8122295 Eh     change       -0.2194518E-04 Eh
   gradient norm :     0.0020042 Eh/α   predicted    -0.1418200E-04 ( -35.38%)
   displ. norm   :     0.3452224 α      lambda       -0.4572277E-04
   maximum displ.:     0.1588121 α      in ANC's #3, #18, #15, ...

........................................................................
.............................. CYCLE   42 ..............................
........................................................................

 iter      E             dE          RMSdq      gap      omega  full diag
   1   -337.7146896 -0.337715E+03  0.149E-02    1.34       0.0  T
   2   -337.7146897 -0.905318E-07  0.905E-03    1.34       1.0  T
   3   -337.7146771  0.126385E-04  0.688E-03    1.34       1.0  T
   4   -337.7146911 -0.140386E-04  0.103E-03    1.34       6.5  T
   5   -337.7146914 -0.253173E-06  0.470E-04    1.34      14.2  T
   6   -337.7146914 -0.239477E-07  0.283E-04    1.34      23.6  T
     SCC iter.                  ...        0 min,  0.929 sec
     gradient                   ...        0 min,  0.207 sec
 * total energy  :  -332.8122641 Eh     change       -0.3457805E-04 Eh
   gradient norm :     0.0014247 Eh/α   predicted    -0.2558736E-04 ( -26.00%)
   displ. norm   :     0.4334919 α      lambda       -0.3009864E-04
   maximum displ.:     0.2001719 α      in ANC's #3, #15, #18, ...
 * RMSD in coord.:     0.4070542 α      energy gain  -0.1545587E-02 Eh

generating ANC from model Hessian ...
Using Lindh-Hessian (1995)
 Shifting diagonal of input Hessian by    1.0032025588791115E-002
 Lowest  eigenvalues of input Hessian
    0.010000    0.010010    0.010021    0.000000    0.000000    0.000000
    0.000000    0.000000    0.000000    0.010033    0.010063    0.010091
    0.010093    0.010110    0.010119    0.010122    0.010128    0.010181
 Highest eigenvalues
    2.194165    2.209665    2.375828    2.376401    2.377694    2.396803


........................................................................
.............................. CYCLE   43 ..............................
........................................................................

 iter      E             dE          RMSdq      gap      omega  full diag
   1   -337.7144330 -0.337714E+03  0.190E-02    1.34       0.0  T
   2   -337.7144333 -0.293245E-06  0.114E-02    1.34       1.0  T
   3   -337.7144169  0.164068E-04  0.754E-03    1.34       1.0  T
   4   -337.7144347 -0.177340E-04  0.122E-03    1.34       5.5  T
   5   -337.7144350 -0.332647E-06  0.610E-04    1.34      11.0  T
   6   -337.7144350 -0.268965E-07  0.380E-04    1.34      17.6  T
     SCC iter.                  ...        0 min,  0.887 sec
     gradient                   ...        0 min,  0.207 sec
 * total energy  :  -332.8122921 Eh     change       -0.2800141E-04 Eh
   gradient norm :     0.0017449 Eh/α   predicted     0.0000000E+00 (-100.00%)
   displ. norm   :     0.0386080 α      lambda       -0.1155584E-04
   maximum displ.:     0.0094958 α      in ANC's #12, #15, #18, ...

........................................................................
.............................. CYCLE   44 ..............................
........................................................................

 iter      E             dE          RMSdq      gap      omega  full diag
   1   -337.7147030 -0.337715E+03  0.358E-03    1.34       0.0  T
   2   -337.7147029  0.847834E-07  0.257E-03    1.34       2.6  T
   3   -337.7147032 -0.276693E-06  0.173E-03    1.34       3.9  T
   4   -337.7147036 -0.360338E-06  0.575E-04    1.34      11.6  T
   5   -337.7147036 -0.860338E-07  0.258E-04    1.34      25.9  T
     SCC iter.                  ...        0 min,  0.625 sec
     gradient                   ...        0 min,  0.204 sec
 * total energy  :  -332.8123080 Eh     change       -0.1594066E-04 Eh
   gradient norm :     0.0006276 Eh/α   predicted    -0.6627724E-05 ( -58.42%)
   displ. norm   :     0.1099946 α      lambda       -0.1966676E-04
   maximum displ.:     0.0307146 α      in ANC's #12, #15, #18, ...

........................................................................
.............................. CYCLE   45 ..............................
........................................................................

 iter      E             dE          RMSdq      gap      omega  full diag
   1   -337.7151665 -0.337715E+03  0.738E-03    1.35       0.0  T
   2   -337.7151666 -0.123279E-06  0.470E-03    1.35       1.4  T
   3   -337.7151647  0.193983E-05  0.372E-03    1.35       1.8  T
   4   -337.7151674 -0.279232E-05  0.942E-04    1.35       7.1  T
   5   -337.7151677 -0.266120E-06  0.367E-04    1.35      18.2  T
   6   -337.7151677 -0.210317E-07  0.211E-04    1.35      31.6  T
     SCC iter.                  ...        0 min,  0.780 sec
     gradient                   ...        0 min,  0.206 sec
 * total energy  :  -332.8123297 Eh     change       -0.2172574E-04 Eh
   gradient norm :     0.0012406 Eh/α   predicted    -0.1114570E-04 ( -48.70%)
   displ. norm   :     0.1000322 α      lambda       -0.1128319E-04
   maximum displ.:     0.0309631 α      in ANC's #12, #15, #18, ...

........................................................................
.............................. CYCLE   46 ..............................
........................................................................

 iter      E             dE          RMSdq      gap      omega  full diag
   1   -337.7153434 -0.337715E+03  0.528E-03    1.35       0.0  T
   2   -337.7153435 -0.180080E-06  0.326E-03    1.35       2.1  T
   3   -337.7153425  0.103088E-05  0.236E-03    1.35       2.8  T
   4   -337.7153437 -0.118508E-05  0.704E-04    1.35       9.5  T
   5   -337.7153439 -0.158863E-06  0.248E-04    1.35      26.9  T
   6   -337.7153439 -0.718370E-08  0.148E-04    1.35      45.2  T
     SCC iter.                  ...        0 min,  0.829 sec
     gradient                   ...        0 min,  0.256 sec
 * total energy  :  -332.8123438 Eh     change       -0.1404266E-04 Eh
   gradient norm :     0.0014749 Eh/α   predicted    -0.5714072E-05 ( -59.31%)
   displ. norm   :     0.2333141 α      lambda       -0.2512833E-04
   maximum displ.:     0.0743444 α      in ANC's #12, #15, #18, ...

........................................................................
.............................. CYCLE   47 ..............................
........................................................................

 iter      E             dE          RMSdq      gap      omega  full diag
   1   -337.7154047 -0.337715E+03  0.112E-02    1.35       0.0  T
   2   -337.7154054 -0.675316E-06  0.696E-03    1.35       1.0  T
   3   -337.7154002  0.521730E-05  0.520E-03    1.35       1.3  T
   4   -337.7154063 -0.611745E-05  0.145E-03    1.35       4.6  T
   5   -337.7154069 -0.677412E-06  0.494E-04    1.35      13.5  T
   6   -337.7154070 -0.250768E-07  0.304E-04    1.35      22.0  T
     SCC iter.                  ...        0 min,  0.860 sec
     gradient                   ...        0 min,  0.210 sec
 * total energy  :  -332.8123729 Eh     change       -0.2910399E-04 Eh
   gradient norm :     0.0013171 Eh/α   predicted    -0.1286871E-04 ( -55.78%)
   displ. norm   :     0.3069427 α      lambda       -0.2835895E-04
   maximum displ.:     0.1009729 α      in ANC's #12, #15, #3, ...

........................................................................
.............................. CYCLE   48 ..............................
........................................................................

 iter      E             dE          RMSdq      gap      omega  full diag
   1   -337.7152463 -0.337715E+03  0.141E-02    1.35       0.0  T
   2   -337.7152471 -0.893862E-06  0.873E-03    1.35       1.0  T
   3   -337.7152385  0.862199E-05  0.658E-03    1.35       1.0  T
   4   -337.7152487 -0.101311E-04  0.178E-03    1.35       3.8  T
   5   -337.7152496 -0.992535E-06  0.647E-04    1.35      10.3  T
   6   -337.7152497 -0.297362E-07  0.422E-04    1.35      15.8  T
     SCC iter.                  ...        0 min,  0.886 sec
     gradient                   ...        0 min,  0.203 sec
 * total energy  :  -332.8124048 Eh     change       -0.3195338E-04 Eh
   gradient norm :     0.0009806 Eh/α   predicted    -0.1483305E-04 ( -53.58%)
   displ. norm   :     0.3097892 α      lambda       -0.2537021E-04
   maximum displ.:     0.1045420 α      in ANC's #12, #1, #3, ...

........................................................................
.............................. CYCLE   49 ..............................
........................................................................

 iter      E             dE          RMSdq      gap      omega  full diag
   1   -337.7152582 -0.337715E+03  0.134E-02    1.35       0.0  T
   2   -337.7152590 -0.839371E-06  0.819E-03    1.35       1.0  T
   3   -337.7152516  0.736239E-05  0.575E-03    1.35       1.2  T
   4   -337.7152599 -0.829018E-05  0.149E-03    1.35       4.5  T
   5   -337.7152606 -0.697138E-06  0.538E-04    1.35      12.4  T
   6   -337.7152607 -0.270300E-07  0.330E-04    1.35      20.2  T
     SCC iter.                  ...        0 min,  0.698 sec
     gradient                   ...        0 min,  0.206 sec
 * total energy  :  -332.8124338 Eh     change       -0.2901942E-04 Eh
   gradient norm :     0.0009209 Eh/α   predicted    -0.1322783E-04 ( -54.42%)
   displ. norm   :     0.3211930 α      lambda       -0.2609556E-04
   maximum displ.:     0.1099369 α      in ANC's #12, #1, #3, ...

........................................................................
.............................. CYCLE   50 ..............................
........................................................................

 iter      E             dE          RMSdq      gap      omega  full diag
   1   -337.7153337 -0.337715E+03  0.137E-02    1.35       0.0  T
   2   -337.7153345 -0.848608E-06  0.822E-03    1.35       1.0  T
   3   -337.7153294  0.514469E-05  0.475E-03    1.35       1.4  T
   4   -337.7153352 -0.578127E-05  0.114E-03    1.35       5.9  T
   5   -337.7153355 -0.312632E-06  0.575E-04    1.35      11.6  T
   6   -337.7153355 -0.350641E-07  0.351E-04    1.35      19.0  T
     SCC iter.                  ...        0 min,  0.707 sec
     gradient                   ...        0 min,  0.201 sec
 * total energy  :  -332.8124645 Eh     change       -0.3068799E-04 Eh
   gradient norm :     0.0011047 Eh/α   predicted    -0.1365371E-04 ( -55.51%)
   displ. norm   :     0.3818528 α      lambda       -0.3108962E-04
   maximum displ.:     0.1298954 α      in ANC's #12, #1, #2, ...

........................................................................
.............................. CYCLE   51 ..............................
........................................................................

 iter      E             dE          RMSdq      gap      omega  full diag
   1   -337.7153375 -0.337715E+03  0.164E-02    1.35       0.0  T
   2   -337.7153385 -0.988555E-06  0.978E-03    1.35       1.0  T
   3   -337.7153317  0.673212E-05  0.535E-03    1.35       1.2  T
   4   -337.7153392 -0.750853E-05  0.118E-03    1.35       5.7  T
   5   -337.7153396 -0.327251E-06  0.594E-04    1.35      11.2  T
   6   -337.7153396 -0.384782E-07  0.345E-04    1.35      19.4  T
     SCC iter.                  ...        0 min,  0.677 sec
     gradient                   ...        0 min,  0.204 sec
 * total energy  :  -332.8125017 Eh     change       -0.3721046E-04 Eh
   gradient norm :     0.0011385 Eh/α   predicted    -0.1655592E-04 ( -55.51%)
   displ. norm   :     0.4726192 α      lambda       -0.3932580E-04
   maximum displ.:     0.1571584 α      in ANC's #12, #1, #2, ...

........................................................................
.............................. CYCLE   52 ..............................
........................................................................

 iter      E             dE          RMSdq      gap      omega  full diag
   1   -337.7152840 -0.337715E+03  0.209E-02    1.35       0.0  T
   2   -337.7152852 -0.115720E-05  0.125E-02    1.35       1.0  T
   3   -337.7152708  0.143607E-04  0.741E-03    1.35       1.0  T
   4   -337.7152864 -0.155883E-04  0.161E-03    1.35       4.1  T
   5   -337.7152871 -0.668444E-06  0.756E-04    1.35       8.8  T
   6   -337.7152871 -0.419590E-07  0.454E-04    1.35      14.7  T
     SCC iter.                  ...        0 min,  0.678 sec
     gradient                   ...        0 min,  0.210 sec
 * total energy  :  -332.8125493 Eh     change       -0.4760097E-04 Eh
   gradient norm :     0.0012415 Eh/α   predicted    -0.2162866E-04 ( -54.56%)
   displ. norm   :     0.5617692 α      lambda       -0.4846936E-04
   maximum displ.:     0.1914291 α      in ANC's #1, #2, #3, ...

........................................................................
.............................. CYCLE   53 ..............................
........................................................................

 iter      E             dE          RMSdq      gap      omega  full diag
   1   -337.7151425 -0.337715E+03  0.256E-02    1.36       0.0  T
   2   -337.7151438 -0.124200E-05  0.154E-02    1.36       1.0  T
   3   -337.7151170  0.267527E-04  0.991E-03    1.36       1.0  T
   4   -337.7151459 -0.289153E-04  0.206E-03    1.36       3.2  T
   5   -337.7151470 -0.102669E-05  0.992E-04    1.36       6.7  T
   6   -337.7151470 -0.301359E-07  0.624E-04    1.36      10.7  T
   7   -337.7151470 -0.155934E-07  0.334E-04    1.36      20.0  T
     SCC iter.                  ...        0 min,  0.834 sec
     gradient                   ...        0 min,  0.208 sec
 * total energy  :  -332.8126094 Eh     change       -0.6002659E-04 Eh
   gradient norm :     0.0016077 Eh/α   predicted    -0.2763596E-04 ( -53.96%)
   displ. norm   :     0.6415450 α      lambda       -0.6223172E-04
   maximum displ.:     0.2272646 α      in ANC's #1, #2, #3, ...

........................................................................
.............................. CYCLE   54 ..............................
........................................................................

 iter      E             dE          RMSdq      gap      omega  full diag
   1   -337.7152537 -0.337715E+03  0.299E-02    1.36       0.0  T
   2   -337.7152547 -0.100796E-05  0.180E-02    1.36       1.0  T
   3   -337.7152108  0.439365E-04  0.123E-02    1.36       1.0  T
   4   -337.7152579 -0.471649E-04  0.233E-03    1.36       2.9  T
   5   -337.7152594 -0.145353E-05  0.101E-03    1.36       6.6  T
   6   -337.7152594 -0.489555E-07  0.644E-04    1.36      10.4  T
   7   -337.7152595 -0.249802E-07  0.350E-04    1.36      19.1  T
     SCC iter.                  ...        0 min,  0.831 sec
     gradient                   ...        0 min,  0.211 sec
 * total energy  :  -332.8126873 Eh     change       -0.7789828E-04 Eh
   gradient norm :     0.0018377 Eh/α   predicted    -0.3681411E-04 ( -52.74%)
   displ. norm   :     0.7427721 α      lambda       -0.7802976E-04
   maximum displ.:     0.2714273 α      in ANC's #1, #2, #3, ...

........................................................................
.............................. CYCLE   55 ..............................
........................................................................

 iter      E             dE          RMSdq      gap      omega  full diag
   1   -337.7145437 -0.337715E+03  0.347E-02    1.36       0.0  T
   2   -337.7145455 -0.178230E-05  0.208E-02    1.36       1.0  T
   3   -337.7144990  0.465016E-04  0.130E-02    1.36       1.0  T
   4   -337.7145488 -0.497745E-04  0.276E-03    1.36       2.4  T
   5   -337.7145504 -0.167344E-05  0.144E-03    1.36       4.7  T
   6   -337.7145505 -0.421746E-07  0.932E-04    1.36       7.2  T
   7   -337.7145505 -0.298086E-07  0.507E-04    1.36      13.2  T
     SCC iter.                  ...        0 min,  0.744 sec
     gradient                   ...        0 min,  0.215 sec
 * total energy  :  -332.8127882 Eh     change       -0.1009412E-03 Eh
   gradient norm :     0.0025116 Eh/α   predicted    -0.4858616E-04 ( -51.87%)
   displ. norm   :     0.5276202 α      lambda       -0.1097671E-03
   maximum displ.:     0.2007853 α      in ANC's #1, #3, #2, ...

........................................................................
.............................. CYCLE   56 ..............................
........................................................................

 iter      E             dE          RMSdq      gap      omega  full diag
   1   -337.7158128 -0.337716E+03  0.250E-02    1.35       0.0  T
   2   -337.7158135 -0.710765E-06  0.150E-02    1.35       1.0  T
   3   -337.7157883  0.251246E-04  0.931E-03    1.35       1.0  T
   4   -337.7158150 -0.266366E-04  0.187E-03    1.35       3.6  T
   5   -337.7158158 -0.840637E-06  0.941E-04    1.35       7.1  T
   6   -337.7158159 -0.764155E-07  0.594E-04    1.35      11.3  T
     SCC iter.                  ...        0 min,  0.832 sec
     gradient                   ...        0 min,  0.204 sec
 * total energy  :  -332.8128845 Eh     change       -0.9629889E-04 Eh
   gradient norm :     0.0020606 Eh/α   predicted    -0.7016697E-04 ( -27.14%)
   displ. norm   :     0.6519945 α      lambda       -0.1455143E-03
   maximum displ.:     0.2517821 α      in ANC's #1, #3, #2, ...

........................................................................
.............................. CYCLE   57 ..............................
........................................................................

 iter      E             dE          RMSdq      gap      omega  full diag
   1   -337.7150585 -0.337715E+03  0.304E-02    1.36       0.0  T
   2   -337.7150601 -0.154534E-05  0.182E-02    1.36       1.0  T
   3   -337.7150379  0.221422E-04  0.927E-03    1.36       1.0  T
   4   -337.7150618 -0.238726E-04  0.191E-03    1.36       3.5  T
   5   -337.7150626 -0.783842E-06  0.105E-03    1.36       6.4  T
   6   -337.7150627 -0.719249E-07  0.660E-04    1.36      10.1  T
[...]
molecular quadrupole (traceless):
                xx          xy          yy          xz          yz          zz
 q only:      -53.652      -7.656      28.398      28.555     -12.449      25.254
  q+dip:      -45.196     -11.988      40.070      35.956     -10.100       5.126
   full:      -51.186      -9.944      33.048      26.462     -12.678      18.138

           -------------------------------------------------
          |                Geometry Summary                 |
           -------------------------------------------------

      molecular mass/u    :     1616.1044446
   center of mass at/Å    :       -0.7929005       1.0315870       3.6581770
  moments of inertia/u·Å² :        0.2288652E+05   0.5578828E+05   0.6328668E+05
rotational constants/cm⁻¹ :        0.7365747E-03   0.3021716E-03   0.2663694E-03

 * 224 selected distances

     #   Z          #   Z                                           value/Å
     1   6 C        2   6 C                                       1.3685036
     2   6 C        3   6 C                                       1.4084732
     3   6 C        4   6 C                                       1.3821868
     4   6 C        5   6 C                                       1.3979525
     1   6 C        6   6 C                                       1.4068893
     5   6 C        6   6 C                                       1.4146747
     7   6 C        8   6 C                                       1.4131344
     8   6 C        9   6 C                                       1.4222161
     6   6 C       10   6 C                                       1.4205721
     9   6 C       10   6 C                                       1.3559337
     7   6 C       11   6 C                                       1.4163587
    11   6 C       12   6 C                                       1.4099447
    12   6 C       13   6 C                                       1.3970057
     8   6 C       14   6 C                                       1.4111049
    13   6 C       14   6 C                                       1.3676188
    11   6 C       15   6 C                                       1.4429133
    15   6 C       16   6 C                                       1.4143653
    15   6 C       17   6 C                                       1.4165627
    17   6 C       18   6 C                                       1.4137756
    18   6 C       19   6 C                                       1.4093880
    16   6 C       20   6 C                                       1.3949653
    19   6 C       20   6 C                                       1.3684623
    21   6 C       22   6 C                                       1.4140051
    22   6 C       23   6 C                                       1.4182591
    18   6 C       24   6 C                                       1.4214087
    23   6 C       24   6 C                                       1.3543382
    25   6 C       26   6 C                                       1.4109478
    22   6 C       27   6 C                                       1.4051638
    26   6 C       27   6 C                                       1.3672405
    21   6 C       28   6 C                                       1.3984013
    25   6 C       28   6 C                                       1.3867335
    31   6 C       32   6 C                                       1.5415396
    31   6 C       33   6 C                                       1.5244269
    31   6 C       34   6 C                                       1.5330988
    32   6 C       35   6 C                                       1.5249126
    32   6 C       36   6 C                                       1.5327967
    37   6 C       38   6 C                                       1.5383523
    37   6 C       39   6 C                                       1.5236806
    37   6 C       40   6 C                                       1.5341316
    38   6 C       41   6 C                                       1.5322623
    38   6 C       42   6 C                                       1.5246835
    12   6 C       43   7 N                                       1.3735697
    16   6 C       43   7 N                                       1.3726523
    44  14 Si      45   6 C                                       1.9067762
    45   6 C       46   6 C                                       1.5171042
    46   6 C       47   8 O                                       1.4109955
    44  14 Si      48   6 C                                       1.9055462
    44  14 Si      49   6 C                                       1.9131192
    44  14 Si      50   6 C                                       1.9134635
    43   7 N       51   6 C                                       1.4277696
    47   8 O       51   6 C                                       1.4001990
    30   6 C       52   7 N                                       1.3405488
    32   6 C       52   7 N                                       1.4793006
    30   6 C       54   7 N                                       1.3377599
    31   6 C       54   7 N                                       1.4751484
    29   6 C       56   7 N                                       1.3456973
    37   6 C       56   7 N                                       1.4793716
    29   6 C       58   7 N                                       1.3444492
    38   6 C       58   7 N                                       1.4797014
    39   6 C       60   1 H                                       1.0845248
    39   6 C       61   1 H                                       1.0863784
    39   6 C       62   1 H                                       1.0875226
    40   6 C       63   1 H                                       1.0878560
    40   6 C       64   1 H                                       1.0882087
    40   6 C       65   1 H                                       1.0859939
    42   6 C       66   1 H                                       1.0853787
    42   6 C       67   1 H                                       1.0863483
    42   6 C       68   1 H                                       1.0874658
    41   6 C       69   1 H                                       1.0862269
    41   6 C       70   1 H                                       1.0883381
    41   6 C       71   1 H                                       1.0861969
    45   6 C       72   1 H                                       1.0876432
    45   6 C       73   1 H                                       1.0898028
    46   6 C       74   1 H                                       1.1025051
    46   6 C       75   1 H                                       1.1004843
    51   6 C       76   1 H                                       1.1002583
    51   6 C       77   1 H                                       1.1079884
    50   6 C       78   1 H                                       1.0859536
    50   6 C       79   1 H                                       1.0853196
    50   6 C       80   1 H                                       1.0858233
    48   6 C       81   1 H                                       1.0846761
    48   6 C       82   1 H                                       1.0850836
    48   6 C       83   1 H                                       1.0857492
    49   6 C       84   1 H                                       1.0861742
    49   6 C       85   1 H                                       1.0860254
    49   6 C       86   1 H                                       1.0858732
    13   6 C       87   1 H                                       1.0781656
    14   6 C       88   1 H                                       1.0803861
     9   6 C       89   1 H                                       1.0811971
    10   6 C       90   1 H                                       1.0825015
    28   6 C       91   1 H                                       1.0752485
    26   6 C       92   1 H                                       1.0769926
    27   6 C       93   1 H                                       1.0813850
    23   6 C       94   1 H                                       1.0814541
    24   6 C       95   1 H                                       1.0818040
    19   6 C       96   1 H                                       1.0813697
    20   6 C       97   1 H                                       1.0791479
     4   6 C       98   1 H                                       1.0745150 (min)
     2   6 C       99   1 H                                       1.0771733
     1   6 C      100   1 H                                       1.0812222
    34   6 C      101   1 H                                       1.0879044
    34   6 C      102   1 H                                       1.0860568
    34   6 C      103   1 H                                       1.0884804
    33   6 C      104   1 H                                       1.0850920
    33   6 C      105   1 H                                       1.0874350
    33   6 C      106   1 H                                       1.0854103
    36   6 C      107   1 H                                       1.0878049
    36   6 C      108   1 H                                       1.0855132
    36   6 C      109   1 H                                       1.0881985
    35   6 C      110   1 H                                       1.0857411
    35   6 C      111   1 H                                       1.0876174
    35   6 C      112   1 H                                       1.0862372
   113   6 C      114   6 C                                       1.3652463
   114   6 C      115   6 C                                       1.4108214
   115   6 C      116   6 C                                       1.3876244
   116   6 C      117   6 C                                       1.4013456
   113   6 C      118   6 C                                       1.4051657
   117   6 C      118   6 C                                       1.4158860
   119   6 C      120   6 C                                       1.4159576
   120   6 C      121   6 C                                       1.4206481
   118   6 C      122   6 C                                       1.4188436
   121   6 C      122   6 C                                       1.3539435
   119   6 C      123   6 C                                       1.4193224
   123   6 C      124   6 C                                       1.4139200
   124   6 C      125   6 C                                       1.3959356
   120   6 C      126   6 C                                       1.4096357
   125   6 C      126   6 C                                       1.3662666
   127   6 C      128   6 C                                       1.4139532
   127   6 C      129   6 C                                       1.4193457
   129   6 C      130   6 C                                       1.4145113
   130   6 C      131   6 C                                       1.4089336
   128   6 C      132   6 C                                       1.3947440
   131   6 C      132   6 C                                       1.3671630
   133   6 C      134   6 C                                       1.4147389
   134   6 C      135   6 C                                       1.4182538
   130   6 C      136   6 C                                       1.4214330
   135   6 C      136   6 C                                       1.3533037
   137   6 C      138   6 C                                       1.4072379
   134   6 C      139   6 C                                       1.4038537
   138   6 C      139   6 C                                       1.3652923
   133   6 C      140   6 C                                       1.3998906
   137   6 C      140   6 C                                       1.3848837
   143   6 C      144   6 C                                       1.5378224
   143   6 C      145   6 C                                       1.5240076
   143   6 C      146   6 C                                       1.5316624
   144   6 C      147   6 C                                       1.5240737
   144   6 C      148   6 C                                       1.5339662
   149   6 C      150   6 C                                       1.5432368
   149   6 C      151   6 C                                       1.5258525
   149   6 C      152   6 C                                       1.5327975
   150   6 C      153   6 C                                       1.5319990
   150   6 C      154   6 C                                       1.5252925
   124   6 C      155   7 N                                       1.3717157
   128   6 C      155   7 N                                       1.3735143
   156  14 Si     157   6 C                                       1.9147055 (max)
   157   6 C      158   6 C                                       1.5159283
   158   6 C      159   8 O                                       1.4119142
   156  14 Si     160   6 C                                       1.9064700
   156  14 Si     161   6 C                                       1.9093944
   156  14 Si     162   6 C                                       1.9098710
   155   7 N      163   6 C                                       1.4226085
   159   8 O      163   6 C                                       1.4051260
   142   6 C      164   7 N                                       1.3459806
   144   6 C      164   7 N                                       1.4785170
   142   6 C      166   7 N                                       1.3449802
   143   6 C      166   7 N                                       1.4802503
   166   7 N      167   8 O                                       1.2616423
   141   6 C      168   7 N                                       1.3409655
   149   6 C      168   7 N                                       1.4786736
   141   6 C      170   7 N                                       1.3408530
   150   6 C      170   7 N                                       1.4767168
   151   6 C      172   1 H                                       1.0853932
   151   6 C      173   1 H                                       1.0861653
   151   6 C      174   1 H                                       1.0875183
   152   6 C      175   1 H                                       1.0872367
   152   6 C      176   1 H                                       1.0880763
   152   6 C      177   1 H                                       1.0857889
   154   6 C      178   1 H                                       1.0842409
   154   6 C      179   1 H                                       1.0862718
   154   6 C      180   1 H                                       1.0879072
   153   6 C      181   1 H                                       1.0853195
   153   6 C      182   1 H                                       1.0881252
   153   6 C      183   1 H                                       1.0857999
   157   6 C      184   1 H                                       1.0896907
   157   6 C      185   1 H                                       1.0896321
   158   6 C      186   1 H                                       1.1013415
   158   6 C      187   1 H                                       1.1010989
   163   6 C      188   1 H                                       1.1024636
   163   6 C      189   1 H                                       1.1040808
   162   6 C      190   1 H                                       1.0860686
   162   6 C      191   1 H                                       1.0860141
   162   6 C      192   1 H                                       1.0857620
   160   6 C      193   1 H                                       1.0854407
   160   6 C      194   1 H                                       1.0852275
   160   6 C      195   1 H                                       1.0854982
   161   6 C      196   1 H                                       1.0860205
   161   6 C      197   1 H                                       1.0857549
   161   6 C      198   1 H                                       1.0859710
   125   6 C      199   1 H                                       1.0787587
   126   6 C      200   1 H                                       1.0800572
   121   6 C      201   1 H                                       1.0810821
   122   6 C      202   1 H                                       1.0820520
   140   6 C      203   1 H                                       1.0754103
   138   6 C      204   1 H                                       1.0749312
   139   6 C      205   1 H                                       1.0801740
   135   6 C      206   1 H                                       1.0806840
   136   6 C      207   1 H                                       1.0821882
   131   6 C      208   1 H                                       1.0806727
   132   6 C      209   1 H                                       1.0793316
   116   6 C      210   1 H                                       1.0756992
   114   6 C      211   1 H                                       1.0762368
   113   6 C      212   1 H                                       1.0808542
   146   6 C      213   1 H                                       1.0875806
   146   6 C      214   1 H                                       1.0862182
   146   6 C      215   1 H                                       1.0876762
Note: The following floating-point exceptions are signalling: IEEE_UNDERFLOW_FLAG
normal termination of xtb
   145   6 C      216   1 H                                       1.0854293
   145   6 C      217   1 H                                       1.0873822
   145   6 C      218   1 H                                       1.0863176
   148   6 C      219   1 H                                       1.0878287
   148   6 C      220   1 H                                       1.0858971
   148   6 C      221   1 H                                       1.0882141
   147   6 C      222   1 H                                       1.0851503
   147   6 C      223   1 H                                       1.0872854
   147   6 C      224   1 H                                       1.0861939

 * 6 distinct bonds (by element types)

   Z      Z             #   av. dist./Å        max./Å        min./Å
   1 H    6 C         106     1.0858591     1.1079884     1.0745150
   6 C    6 C          83     1.4345931     1.5432368     1.3533037
   6 C    7 N          22     1.4050338     1.4802503     1.3377599
   6 C    8 O           4     1.4070587     1.4119142     1.4001990
   7 N    8 O           1     1.2616423     1.2616423     1.2616423
   6 C   14 Si          8     1.9099183     1.9147055     1.9055462


optimized geometry written to: xtbopt.mol


           -------------------------------------------------
          | TOTAL ENERGY             -332.847670343441 Eh   |
          | GRADIENT NORM               0.000280866960 Eh/α |
          | HOMO-LUMO GAP               1.077604471199 eV   |
           -------------------------------------------------
########################################################################
[WARNING] Runtime exception occurred
-3- restart_readRestart: Dimension missmatch in restart file.
-2- restart_readRestart: Multiplicity missmatch in restart file.
-1- restart_readRestart: Number of electron missmatch in restart file.
########################################################################

------------------------------------------------------------------------
 * finished run on 2024/11/14 at 11:13:45.895     
------------------------------------------------------------------------
 total:
 * wall-time:     0 d,  0 h,  6 min, 26.874 sec
 *  cpu-time:     0 d,  0 h, 22 min, 16.040 sec
 * ratio c/w:     3.453 speedup
 SCF:
 * wall-time:     0 d,  0 h,  0 min,  2.420 sec
 *  cpu-time:     0 d,  0 h,  0 min,  8.293 sec
 * ratio c/w:     3.426 speedup
 ANC optimizer:
 * wall-time:     0 d,  0 h,  6 min, 24.373 sec
 *  cpu-time:     0 d,  0 h, 22 min,  7.651 sec
 * ratio c/w:     3.454 speedup

