      -----------------------------------------------------------      
     |                   =====================                   |     
     |                           x T B                           |     
     |                   =====================                   |     
     |                         S. Grimme                         |     
     |          Mulliken Center for Theoretical Chemistry        |     
     |                    University of Bonn                     |     
      -----------------------------------------------------------      

   * xtb version 6.6.1 (8d0f1dd) compiled by 'runner@Mac-1690902418499.local' on 2023-08-01

   xtb is free software: you can redistribute it and/or modify it under
   the terms of the GNU Lesser General Public License as published by
   the Free Software Foundation, either version 3 of the License, or
   (at your option) any later version.
   
   xtb is distributed in the hope that it will be useful,
   but WITHOUT ANY WARRANTY; without even the implied warranty of
   MERCHANTABILITY or FITNESS FOR A PARTICULAR PURPOSE.  See the
   GNU Lesser General Public License for more details.
   
   Cite this work as:
   * C. Bannwarth, E. Caldeweyher, S. Ehlert, A. Hansen, P. Pracht,
     J. Seibert, S. Spicher, S. Grimme, WIREs Comput. Mol. Sci., 2020, 11,
     e01493. DOI: 10.1002/wcms.1493
   
   for GFN2-xTB:
   * C. Bannwarth, S. Ehlert and S. Grimme., J. Chem. Theory Comput., 2019,
     15, 1652-1671. DOI: 10.1021/acs.jctc.8b01176
   for GFN1-xTB:
   * S. Grimme, C. Bannwarth, P. Shushkov, J. Chem. Theory Comput., 2017,
     13, 1989-2009. DOI: 10.1021/acs.jctc.7b00118
   for GFN0-xTB:
   * P. Pracht, E. Caldeweyher, S. Ehlert, S. Grimme, ChemRxiv, 2019, preprint.
     DOI: 10.26434/chemrxiv.8326202.v1
   for GFN-FF:
   * S. Spicher and S. Grimme, Angew. Chem. Int. Ed., 2020, 59, 15665-15673.
     DOI: 10.1002/anie.202004239
   
   for ALPB and GBSA implicit solvation:
   * S. Ehlert, M. Stahn, S. Spicher, S. Grimme, J. Chem. Theory Comput.,
     2021, 17, 4250-4261. DOI: 10.1021/acs.jctc.1c00471
   
   for DFT-D4:
   * E. Caldeweyher, C. Bannwarth and S. Grimme, J. Chem. Phys., 2017,
     147, 034112. DOI: 10.1063/1.4993215
   * E. Caldeweyher, S. Ehlert, A. Hansen, H. Neugebauer, S. Spicher,
     C. Bannwarth and S. Grimme, J. Chem. Phys., 2019, 150, 154122.
     DOI: 10.1063/1.5090222
   * E. Caldeweyher, J.-M. Mewes, S. Ehlert and S. Grimme, Phys. Chem. Chem. Phys.
     2020, 22, 8499-8512. DOI: 10.1039/D0CP00502A
   
   for sTDA-xTB:
   * S. Grimme and C. Bannwarth, J. Chem. Phys., 2016, 145, 054103.
     DOI: 10.1063/1.4959605
   
   in the mass-spec context:
   * V. Asgeirsson, C. Bauer and S. Grimme, Chem. Sci., 2017, 8, 4879.
     DOI: 10.1039/c7sc00601b
   * J. Koopman and S. Grimme, ACS Omega 2019, 4, 12, 15120-15133.
     DOI: 10.1021/acsomega.9b02011
   
   for metadynamics refer to:
   * S. Grimme, J. Chem. Theory Comput., 2019, 155, 2847-2862
     DOI: 10.1021/acs.jctc.9b00143
   
   for SPH calculations refer to:
   * S. Spicher and S. Grimme, J. Chem. Theory Comput., 2021, 17, 1701-1714
     DOI: 10.1021/acs.jctc.0c01306
   
   with help from (in alphabetical order)
   P. Atkinson, C. Bannwarth, F. Bohle, G. Brandenburg, E. Caldeweyher
   M. Checinski, S. Dohm, S. Ehlert, S. Ehrlich, I. Gerasimov, C. Hölzer
   A. Katbashev, J. Koopman, C. Lavigne, S. Lehtola, F. März, M. Müller,
   F. Musil, H. Neugebauer, J. Pisarek, C. Plett, P. Pracht, F. Pultar,
   J. Seibert, P. Shushkov, S. Spicher, M. Stahn, M. Steiner, T. Strunk,
   J. Stückrath, T. Rose, and J. Unsleber
   
 * started run on 2024/11/14 at 10:46:14.607     

           -------------------------------------------------
          |                Calculation Setup                |
           -------------------------------------------------

          program call               : xtb Nitro3.mol --opt --gfn2 --chrg 0 --uhf 2 --tight
          coordinate file            : Nitro3.mol
          omp threads                :                     8

   ID    Z sym.   atoms
    1    6 C      1-42, 45, 46, 48-51
    2    7 N      43, 52, 54, 56, 58
    3   14 Si     44
    4    8 O      47, 53, 55, 57, 59
    5    1 H      60-112
########################################################################
[WARNING] Please study the warnings concerning your input carefully
-1- prog_main_parseArguments: Unknown option '--tight' provided
########################################################################

           -------------------------------------------------
          |                 G F N 2 - x T B                 |
           -------------------------------------------------

        Reference                      10.1021/acs.jctc.8b01176
      * Hamiltonian:
        H0-scaling (s, p, d)           1.850000    2.230000    2.230000
        zeta-weighting                 0.500000
      * Dispersion:
        s8                             2.700000
        a1                             0.520000
        a2                             5.000000
        s9                             5.000000
      * Repulsion:
        kExp                           1.500000    1.000000
        rExp                           1.000000
      * Coulomb:
        alpha                          2.000000
        third order                    shell-resolved
        anisotropic                    true
        a3                             3.000000
        a5                             4.000000
        cn-shift                       1.200000
        cn-exp                         4.000000
        max-rad                        5.000000


          ...................................................
          :                      SETUP                      :
          :.................................................:
          :  # basis functions                 295          :
          :  # atomic orbitals                 294          :
          :  # shells                          172          :
          :  # electrons                       304          :
          :  max. iterations                   250          :
          :  Hamiltonian                  GFN2-xTB          :
          :  restarted?                      false          :
          :  GBSA solvation                  false          :
          :  PC potential                    false          :
          :  electronic temp.          300.0000000     K    :
          :  accuracy                    1.0000000          :
          :  -> integral cutoff          0.2500000E+02      :
          :  -> integral neglect         0.1000000E-07      :
          :  -> SCF convergence          0.1000000E-05 Eh   :
          :  -> wf. convergence          0.1000000E-03 e    :
          :  Broyden damping             0.4000000          :
          ...................................................

 iter      E             dE          RMSdq      gap      omega  full diag
   1   -167.2942695 -0.167294E+03  0.443E+00    0.33       0.0  T
   2   -167.8584276 -0.564158E+00  0.355E+00    0.89       1.0  T
   3   -167.9581698 -0.997421E-01  0.207E+00    1.38       1.0  T
   4   -167.5985756  0.359594E+00  0.182E+00    0.92       1.0  T
   5   -167.9952321 -0.396656E+00  0.773E-01    1.38       1.0  T
   6   -168.0049644 -0.973236E-02  0.461E-01    1.48       1.0  T
   7   -168.0018007  0.316370E-02  0.382E-01    1.07       1.0  T
   8   -168.0061810 -0.438029E-02  0.219E-01    1.27       1.0  T
   9   -168.0071620 -0.981006E-03  0.159E-01    1.39       1.0  T
  10   -168.0076405 -0.478466E-03  0.117E-01    1.47       1.0  T
  11   -167.8537940  0.153846E+00  0.744E-01    1.46       1.0  T
  12   -168.0081408 -0.154347E+00  0.665E-02    1.47       1.0  T
  13   -168.0082135 -0.726895E-04  0.503E-02    1.46       1.0  T
  14   -168.0081249  0.885840E-04  0.473E-02    1.46       1.0  T
  15   -168.0081864 -0.614516E-04  0.431E-02    1.47       1.0  T
  16   -168.0082831 -0.967856E-04  0.383E-02    1.47       1.0  T
  17   -168.0083646 -0.814978E-04  0.337E-02    1.47       1.0  T
  18   -168.0084370 -0.723939E-04  0.288E-02    1.47       1.0  T
  19   -168.0085022 -0.651380E-04  0.236E-02    1.47       1.0  T
  20   -168.0086002 -0.979897E-04  0.127E-02    1.47       1.0  T
  21   -168.0086392 -0.390409E-04  0.934E-04    1.48      10.1  T
  22   -168.0086341  0.514535E-05  0.444E-03    1.48       2.1  T
  23   -168.0086369 -0.282941E-05  0.305E-03    1.48       3.1  T
  24   -168.0086392 -0.231721E-05  0.686E-04    1.48      13.8  T
  25   -168.0086393 -0.125014E-06  0.605E-05    1.48     156.1  T
  26   -168.0086393  0.276445E-07  0.330E-04    1.48      28.7  T

   *** convergence criteria satisfied after 26 iterations ***

         #    Occupation            Energy/Eh            Energy/eV
      -------------------------------------------------------------
         1        2.0000           -0.7917733             -21.5452
       ...           ...                  ...                  ...
       147        2.0000           -0.3526820              -9.5970
       148        2.0000           -0.3496812              -9.5153
       149        2.0000           -0.3439797              -9.3602
       150        2.0000           -0.3373174              -9.1789
       151        1.9468           -0.3214787              -8.7479
       152        1.0307           -0.3154643              -8.5842
       153        1.0224           -0.3151552              -8.5758 (HOMO)
       154                         -0.2609333              -7.1004 (LUMO)
       155                         -0.2593661              -7.0577
       156                         -0.2533734              -6.8946
       157                         -0.2459956              -6.6939
       158                         -0.2333778              -6.3505
       ...                                ...                  ...
       294                          3.2181098              87.5692
      -------------------------------------------------------------
                  HL-Gap            0.0542219 Eh            1.4755 eV
             Fermi-level           -0.3033132 Eh           -8.2536 eV

 transition dipole moment (au) for excitation:         152         153
     X       Y       Z   
   0.1073  -0.6204   0.4370  total (au/Debye):    0.766   1.948
 dE (eV)             :    0.008
 oscillator strength :  0.17115E-03

 SCC (total)                   0 d,  0 h,  0 min,  1.527 sec
 SCC setup                      ...        0 min,  0.001 sec (  0.035%)
 Dispersion                     ...        0 min,  0.001 sec (  0.095%)
 classical contributions        ...        0 min,  0.000 sec (  0.031%)
 integral evaluation            ...        0 min,  0.006 sec (  0.384%)
 iterations                     ...        0 min,  1.429 sec ( 93.543%)
 molecular gradient             ...        0 min,  0.051 sec (  3.317%)
 printout                       ...        0 min,  0.040 sec (  2.593%)

         :::::::::::::::::::::::::::::::::::::::::::::::::::::
         ::                     SUMMARY                     ::
         :::::::::::::::::::::::::::::::::::::::::::::::::::::
         :: total energy            -165.656060615742 Eh    ::
         :: gradient norm              0.934453992754 Eh/a0 ::
         :: HOMO-LUMO gap              1.475453728779 eV    ::
         ::.................................................::
         :: SCC energy              -168.008639302907 Eh    ::
         :: -> isotropic ES            0.194894056386 Eh    ::
         :: -> anisotropic ES          0.023070438688 Eh    ::
         :: -> anisotropic XC          0.055730348380 Eh    ::
         :: -> dispersion             -0.161882950297 Eh    ::
         :: repulsion energy           2.347490822389 Eh    ::
         :: add. restraining           0.000000000000 Eh    ::
         :: total charge               0.000000000000 e     ::
         :::::::::::::::::::::::::::::::::::::::::::::::::::::

      ----------------------------------------------------------- 
     |                   =====================                   |
     |                        A N C O P T                        |
     |                   =====================                   |
     |               Approximate Normal Coordinate               |
     |                Rational Function Optimizer                |
      ----------------------------------------------------------- 

          ...................................................
          :                      SETUP                      :
          :.................................................:
          :   optimization level            normal          :
          :   max. optcycles                   336          :
          :   ANC micro-cycles                  20          :
          :   degrees of freedom               330          :
          :.................................................:
          :   RF solver                   davidson          :
          :   write xtbopt.log                true          :
          :   linear?                        false          :
          :   energy convergence         0.5000000E-05 Eh   :
          :   grad. convergence          0.1000000E-02 Eh/α :
          :   maxmium RF displ.          1.0000000          :
          :   Hlow (freq-cutoff)         0.1000000E-01      :
          :   Hmax (freq-cutoff)         5.0000000          :
          :   S6 in model hess.         20.0000000          :
          ...................................................

generating ANC from model Hessian ...
Using Lindh-Hessian (1995)
 Shifting diagonal of input Hessian by    1.0070321545050302E-002
 Lowest  eigenvalues of input Hessian
    0.010000    0.010053    0.000000    0.000000    0.000000    0.000000
    0.000000    0.000000    0.010078    0.010095    0.010128    0.010143
    0.010308    0.010435    0.010812    0.010837    0.011082    0.011214
 Highest eigenvalues
    1.960519    2.027206    2.056571    2.411695    2.466613    3.353539


........................................................................
.............................. CYCLE    1 ..............................
........................................................................

 iter      E             dE          RMSdq      gap      omega  full diag
   1   -168.0086393 -0.168009E+03  0.606E-05    1.48       0.0  T
   2   -168.0086393  0.126303E-07  0.220E-04    1.48      42.9  T
   3   -168.0086393 -0.135104E-07  0.125E-05    1.48     756.3  T
     SCC iter.                  ...        0 min,  0.194 sec
     gradient                   ...        0 min,  0.038 sec
 * total energy  :  -165.6560606 Eh     change       -0.2815713E-07 Eh
   gradient norm :     0.9344614 Eh/α   predicted     0.0000000E+00 (-100.00%)
   displ. norm   :     0.5914863 α      lambda       -0.4940510E+00
   maximum displ.:     0.3836714 α      in ANC's #310, #132, #143, ...

........................................................................
.............................. CYCLE    2 ..............................
........................................................................

 iter      E             dE          RMSdq      gap      omega  full diag
   1   -168.1503154 -0.168150E+03  0.531E-01    1.28       0.0  T
   2   -168.1488139  0.150144E-02  0.422E-01    1.53       1.0  T
   3   -168.1629564 -0.141425E-01  0.196E-01    1.49       1.0  T
   4   -168.1633332 -0.376760E-03  0.156E-01    1.52       1.0  T
   5   -168.1649742 -0.164105E-02  0.840E-02    1.51       1.0  T
   6   -168.1650656 -0.913676E-04  0.655E-02    1.51       1.0  T
   7   -168.1650993 -0.336943E-04  0.417E-02    1.51       1.0  T
   8   -168.1651326 -0.333110E-04  0.149E-02    1.51       1.0  T
   9   -168.1651392 -0.659861E-05  0.101E-02    1.51       1.0  T
  10   -168.1651431 -0.387015E-05  0.483E-03    1.51       2.0  T
  11   -168.1651432 -0.976646E-07  0.358E-03    1.51       2.6  T
  12   -168.1651438 -0.634499E-06  0.208E-03    1.51       4.5  T
  13   -168.1651439 -0.117309E-06  0.789E-04    1.51      12.0  T
  14   -168.1651439 -0.118539E-07  0.364E-04    1.51      26.0  T
     SCC iter.                  ...        0 min,  1.147 sec
     gradient                   ...        0 min,  0.038 sec
 * total energy  :  -165.9717531 Eh     change       -0.3156924E+00 Eh
   gradient norm :     0.3232623 Eh/α   predicted    -0.3334547E+00 (   5.63%)
   displ. norm   :     0.6283194 α      lambda       -0.1441899E+00
   maximum displ.:     0.2016494 α      in ANC's #143, #132, #121, ...

........................................................................
.............................. CYCLE    3 ..............................
........................................................................

 iter      E             dE          RMSdq      gap      omega  full diag
   1   -168.3037782 -0.168304E+03  0.381E-01    1.46       0.0  T
   2   -168.3012790  0.249924E-02  0.333E-01    1.48       1.0  T
   3   -168.3113488 -0.100698E-01  0.145E-01    1.49       1.0  T
   4   -168.3114881 -0.139346E-03  0.101E-01    1.49       1.0  T
   5   -168.3124211 -0.932950E-03  0.329E-02    1.50       1.0  T
   6   -168.3124689 -0.478240E-04  0.231E-02    1.49       1.0  T
   7   -168.3124684  0.464215E-06  0.186E-02    1.49       1.0  T
   8   -168.3124717 -0.327698E-05  0.842E-03    1.49       1.1  T
   9   -168.3124738 -0.213342E-05  0.595E-03    1.49       1.6  T
  10   -168.3124745 -0.668281E-06  0.327E-03    1.49       2.9  T
  11   -168.3124747 -0.229363E-06  0.205E-03    1.49       4.6  T
  12   -168.3124748 -0.829200E-07  0.119E-03    1.49       7.9  T
  13   -168.3124749 -0.581661E-07  0.413E-04    1.49      22.9  T
  14   -168.3124749 -0.500395E-08  0.205E-04    1.49      46.0  T
     SCC iter.                  ...        0 min,  0.785 sec
     gradient                   ...        0 min,  0.042 sec
 * total energy  :  -166.0849926 Eh     change       -0.1132395E+00 Eh
   gradient norm :     0.1718651 Eh/α   predicted    -0.1005570E+00 ( -11.20%)
   displ. norm   :     0.6944166 α      lambda       -0.8836430E-01
   maximum displ.:     0.2971479 α      in ANC's #132, #63, #143, ...

........................................................................
.............................. CYCLE    4 ..............................
........................................................................

 iter      E             dE          RMSdq      gap      omega  full diag
   1   -168.4189804 -0.168419E+03  0.340E-01    1.48       0.0  T
   2   -168.4180099  0.970472E-03  0.270E-01    1.46       1.0  T
   3   -168.4224322 -0.442226E-02  0.156E-01    1.49       1.0  T
   4   -168.4227665 -0.334312E-03  0.106E-01    1.48       1.0  T
   5   -168.4235274 -0.760898E-03  0.577E-02    1.49       1.0  T
   6   -168.4235949 -0.675490E-04  0.430E-02    1.49       1.0  T
   7   -168.4235610  0.339173E-04  0.268E-02    1.49       1.0  T
   8   -168.4236068 -0.458017E-04  0.965E-03    1.49       1.0  T
   9   -168.4236093 -0.249760E-05  0.619E-03    1.49       1.5  T
  10   -168.4236099 -0.563376E-06  0.300E-03    1.49       3.1  T
  11   -168.4236101 -0.224999E-06  0.178E-03    1.49       5.3  T
  12   -168.4236102 -0.647989E-07  0.916E-04    1.49      10.3  T
  13   -168.4236102 -0.367610E-07  0.212E-04    1.49      44.5  T
     SCC iter.                  ...        0 min,  0.521 sec
     gradient                   ...        0 min,  0.038 sec
 * total energy  :  -166.1545607 Eh     change       -0.6956814E-01 Eh
   gradient norm :     0.0892280 Eh/α   predicted    -0.6548743E-01 (  -5.87%)
   displ. norm   :     0.7553871 α      lambda       -0.5404934E-01
   maximum displ.:     0.3101026 α      in ANC's #132, #63, #33, ...

........................................................................
.............................. CYCLE    5 ..............................
........................................................................

 iter      E             dE          RMSdq      gap      omega  full diag
   1   -168.4885114 -0.168489E+03  0.283E-01    1.50       0.0  T
   2   -168.4888949 -0.383465E-03  0.188E-01    1.50       1.0  T
   3   -168.4889718 -0.768901E-04  0.142E-01    1.51       1.0  T
   4   -168.4887455  0.226294E-03  0.844E-02    1.50       1.0  T
   5   -168.4891631 -0.417637E-03  0.664E-02    1.51       1.0  T
   6   -168.4893031 -0.139951E-03  0.390E-02    1.50       1.0  T
   7   -168.4893030  0.128840E-06  0.153E-02    1.50       1.0  T
   8   -168.4893141 -0.111792E-04  0.101E-02    1.50       1.0  T
   9   -168.4893160 -0.186845E-05  0.542E-03    1.50       1.7  T
  10   -168.4893163 -0.286013E-06  0.272E-03    1.50       3.5  T
  11   -168.4893165 -0.172028E-06  0.154E-03    1.51       6.1  T
  12   -168.4893165 -0.485707E-07  0.428E-04    1.51      22.1  T
  13   -168.4893165 -0.989940E-08  0.186E-04    1.51      50.9  T
     SCC iter.                  ...        0 min,  0.758 sec
     gradient                   ...        0 min,  0.038 sec
 * total energy  :  -166.1993156 Eh     change       -0.4475489E-01 Eh
   gradient norm :     0.0571295 Eh/α   predicted    -0.4244561E-01 (  -5.16%)
   displ. norm   :     0.7972438 α      lambda       -0.3765433E-01
   maximum displ.:     0.2950539 α      in ANC's #132, #33, #63, ...

........................................................................
.............................. CYCLE    6 ..............................
........................................................................

 iter      E             dE          RMSdq      gap      omega  full diag
   1   -168.5473033 -0.168547E+03  0.234E-01    1.50       0.0  T
   2   -168.5475638 -0.260519E-03  0.173E-01    1.51       1.0  T
   3   -168.5476553 -0.915241E-04  0.125E-01    1.51       1.0  T
   4   -168.5476666 -0.113313E-04  0.652E-02    1.51       1.0  T
   5   -168.5477132 -0.466012E-04  0.499E-02    1.52       1.0  T
   6   -168.5477056  0.764779E-05  0.295E-02    1.51       1.0  T
   7   -168.5477419 -0.362982E-04  0.121E-02    1.51       1.0  T
   8   -168.5477459 -0.401943E-05  0.766E-03    1.51       1.2  T
   9   -168.5477468 -0.865889E-06  0.406E-03    1.51       2.3  T
  10   -168.5477470 -0.261653E-06  0.212E-03    1.51       4.5  T
  11   -168.5477471 -0.624481E-07  0.105E-03    1.51       9.0  T
  12   -168.5477472 -0.442296E-07  0.261E-04    1.51      36.2  T
  13   -168.5477472 -0.229670E-08  0.142E-04    1.51      66.6  T
     SCC iter.                  ...        0 min,  0.693 sec
     gradient                   ...        0 min,  0.038 sec
 * total energy  :  -166.2310524 Eh     change       -0.3173681E-01 Eh
   gradient norm :     0.0421866 Eh/α   predicted    -0.3079367E-01 (  -2.97%)
   displ. norm   :     0.8071795 α      lambda       -0.2676659E-01
   maximum displ.:     0.2651754 α      in ANC's #33, #132, #63, ...

........................................................................
.............................. CYCLE    7 ..............................
........................................................................

 iter      E             dE          RMSdq      gap      omega  full diag
   1   -168.5871317 -0.168587E+03  0.208E-01    1.52       0.0  T
   2   -168.5873024 -0.170701E-03  0.177E-01    1.52       1.0  T
   3   -168.5873374 -0.350304E-04  0.128E-01    1.52       1.0  T
   4   -168.5867668  0.570619E-03  0.882E-02    1.53       1.0  T
   5   -168.5872999 -0.533158E-03  0.638E-02    1.52       1.0  T
   6   -168.5874435 -0.143610E-03  0.386E-02    1.53       1.0  T
   7   -168.5874465 -0.292275E-05  0.111E-02    1.52       1.0  T
   8   -168.5874524 -0.591058E-05  0.687E-03    1.52       1.4  T
   9   -168.5874535 -0.118052E-05  0.362E-03    1.52       2.6  T
  10   -168.5874538 -0.244197E-06  0.175E-03    1.52       5.4  T
  11   -168.5874538 -0.431231E-07  0.801E-04    1.52      11.8  T
  12   -168.5874538 -0.140957E-07  0.246E-04    1.52      38.4  T
     SCC iter.                  ...        0 min,  0.514 sec
     gradient                   ...        0 min,  0.043 sec
 * total energy  :  -166.2536902 Eh     change       -0.2263777E-01 Eh
   gradient norm :     0.0314675 Eh/α   predicted    -0.2210303E-01 (  -2.36%)
   displ. norm   :     0.8134203 α      lambda       -0.1930981E-01
   maximum displ.:     0.2635726 α      in ANC's #33, #22, #28, ...

........................................................................
.............................. CYCLE    8 ..............................
........................................................................

 iter      E             dE          RMSdq      gap      omega  full diag
   1   -168.6280880 -0.168628E+03  0.166E-01    1.54       0.0  T
   2   -168.6282328 -0.144847E-03  0.151E-01    1.54       1.0  T
   3   -168.6282631 -0.302750E-04  0.108E-01    1.54       1.0  T
   4   -168.6281877  0.754073E-04  0.604E-02    1.54       1.0  T
   5   -168.6282651 -0.773873E-04  0.446E-02    1.54       1.0  T
   6   -168.6282627  0.239516E-05  0.262E-02    1.54       1.0  T
   7   -168.6282850 -0.222712E-04  0.730E-03    1.54       1.3  T
   8   -168.6282881 -0.312974E-05  0.408E-03    1.54       2.3  T
   9   -168.6282883 -0.236366E-06  0.254E-03    1.54       3.7  T
  10   -168.6282885 -0.200304E-06  0.121E-03    1.54       7.8  T
  11   -168.6282886 -0.604194E-07  0.636E-04    1.54      14.9  T
  12   -168.6282886 -0.108136E-07  0.231E-04    1.54      40.9  T
     SCC iter.                  ...        0 min,  1.614 sec
     gradient                   ...        0 min,  0.056 sec
 * total energy  :  -166.2699077 Eh     change       -0.1621753E-01 Eh
   gradient norm :     0.0225924 Eh/α   predicted    -0.1604313E-01 (  -1.08%)
   displ. norm   :     0.8073456 α      lambda       -0.1362316E-01
   maximum displ.:     0.2501840 α      in ANC's #22, #33, #28, ...

........................................................................
.............................. CYCLE    9 ..............................
........................................................................

 iter      E             dE          RMSdq      gap      omega  full diag
   1   -168.6520483 -0.168652E+03  0.155E-01    1.56       0.0  T
   2   -168.6521417 -0.934225E-04  0.141E-01    1.56       1.0  T
   3   -168.6521305  0.111594E-04  0.961E-02    1.56       1.0  T
   4   -168.6516560  0.474536E-03  0.746E-02    1.57       1.0  T
   5   -168.6521577 -0.501688E-03  0.467E-02    1.56       1.0  T
   6   -168.6521900 -0.322926E-04  0.250E-02    1.57       1.0  T
   7   -168.6521948 -0.485331E-05  0.636E-03    1.56       1.5  T
   8   -168.6521987 -0.390821E-05  0.318E-03    1.56       3.0  T
   9   -168.6521991 -0.309210E-06  0.176E-03    1.56       5.4  T
  10   -168.6521992 -0.117513E-06  0.747E-04    1.56      12.7  T
  11   -168.6521992 -0.119038E-07  0.371E-04    1.56      25.5  T
     SCC iter.                  ...        0 min,  1.023 sec
     gradient                   ...        0 min,  0.043 sec
 * total energy  :  -166.2812517 Eh     change       -0.1134400E-01 Eh
   gradient norm :     0.0161256 Eh/α   predicted    -0.1125143E-01 (  -0.82%)
   displ. norm   :     0.7976344 α      lambda       -0.9647286E-02
   maximum displ.:     0.2739865 α      in ANC's #9, #22, #21, ...

........................................................................
.............................. CYCLE   10 ..............................
........................................................................

 iter      E             dE          RMSdq      gap      omega  full diag
   1   -168.6780080 -0.168678E+03  0.114E-01    1.58       0.0  T
   2   -168.6780619 -0.539184E-04  0.975E-02    1.58       1.0  T
   3   -168.6780483  0.135497E-04  0.575E-02    1.58       1.0  T
   4   -168.6779163  0.131998E-03  0.451E-02    1.57       1.0  T
   5   -168.6780678 -0.151507E-03  0.308E-02    1.58       1.0  T
   6   -168.6780805 -0.126562E-04  0.182E-02    1.58       1.0  T
   7   -168.6780845 -0.398816E-05  0.448E-03    1.58       2.1  T
   8   -168.6780855 -0.105553E-05  0.253E-03    1.58       3.7  T
   9   -168.6780859 -0.366984E-06  0.164E-03    1.58       5.7  T
  10   -168.6780861 -0.158734E-06  0.691E-04    1.58      13.7  T
  11   -168.6780861 -0.129786E-07  0.287E-04    1.58      32.9  T
     SCC iter.                  ...        0 min,  0.770 sec
     gradient                   ...        0 min,  0.095 sec
 * total energy  :  -166.2893759 Eh     change       -0.8124206E-02 Eh
   gradient norm :     0.0141605 Eh/α   predicted    -0.7892600E-02 (  -2.85%)
   displ. norm   :     0.8051016 α      lambda       -0.7307102E-02
   maximum displ.:     0.3338419 α      in ANC's #9, #22, #18, ...

........................................................................
.............................. CYCLE   11 ..............................
........................................................................

 iter      E             dE          RMSdq      gap      omega  full diag
   1   -168.6920813 -0.168692E+03  0.105E-01    1.58       0.0  T
   2   -168.6921018 -0.205244E-04  0.760E-02    1.59       1.0  T
   3   -168.6919783  0.123479E-03  0.424E-02    1.59       1.0  T
   4   -168.6920313 -0.530008E-04  0.320E-02    1.59       1.0  T
   5   -168.6921111 -0.797655E-04  0.223E-02    1.59       1.0  T
   6   -168.6921181 -0.696515E-05  0.124E-02    1.59       1.0  T
   7   -168.6921215 -0.341734E-05  0.368E-03    1.59       2.6  T
   8   -168.6921226 -0.115686E-05  0.183E-03    1.59       5.2  T
   9   -168.6921227 -0.103115E-06  0.109E-03    1.59       8.6  T
  10   -168.6921228 -0.613336E-07  0.535E-04    1.59      17.7  T
  11   -168.6921228 -0.203717E-07  0.245E-04    1.59      38.5  T
     SCC iter.                  ...        0 min,  1.088 sec
     gradient                   ...        0 min,  0.042 sec
 * total energy  :  -166.2957288 Eh     change       -0.6352934E-02 Eh
   gradient norm :     0.0143035 Eh/α   predicted    -0.6021742E-02 (  -5.21%)
   displ. norm   :     0.8209129 α      lambda       -0.6100911E-02
   maximum displ.:     0.3806030 α      in ANC's #9, #18, #22, ...

........................................................................
.............................. CYCLE   12 ..............................
........................................................................

 iter      E             dE          RMSdq      gap      omega  full diag
   1   -168.7053497 -0.168705E+03  0.953E-02    1.59       0.0  T
   2   -168.7053615 -0.118831E-04  0.575E-02    1.59       1.0  T
   3   -168.7052700  0.915117E-04  0.283E-02    1.59       1.0  T
   4   -168.7053665 -0.964973E-04  0.857E-03    1.59       1.1  T
   5   -168.7053728 -0.625531E-05  0.542E-03    1.59       1.7  T
   6   -168.7053732 -0.394832E-06  0.398E-03    1.59       2.4  T
   7   -168.7053733 -0.116458E-06  0.198E-03    1.59       4.8  T
   8   -168.7053734 -0.993981E-07  0.123E-03    1.59       7.7  T
   9   -168.7053734 -0.117551E-07  0.724E-04    1.59      13.1  T
  10   -168.7053734 -0.191870E-07  0.403E-04    1.59      23.4  T
     SCC iter.                  ...        0 min,  0.871 sec
     gradient                   ...        0 min,  0.037 sec
 * total energy  :  -166.3011593 Eh     change       -0.5430496E-02 Eh
   gradient norm :     0.0130525 Eh/α   predicted    -0.5106154E-02 (  -5.97%)
   displ. norm   :     0.8356559 α      lambda       -0.5347215E-02
   maximum displ.:     0.4122005 α      in ANC's #9, #18, #15, ...

........................................................................
.............................. CYCLE   13 ..............................
........................................................................

 iter      E             dE          RMSdq      gap      omega  full diag
   1   -168.7136755 -0.168714E+03  0.982E-02    1.58       0.0  T
   2   -168.7136877 -0.121729E-04  0.608E-02    1.59       1.0  T
   3   -168.7135671  0.120594E-03  0.309E-02    1.58       1.0  T
   4   -168.7136784 -0.111261E-03  0.133E-02    1.59       1.0  T
   5   -168.7137004 -0.220822E-04  0.778E-03    1.59       1.2  T
   6   -168.7137026 -0.211470E-05  0.584E-03    1.59       1.6  T
   7   -168.7137029 -0.386189E-06  0.356E-03    1.59       2.7  T
   8   -168.7137031 -0.117438E-06  0.223E-03    1.59       4.2  T
   9   -168.7137030  0.341744E-07  0.139E-03    1.59       6.8  T
  10   -168.7137031 -0.104400E-06  0.647E-04    1.59      14.6  T
  11   -168.7137031 -0.757709E-08  0.269E-04    1.59      35.1  T
     SCC iter.                  ...        0 min,  1.138 sec
     gradient                   ...        0 min,  0.045 sec
 * total energy  :  -166.3059733 Eh     change       -0.4814006E-02 Eh
   gradient norm :     0.0118772 Eh/α   predicted    -0.4540645E-02 (  -5.68%)
   displ. norm   :     0.8487929 α      lambda       -0.4778895E-02
   maximum displ.:     0.4332525 α      in ANC's #9, #15, #18, ...

........................................................................
.............................. CYCLE   14 ..............................
........................................................................

 iter      E             dE          RMSdq      gap      omega  full diag
   1   -168.7215565 -0.168722E+03  0.103E-01    1.58       0.0  T
   2   -168.7215735 -0.169958E-04  0.711E-02    1.58       1.0  T
   3   -168.7214283  0.145199E-03  0.420E-02    1.59       1.0  T
   4   -168.7215278 -0.994749E-04  0.262E-02    1.58       1.0  T
   5   -168.7215939 -0.660738E-04  0.183E-02    1.58       1.0  T
   6   -168.7216033 -0.947382E-05  0.127E-02    1.58       1.0  T
   7   -168.7216047 -0.131180E-05  0.569E-03    1.58       1.7  T
   8   -168.7216052 -0.508369E-06  0.289E-03    1.58       3.3  T
   9   -168.7216052 -0.700996E-07  0.176E-03    1.58       5.4  T
  10   -168.7216054 -0.144853E-06  0.766E-04    1.58      12.3  T
  11   -168.7216054 -0.242770E-08  0.232E-04    1.58      40.8  T
     SCC iter.                  ...        0 min,  0.537 sec
     gradient                   ...        0 min,  0.038 sec
 * total energy  :  -166.3102888 Eh     change       -0.4315467E-02 Eh
   gradient norm :     0.0120407 Eh/α   predicted    -0.4110934E-02 (  -4.74%)
   displ. norm   :     0.8610336 α      lambda       -0.4327876E-02
   maximum displ.:     0.4472247 α      in ANC's #9, #15, #11, ...

........................................................................
.............................. CYCLE   15 ..............................
........................................................................

 iter      E             dE          RMSdq      gap      omega  full diag
   1   -168.7278309 -0.168728E+03  0.108E-01    1.57       0.0  T
   2   -168.7278405 -0.959366E-05  0.795E-02    1.57       1.0  T
   3   -168.7276686  0.171964E-03  0.547E-02    1.57       1.0  T
   4   -168.7278286 -0.160016E-03  0.297E-02    1.58       1.0  T
   5   -168.7278971 -0.684731E-04  0.225E-02    1.57       1.0  T
   6   -168.7279108 -0.137527E-04  0.159E-02    1.57       1.0  T
   7   -168.7279136 -0.277468E-05  0.754E-03    1.57       1.3  T
   8   -168.7279146 -0.104630E-05  0.400E-03    1.57       2.4  T
   9   -168.7279146  0.700861E-07  0.258E-03    1.57       3.7  T
  10   -168.7279148 -0.276792E-06  0.130E-03    1.57       7.2  T
  11   -168.7279148 -0.152630E-07  0.400E-04    1.57      23.6  T
  12   -168.7279149 -0.696650E-08  0.176E-04    1.57      53.8  T
     SCC iter.                  ...        0 min,  0.829 sec
     gradient                   ...        0 min,  0.038 sec
 * total energy  :  -166.3141994 Eh     change       -0.3910536E-02 Eh
   gradient norm :     0.0140851 Eh/α   predicted    -0.3768242E-02 (  -3.64%)
   displ. norm   :     0.8769750 α      lambda       -0.4053506E-02
   maximum displ.:     0.4540166 α      in ANC's #9, #15, #11, ...

........................................................................
.............................. CYCLE   16 ..............................
........................................................................

 iter      E             dE          RMSdq      gap      omega  full diag
   1   -168.7340572 -0.168734E+03  0.117E-01    1.57       0.0  T
   2   -168.7340670 -0.974724E-05  0.871E-02    1.57       1.0  T
   3   -168.7338711  0.195836E-03  0.586E-02    1.57       1.0  T
   4   -168.7340804 -0.209258E-03  0.303E-02    1.57       1.0  T
   5   -168.7341564 -0.760520E-04  0.227E-02    1.57       1.0  T
   6   -168.7341738 -0.173886E-04  0.156E-02    1.57       1.0  T
   7   -168.7341756 -0.176469E-05  0.842E-03    1.57       1.1  T
   8   -168.7341768 -0.124896E-05  0.493E-03    1.57       1.9  T
   9   -168.7341768  0.113180E-07  0.339E-03    1.57       2.8  T
  10   -168.7341772 -0.319559E-06  0.174E-03    1.57       5.4  T
  11   -168.7341772 -0.130310E-07  0.440E-04    1.57      21.5  T
  12   -168.7341772 -0.903586E-08  0.195E-04    1.57      48.5  T
     SCC iter.                  ...        0 min,  0.858 sec
     gradient                   ...        0 min,  0.035 sec
 * total energy  :  -166.3179246 Eh     change       -0.3725244E-02 Eh
   gradient norm :     0.0156219 Eh/α   predicted    -0.3585507E-02 (  -3.75%)
   displ. norm   :     0.8897388 α      lambda       -0.4069410E-02
   maximum displ.:     0.4481072 α      in ANC's #9, #15, #11, ...

........................................................................
.............................. CYCLE   17 ..............................
........................................................................

 iter      E             dE          RMSdq      gap      omega  full diag
   1   -168.7417080 -0.168742E+03  0.134E-01    1.56       0.0  T
   2   -168.7417399 -0.319165E-04  0.982E-02    1.56       1.0  T
   3   -168.7415155  0.224455E-03  0.489E-02    1.56       1.0  T
   4   -168.7417179 -0.202425E-03  0.275E-02    1.56       1.0  T
   5   -168.7417744 -0.564904E-04  0.210E-02    1.56       1.0  T
   6   -168.7417922 -0.178435E-04  0.124E-02    1.56       1.0  T
   7   -168.7417932 -0.981029E-06  0.795E-03    1.56       1.2  T
   8   -168.7417930  0.186777E-06  0.645E-03    1.56       1.5  T
   9   -168.7417935 -0.433117E-06  0.389E-03    1.56       2.4  T
  10   -168.7417937 -0.274133E-06  0.239E-03    1.56       4.0  T
  11   -168.7417938 -0.311217E-07  0.676E-04    1.56      14.0  T
  12   -168.7417938 -0.272141E-07  0.128E-04    1.56      73.6  T
     SCC iter.                  ...        0 min,  0.812 sec
     gradient                   ...        0 min,  0.082 sec
 * total energy  :  -166.3218471 Eh     change       -0.3922545E-02 Eh
   gradient norm :     0.0171523 Eh/α   predicted    -0.3645455E-02 (  -7.06%)
   displ. norm   :     0.9080589 α      lambda       -0.4705716E-02
   maximum displ.:     0.4689619 α      in ANC's #15, #9, #18, ...

........................................................................
.............................. CYCLE   18 ..............................
........................................................................

 iter      E             dE          RMSdq      gap      omega  full diag
   1   -168.7513060 -0.168751E+03  0.176E-01    1.56       0.0  T
   2   -168.7513579 -0.519083E-04  0.131E-01    1.56       1.0  T
   3   -168.7509948  0.363113E-03  0.538E-02    1.55       1.0  T
   4   -168.7513852 -0.390401E-03  0.232E-02    1.56       1.0  T
   5   -168.7514143 -0.291738E-04  0.164E-02    1.55       1.0  T
   6   -168.7514266 -0.122732E-04  0.714E-03    1.56       1.3  T
   7   -168.7514272 -0.589384E-06  0.435E-03    1.55       2.2  T
   8   -168.7514268  0.399287E-06  0.376E-03    1.55       2.5  T
   9   -168.7514273 -0.528822E-06  0.250E-03    1.55       3.8  T
  10   -168.7514274 -0.916894E-07  0.171E-03    1.55       5.5  T
  11   -168.7514274 -0.350627E-08  0.686E-04    1.55      13.8  T
  12   -168.7514274 -0.210816E-07  0.127E-04    1.55      74.2  T
     SCC iter.                  ...        0 min,  0.619 sec
     gradient                   ...        0 min,  0.036 sec
 * total energy  :  -166.3265323 Eh     change       -0.4685189E-02 Eh
   gradient norm :     0.0198837 Eh/α   predicted    -0.4292960E-02 (  -8.37%)
   displ. norm   :     0.8956927 α      lambda       -0.6120065E-02
   maximum displ.:     0.4717355 α      in ANC's #15, #9, #14, ...

........................................................................
.............................. CYCLE   19 ..............................
........................................................................

 iter      E             dE          RMSdq      gap      omega  full diag
   1   -168.7712999 -0.168771E+03  0.262E-01    1.55       0.0  T
   2   -168.7713741 -0.741702E-04  0.204E-01    1.55       1.0  T
   3   -168.7700707  0.130339E-02  0.959E-02    1.54       1.0  T
   4   -168.7713227 -0.125200E-02  0.409E-02    1.55       1.0  T
   5   -168.7715131 -0.190395E-03  0.297E-02    1.55       1.0  T
   6   -168.7715490 -0.359558E-04  0.130E-02    1.55       1.0  T
   7   -168.7715499 -0.865390E-06  0.773E-03    1.55       1.2  T
   8   -168.7715493  0.583091E-06  0.637E-03    1.55       1.5  T
   9   -168.7715505 -0.120088E-05  0.351E-03    1.55       2.7  T
  10   -168.7715507 -0.211048E-06  0.237E-03    1.55       4.0  T
  11   -168.7715507 -0.109419E-07  0.969E-04    1.55       9.8  T
  12   -168.7715508 -0.546130E-07  0.213E-04    1.55      44.4  T
     SCC iter.                  ...        0 min,  0.933 sec
     gradient                   ...        0 min,  0.075 sec
 * total energy  :  -166.3318551 Eh     change       -0.5322734E-02 Eh
   gradient norm :     0.0307512 Eh/α   predicted    -0.5514994E-02 (   3.61%)
   displ. norm   :     0.8990575 α      lambda       -0.5646561E-02
   maximum displ.:     0.4790107 α      in ANC's #15, #9, #18, ...

........................................................................
.............................. CYCLE   20 ..............................
........................................................................

 iter      E             dE          RMSdq      gap      omega  full diag
   1   -168.7640415 -0.168764E+03  0.227E-01    1.54       0.0  T
   2   -168.7641008 -0.593097E-04  0.172E-01    1.54       1.0  T
   3   -168.7632589  0.841915E-03  0.773E-02    1.54       1.0  T
   4   -168.7641421 -0.883156E-03  0.266E-02    1.54       1.0  T
   5   -168.7642151 -0.730170E-04  0.172E-02    1.54       1.0  T
   6   -168.7642247 -0.964544E-05  0.668E-03    1.54       1.4  T
   7   -168.7642246  0.144836E-06  0.326E-03    1.54       2.9  T
   8   -168.7642256 -0.974875E-06  0.163E-03    1.54       5.8  T
   9   -168.7642258 -0.190545E-06  0.521E-04    1.54      18.1  T
  10   -168.7642258 -0.143827E-07  0.310E-04    1.54      30.5  T
     SCC iter.                  ...        0 min,  1.123 sec
     gradient                   ...        0 min,  0.041 sec
 * total energy  :  -166.3365585 Eh     change       -0.4703469E-02 Eh
   gradient norm :     0.0401979 Eh/α   predicted    -0.5105356E-02 (   8.54%)
   displ. norm   :     0.7479288 α      lambda       -0.5773837E-02
   maximum displ.:     0.4195441 α      in ANC's #15, #9, #12, ...
 * RMSD in coord.:     1.1315113 α      energy gain  -0.6804979E+00 Eh

generating ANC from model Hessian ...
Using Lindh-Hessian (1995)
 Shifting diagonal of input Hessian by    1.0074441857222739E-002
 Lowest  eigenvalues of input Hessian
    0.010000    0.010074    0.000000    0.000000    0.000000    0.000000
    0.000000    0.000000    0.010092    0.010170    0.010234    0.010271
    0.010373    0.010462    0.010485    0.010787    0.010928    0.011049
 Highest eigenvalues
    2.165499    2.184534    2.191941    2.195189    2.367699    2.370655


........................................................................
.............................. CYCLE   21 ..............................
........................................................................

 iter      E             dE          RMSdq      gap      omega  full diag
   1   -168.7618962 -0.168762E+03  0.217E-01    1.55       0.0  T
   2   -168.7619055 -0.931094E-05  0.165E-01    1.54       1.0  T
   3   -168.7605129  0.139257E-02  0.997E-02    1.55       1.0  T
   4   -168.7619533 -0.144035E-02  0.287E-02    1.54       1.0  T
   5   -168.7620879 -0.134636E-03  0.152E-02    1.54       1.0  T
   6   -168.7620975 -0.962546E-05  0.672E-03    1.54       1.4  T
   7   -168.7620961  0.147106E-05  0.405E-03    1.54       2.3  T
   8   -168.7620982 -0.212402E-05  0.130E-03    1.54       7.3  T
   9   -168.7620982 -0.366206E-07  0.468E-04    1.54      20.2  T
  10   -168.7620982 -0.934898E-08  0.179E-04    1.54      52.9  T
     SCC iter.                  ...        0 min,  0.581 sec
     gradient                   ...        0 min,  0.057 sec
 * total energy  :  -166.3416089 Eh     change       -0.5050374E-02 Eh
   gradient norm :     0.0394046 Eh/α   predicted     0.0000000E+00 (-100.00%)
   displ. norm   :     0.4998870 α      lambda       -0.7619368E-02
   maximum displ.:     0.3011100 α      in ANC's #9, #15, #10, ...

........................................................................
.............................. CYCLE   22 ..............................
........................................................................

 iter      E             dE          RMSdq      gap      omega  full diag
   1   -168.7729108 -0.168773E+03  0.137E-01    1.54       0.0  T
   2   -168.7729356 -0.247831E-04  0.818E-02    1.54       1.0  T
   3   -168.7727190  0.216583E-03  0.477E-02    1.55       1.0  T
   4   -168.7729290 -0.209910E-03  0.180E-02    1.54       1.0  T
   5   -168.7729571 -0.281061E-04  0.949E-03    1.55       1.0  T
   6   -168.7729566  0.413393E-06  0.819E-03    1.54       1.2  T
   7   -168.7729584 -0.175225E-05  0.370E-03    1.54       2.6  T
   8   -168.7729587 -0.265317E-06  0.264E-03    1.54       3.6  T
   9   -168.7729589 -0.214574E-06  0.164E-03    1.54       5.8  T
  10   -168.7729589  0.254059E-08  0.112E-03    1.54       8.4  T
  11   -168.7729589 -0.124066E-08  0.563E-04    1.54      16.8  T
  12   -168.7729589 -0.163795E-07  0.206E-04    1.54      45.8  T
     SCC iter.                  ...        0 min,  0.713 sec
     gradient                   ...        0 min,  0.038 sec
 * total energy  :  -166.3480909 Eh     change       -0.6481971E-02 Eh
   gradient norm :     0.0222055 Eh/α   predicted    -0.4827688E-02 ( -25.52%)
   displ. norm   :     0.7900102 α      lambda       -0.8597716E-02
   maximum displ.:     0.4814054 α      in ANC's #9, #15, #10, ...

........................................................................
.............................. CYCLE   23 ..............................
........................................................................

 iter      E             dE          RMSdq      gap      omega  full diag
   1   -168.7835028 -0.168784E+03  0.208E-01    1.55       0.0  T
   2   -168.7835276 -0.248321E-04  0.133E-01    1.55       1.0  T
   3   -168.7828367  0.690899E-03  0.677E-02    1.55       1.0  T
   4   -168.7835408 -0.704026E-03  0.175E-02    1.55       1.0  T
   5   -168.7835689 -0.281886E-04  0.856E-03    1.55       1.1  T
   6   -168.7835698 -0.866656E-06  0.524E-03    1.55       1.8  T
   7   -168.7835713 -0.145340E-05  0.268E-03    1.55       3.5  T
   8   -168.7835715 -0.191765E-06  0.176E-03    1.55       5.4  T
   9   -168.7835716 -0.108637E-06  0.103E-03    1.55       9.1  T
  10   -168.7835716 -0.376814E-07  0.690E-04    1.55      13.7  T
  11   -168.7835716 -0.313739E-08  0.426E-04    1.55      22.2  T
     SCC iter.                  ...        0 min,  0.618 sec
     gradient                   ...        0 min,  0.053 sec
 * total energy  :  -166.3556005 Eh     change       -0.7509617E-02 Eh
   gradient norm :     0.0148536 Eh/α   predicted    -0.6981850E-02 (  -7.03%)
   displ. norm   :     0.8726843 α      lambda       -0.7835152E-02
   maximum displ.:     0.5437246 α      in ANC's #9, #15, #10, ...

........................................................................
.............................. CYCLE   24 ..............................
........................................................................

 iter      E             dE          RMSdq      gap      omega  full diag
   1   -168.7895811 -0.168790E+03  0.216E-01    1.55       0.0  T
   2   -168.7896023 -0.212827E-04  0.146E-01    1.55       1.0  T
   3   -168.7892007  0.401610E-03  0.485E-02    1.55       1.0  T
   4   -168.7895758 -0.375089E-03  0.203E-02    1.55       1.0  T
   5   -168.7896240 -0.481360E-04  0.112E-02    1.55       1.0  T
   6   -168.7896277 -0.374463E-05  0.383E-03    1.55       2.5  T
   7   -168.7896281 -0.375270E-06  0.210E-03    1.55       4.5  T
   8   -168.7896282 -0.106177E-06  0.126E-03    1.55       7.5  T
   9   -168.7896283 -0.127984E-06  0.504E-04    1.55      18.8  T
  10   -168.7896283 -0.138917E-07  0.238E-04    1.55      39.7  T
     SCC iter.                  ...        0 min,  0.581 sec
     gradient                   ...        0 min,  0.036 sec
 * total energy  :  -166.3629933 Eh     change       -0.7392852E-02 Eh
   gradient norm :     0.0233505 Eh/α   predicted    -0.6901115E-02 (  -6.65%)
   displ. norm   :     0.8893200 α      lambda       -0.7851182E-02
   maximum displ.:     0.5483477 α      in ANC's #9, #15, #10, ...

........................................................................
.............................. CYCLE   25 ..............................
........................................................................

 iter      E             dE          RMSdq      gap      omega  full diag
   1   -168.7958944 -0.168796E+03  0.208E-01    1.55       0.0  T
   2   -168.7959132 -0.188359E-04  0.143E-01    1.55       1.0  T
   3   -168.7958459  0.673275E-04  0.244E-02    1.55       1.0  T
   4   -168.7959198 -0.738777E-04  0.141E-02    1.55       1.0  T
   5   -168.7959249 -0.516833E-05  0.699E-03    1.55       1.4  T
   6   -168.7959233  0.160131E-05  0.505E-03    1.55       1.9  T
   7   -168.7959261 -0.275598E-05  0.215E-03    1.55       4.4  T
   8   -168.7959261 -0.390821E-07  0.139E-03    1.55       6.8  T
   9   -168.7959262 -0.422710E-07  0.967E-04    1.55       9.8  T
  10   -168.7959262 -0.272280E-09  0.665E-04    1.55      14.2  T
     SCC iter.                  ...        0 min,  0.477 sec
     gradient                   ...        0 min,  0.037 sec
 * total energy  :  -166.3703642 Eh     change       -0.7370840E-02 Eh
   gradient norm :     0.0248292 Eh/α   predicted    -0.7030320E-02 (  -4.62%)
   displ. norm   :     0.8865770 α      lambda       -0.7582843E-02
   maximum displ.:     0.5498941 α      in ANC's #9, #15, #10, ...

........................................................................
.............................. CYCLE   26 ..............................
........................................................................

 iter      E             dE          RMSdq      gap      omega  full diag
   1   -168.8050960 -0.168805E+03  0.202E-01    1.55       0.0  T
   2   -168.8051059 -0.993785E-05  0.136E-01    1.56       1.0  T
   3   -168.8048292  0.276705E-03  0.426E-02    1.55       1.0  T
   4   -168.8051107 -0.281501E-03  0.133E-02    1.56       1.0  T
   5   -168.8051207 -0.100194E-04  0.756E-03    1.56       1.2  T
   6   -168.8051222 -0.146366E-05  0.362E-03    1.56       2.6  T
   7   -168.8051231 -0.924914E-06  0.190E-03    1.56       5.0  T
   8   -168.8051230  0.804919E-07  0.140E-03    1.56       6.8  T
   9   -168.8051231 -0.997767E-07  0.841E-04    1.56      11.2  T
  10   -168.8051232 -0.167502E-07  0.509E-04    1.56      18.6  T
     SCC iter.                  ...        0 min,  0.404 sec
     gradient                   ...        0 min,  0.042 sec
 * total energy  :  -166.3772638 Eh     change       -0.6899570E-02 Eh
   gradient norm :     0.0217723 Eh/α   predicted    -0.6771571E-02 (  -1.86%)
   displ. norm   :     0.8648907 α      lambda       -0.6656743E-02
   maximum displ.:     0.5309702 α      in ANC's #9, #15, #10, ...

........................................................................
.............................. CYCLE   27 ..............................
........................................................................

 iter      E             dE          RMSdq      gap      omega  full diag
   1   -168.8125400 -0.168813E+03  0.153E-01    1.55       0.0  T
   2   -168.8125476 -0.767709E-05  0.101E-01    1.56       1.0  T
   3   -168.8121921  0.355593E-03  0.506E-02    1.55       1.0  T
   4   -168.8125568 -0.364758E-03  0.139E-02    1.56       1.0  T
   5   -168.8125666 -0.981241E-05  0.782E-03    1.55       1.2  T
   6   -168.8125654  0.123854E-05  0.539E-03    1.56       1.8  T
   7   -168.8125673 -0.188610E-05  0.215E-03    1.56       4.4  T
   8   -168.8125675 -0.272259E-06  0.136E-03    1.55       7.0  T
   9   -168.8125676 -0.260210E-07  0.790E-04    1.56      12.0  T
  10   -168.8125676 -0.195885E-08  0.484E-04    1.56      19.5  T
     SCC iter.                  ...        0 min,  0.508 sec
     gradient                   ...        0 min,  0.043 sec
 * total energy  :  -166.3831139 Eh     change       -0.5850094E-02 Eh
   gradient norm :     0.0196075 Eh/α   predicted    -0.5818114E-02 (  -0.55%)
   displ. norm   :     0.8243048 α      lambda       -0.5605791E-02
   maximum displ.:     0.4893816 α      in ANC's #9, #15, #10, ...

........................................................................
.............................. CYCLE   28 ..............................
........................................................................

 iter      E             dE          RMSdq      gap      omega  full diag
   1   -168.8239544 -0.168824E+03  0.168E-01    1.55       0.0  T
   2   -168.8239717 -0.173235E-04  0.112E-01    1.55       1.0  T
   3   -168.8237412  0.230475E-03  0.456E-02    1.55       1.0  T
   4   -168.8239378 -0.196578E-03  0.196E-02    1.55       1.0  T
   5   -168.8239850 -0.471708E-04  0.873E-03    1.55       1.1  T
   6   -168.8239871 -0.215088E-05  0.527E-03    1.55       1.8  T
   7   -168.8239884 -0.130182E-05  0.218E-03    1.55       4.3  T
   8   -168.8239885 -0.101545E-06  0.169E-03    1.55       5.6  T
   9   -168.8239886 -0.875697E-07  0.973E-04    1.55       9.7  T
  10   -168.8239886 -0.133106E-07  0.562E-04    1.55      16.8  T
     SCC iter.                  ...        0 min,  0.644 sec
     gradient                   ...        0 min,  0.036 sec
 * total energy  :  -166.3876555 Eh     change       -0.4541620E-02 Eh
   gradient norm :     0.0153214 Eh/α   predicted    -0.4707408E-02 (   3.65%)
   displ. norm   :     0.8014147 α      lambda       -0.4448970E-02
   maximum displ.:     0.4773568 α      in ANC's #9, #15, #10, ...

........................................................................
.............................. CYCLE   29 ..............................
........................................................................

 iter      E             dE          RMSdq      gap      omega  full diag
   1   -168.8208082 -0.168821E+03  0.859E-02    1.55       0.0  T
   2   -168.8208238 -0.156089E-04  0.549E-02    1.55       1.0  T
   3   -168.8208188  0.497662E-05  0.149E-02    1.55       1.0  T
   4   -168.8208250 -0.618473E-05  0.732E-03    1.55       1.3  T
   5   -168.8208261 -0.103686E-05  0.508E-03    1.55       1.9  T
   6   -168.8208262 -0.180884E-06  0.271E-03    1.55       3.5  T
   7   -168.8208269 -0.627235E-06  0.109E-03    1.55       8.7  T
   8   -168.8208270 -0.880352E-07  0.526E-04    1.55      18.0  T
   9   -168.8208270 -0.199833E-07  0.268E-04    1.55      35.3  T
     SCC iter.                  ...        0 min,  0.521 sec
     gradient                   ...        0 min,  0.041 sec
 * total energy  :  -166.3907754 Eh     change       -0.3119936E-02 Eh
   gradient norm :     0.0214104 Eh/α   predicted    -0.3653197E-02 (  17.09%)
   displ. norm   :     0.6474679 α      lambda       -0.3154431E-02
   maximum displ.:     0.3776044 α      in ANC's #9, #15, #10, ...

........................................................................
.............................. CYCLE   30 ..............................
........................................................................

 iter      E             dE          RMSdq      gap      omega  full diag
   1   -168.8341923 -0.168834E+03  0.129E-01    1.55       0.0  T
   2   -168.8342167 -0.244490E-04  0.846E-02    1.54       1.0  T
   3   -168.8341884  0.283118E-04  0.297E-02    1.55       1.0  T
   4   -168.8342199 -0.314556E-04  0.117E-02    1.54       1.0  T
   5   -168.8342207 -0.832292E-06  0.852E-03    1.55       1.1  T
   6   -168.8342200  0.706844E-06  0.569E-03    1.54       1.7  T
   7   -168.8342245 -0.454942E-05  0.152E-03    1.54       6.2  T
   8   -168.8342246 -0.335111E-07  0.900E-04    1.54      10.5  T
   9   -168.8342246 -0.998358E-08  0.615E-04    1.54      15.4  T
     SCC iter.                  ...        0 min,  0.695 sec
     gradient                   ...        0 min,  0.037 sec
 * total energy  :  -166.3926526 Eh     change       -0.1877238E-02 Eh
   gradient norm :     0.0192110 Eh/α   predicted    -0.2238409E-02 (  19.24%)
   displ. norm   :     0.5902255 α      lambda       -0.2475383E-02
   maximum displ.:     0.3327231 α      in ANC's #9, #15, #10, ...

........................................................................
.............................. CYCLE   31 ..............................
........................................................................

 iter      E             dE          RMSdq      gap      omega  full diag
   1   -168.8295118 -0.168830E+03  0.960E-02    1.54       0.0  T
   2   -168.8295361 -0.243237E-04  0.685E-02    1.54       1.0  T
   3   -168.8295207  0.153820E-04  0.250E-02    1.54       1.0  T
   4   -168.8294801  0.406473E-04  0.225E-02    1.54       1.0  T
   5   -168.8295415 -0.613653E-04  0.115E-02    1.54       1.0  T
   6   -168.8295421 -0.651853E-06  0.397E-03    1.54       2.4  T
   7   -168.8295427 -0.636248E-06  0.185E-03    1.54       5.1  T
   8   -168.8295429 -0.107378E-06  0.112E-03    1.54       8.5  T
   9   -168.8295429 -0.559689E-07  0.629E-04    1.54      15.0  T
  10   -168.8295429 -0.854712E-08  0.254E-04    1.54      37.1  T
     SCC iter.                  ...        0 min,  0.536 sec
     gradient                   ...        0 min,  0.036 sec
 * total energy  :  -166.3937822 Eh     change       -0.1129528E-02 Eh
   gradient norm :     0.0201050 Eh/α   predicted    -0.1668863E-02 (  47.75%)
   displ. norm   :     0.3909341 α      lambda       -0.1516800E-02
   maximum displ.:     0.1988482 α      in ANC's #9, #17, #7, ...

........................................................................
.............................. CYCLE   32 ..............................
........................................................................

 iter      E             dE          RMSdq      gap      omega  full diag
   1   -168.8321165 -0.168832E+03  0.923E-02    1.54       0.0  T
   2   -168.8321283 -0.117993E-04  0.587E-02    1.54       1.0  T
   3   -168.8321242  0.411630E-05  0.292E-02    1.54       1.0  T
   4   -168.8321330 -0.878136E-05  0.192E-02    1.54       1.0  T
   5   -168.8321135  0.194485E-04  0.141E-02    1.54       1.0  T
   6   -168.8321328 -0.192720E-04  0.331E-03    1.54       2.9  T
   7   -168.8321341 -0.129007E-05  0.171E-03    1.54       5.5  T
   8   -168.8321341 -0.107980E-07  0.890E-04    1.54      10.6  T
   9   -168.8321341 -0.320337E-07  0.367E-04    1.54      25.7  T
     SCC iter.                  ...        0 min,  0.489 sec
     gradient                   ...        0 min,  0.038 sec
 * total energy  :  -166.3940913 Eh     change       -0.3091334E-03 Eh
   gradient norm :     0.0238469 Eh/α   predicted    -0.8743113E-03 ( 182.83%)
   displ. norm   :     0.2544161 α      lambda       -0.1826113E-02
   maximum displ.:     0.0931489 α      in ANC's #9, #4, #7, ...

........................................................................
.............................. CYCLE   33 ..............................
........................................................................

 iter      E             dE          RMSdq      gap      omega  full diag
   1   -168.8393491 -0.168839E+03  0.971E-02    1.54       0.0  T
   2   -168.8393757 -0.265426E-04  0.551E-02    1.54       1.0  T
   3   -168.8393725  0.317122E-05  0.318E-02    1.54       1.0  T
   4   -168.8393803 -0.776446E-05  0.154E-02    1.54       1.0  T
   5   -168.8393783  0.191329E-05  0.107E-02    1.54       1.0  T
   6   -168.8393796 -0.129415E-05  0.346E-03    1.54       2.7  T
   7   -168.8393808 -0.120768E-05  0.153E-03    1.54       6.2  T
   8   -168.8393809 -0.105031E-06  0.660E-04    1.54      14.3  T
   9   -168.8393810 -0.862056E-08  0.327E-04    1.54      28.9  T
     SCC iter.                  ...        0 min,  0.565 sec
     gradient                   ...        0 min,  0.038 sec
 * total energy  :  -166.3944782 Eh     change       -0.3868493E-03 Eh
   gradient norm :     0.0218593 Eh/α   predicted    -0.9721580E-03 ( 151.30%)
   displ. norm   :     0.2320666 α      lambda       -0.1767856E-02
   maximum displ.:     0.0889354 α      in ANC's #72, #21, #9, ...

........................................................................
.............................. CYCLE   34 ..............................
........................................................................

 iter      E             dE          RMSdq      gap      omega  full diag
   1   -168.8342304 -0.168834E+03  0.931E-02    1.54       0.0  T
   2   -168.8342619 -0.315481E-04  0.563E-02    1.54       1.0  T
   3   -168.8342623 -0.402323E-06  0.280E-02    1.54       1.0  T
   4   -168.8342660 -0.366996E-05  0.115E-02    1.54       1.0  T
   5   -168.8342617  0.434010E-05  0.858E-03    1.54       1.1  T
   6   -168.8342659 -0.429542E-05  0.344E-03    1.54       2.7  T
   7   -168.8342674 -0.149695E-05  0.140E-03    1.54       6.7  T
   8   -168.8342675 -0.618661E-07  0.786E-04    1.54      12.0  T
   9   -168.8342675 -0.955717E-08  0.490E-04    1.54      19.3  T
     SCC iter.                  ...        0 min,  0.478 sec
     gradient                   ...        0 min,  0.040 sec
 * total energy  :  -166.3947249 Eh     change       -0.2467408E-03 Eh
   gradient norm :     0.0222736 Eh/α   predicted    -0.9315358E-03 ( 277.54%)
   displ. norm   :     0.1689962 α      lambda       -0.1416109E-02
   maximum displ.:     0.0978148 α      in ANC's #17, #4, #18, ...

........................................................................
.............................. CYCLE   35 ..............................
........................................................................

 iter      E             dE          RMSdq      gap      omega  full diag
   1   -168.8362003 -0.168836E+03  0.783E-02    1.54       0.0  T
   2   -168.8362219 -0.216009E-04  0.468E-02    1.54       1.0  T
   3   -168.8362221 -0.163957E-06  0.247E-02    1.54       1.0  T
   4   -168.8362248 -0.274912E-05  0.105E-02    1.54       1.0  T
   5   -168.8362223  0.254773E-05  0.672E-03    1.54       1.4  T
   6   -168.8362248 -0.255811E-05  0.210E-03    1.54       4.5  T
   7   -168.8362251 -0.297197E-06  0.922E-04    1.54      10.2  T
   8   -168.8362251 -0.386011E-07  0.534E-04    1.54      17.7  T
     SCC iter.                  ...        0 min,  0.409 sec
     gradient                   ...        0 min,  0.039 sec
 * total energy  :  -166.3952975 Eh     change       -0.5726223E-03 Eh
   gradient norm :     0.0127059 Eh/α   predicted    -0.7282767E-03 (  27.18%)
   displ. norm   :     0.2408959 α      lambda       -0.8290734E-03
   maximum displ.:     0.1012323 α      in ANC's #7, #9, #4, ...

........................................................................
.............................. CYCLE   36 ..............................
........................................................................

 iter      E             dE          RMSdq      gap      omega  full diag
   1   -168.8415295 -0.168842E+03  0.564E-02    1.54       0.0  T
   2   -168.8415434 -0.138828E-04  0.302E-02    1.54       1.0  T
   3   -168.8415431  0.296951E-06  0.190E-02    1.54       1.0  T
   4   -168.8415452 -0.209672E-05  0.101E-02    1.54       1.0  T
   5   -168.8415437  0.153110E-05  0.794E-03    1.54       1.2  T
   6   -168.8415448 -0.109522E-05  0.304E-03    1.54       3.1  T
   7   -168.8415459 -0.115439E-05  0.105E-03    1.54       9.0  T
   8   -168.8415459 -0.253487E-07  0.608E-04    1.54      15.5  T
   9   -168.8415459 -0.211892E-08  0.317E-04    1.54      29.8  T
     SCC iter.                  ...        0 min,  0.591 sec
     gradient                   ...        0 min,  0.040 sec
 * total energy  :  -166.3953677 Eh     change       -0.7017034E-04 Eh
   gradient norm :     0.0179418 Eh/α   predicted    -0.4385944E-03 ( 525.04%)
   displ. norm   :     0.2485513 α      lambda       -0.9757808E-03
   maximum displ.:     0.1157964 α      in ANC's #17, #7, #4, ...

........................................................................
.............................. CYCLE   37 ..............................
........................................................................

 iter      E             dE          RMSdq      gap      omega  full diag
   1   -168.8353814 -0.168835E+03  0.549E-02    1.54       0.0  T
   2   -168.8353921 -0.107653E-04  0.337E-02    1.54       1.0  T
   3   -168.8353898  0.236442E-05  0.154E-02    1.54       1.0  T
   4   -168.8353933 -0.351593E-05  0.555E-03    1.54       1.7  T
   5   -168.8353940 -0.685107E-06  0.393E-03    1.54       2.4  T
   6   -168.8353939  0.753992E-07  0.174E-03    1.54       5.4  T
   7   -168.8353942 -0.311002E-06  0.732E-04    1.54      12.9  T
   8   -168.8353943 -0.402320E-07  0.331E-04    1.54      28.5  T
     SCC iter.                  ...        0 min,  0.413 sec
     gradient                   ...        0 min,  0.041 sec
 * total energy  :  -166.3958267 Eh     change       -0.4590383E-03 Eh
   gradient norm :     0.0130017 Eh/α   predicted    -0.5180346E-03 (  12.85%)
   displ. norm   :     0.2553020 α      lambda       -0.7509835E-03
   maximum displ.:     0.1108691 α      in ANC's #17, #4, #13, ...

........................................................................
.............................. CYCLE   38 ..............................
........................................................................

 iter      E             dE          RMSdq      gap      omega  full diag
   1   -168.8390929 -0.168839E+03  0.550E-02    1.54       0.0  T
   2   -168.8390979 -0.502036E-05  0.343E-02    1.55       1.0  T
   3   -168.8390948  0.315840E-05  0.144E-02    1.54       1.0  T
   4   -168.8390985 -0.372374E-05  0.784E-03    1.55       1.2  T
   5   -168.8390978  0.651780E-06  0.627E-03    1.54       1.5  T
   6   -168.8390982 -0.364724E-06  0.314E-03    1.54       3.0  T
   7   -168.8390995 -0.131522E-05  0.869E-04    1.54      10.9  T
   8   -168.8390995 -0.267747E-08  0.548E-04    1.54      17.3  T
   9   -168.8390995 -0.610814E-08  0.301E-04    1.54      31.4  T
     SCC iter.                  ...        0 min,  0.435 sec
     gradient                   ...        0 min,  0.036 sec
 * total energy  :  -166.3961367 Eh     change       -0.3099547E-03 Eh
   gradient norm :     0.0137919 Eh/α   predicted    -0.3999709E-03 (  29.04%)
   displ. norm   :     0.3350991 α      lambda       -0.6037670E-03
   maximum displ.:     0.1521578 α      in ANC's #4, #17, #7, ...

........................................................................
.............................. CYCLE   39 ..............................
........................................................................

 iter      E             dE          RMSdq      gap      omega  full diag
   1   -168.8385990 -0.168839E+03  0.357E-02    1.54       0.0  T
   2   -168.8386012 -0.211305E-05  0.225E-02    1.55       1.0  T
   3   -168.8385991  0.209841E-05  0.617E-03    1.54       1.5  T
   4   -168.8386007 -0.164577E-05  0.326E-03    1.55       2.9  T
   5   -168.8386016 -0.920320E-06  0.187E-03    1.55       5.0  T
   6   -168.8386015  0.835938E-07  0.140E-03    1.55       6.8  T
   7   -168.8386017 -0.182164E-06  0.413E-04    1.55      22.9  T
   8   -168.8386017 -0.280704E-08  0.248E-04    1.55      38.1  T
     SCC iter.                  ...        0 min,  0.382 sec
     gradient                   ...        0 min,  0.039 sec
 * total energy  :  -166.3965948 Eh     change       -0.4580942E-03 Eh
   gradient norm :     0.0092957 Eh/α   predicted    -0.3357921E-03 ( -26.70%)
   displ. norm   :     0.5980746 α      lambda       -0.8545911E-03
   maximum displ.:     0.2757263 α      in ANC's #4, #7, #17, ...

........................................................................
.............................. CYCLE   40 ..............................
........................................................................

 iter      E             dE          RMSdq      gap      omega  full diag
   1   -168.8370951 -0.168837E+03  0.594E-02    1.54       0.0  T
   2   -168.8370992 -0.406110E-05  0.358E-02    1.55       1.0  T
   3   -168.8370876  0.115941E-04  0.129E-02    1.54       1.0  T
   4   -168.8371004 -0.128174E-04  0.592E-03    1.54       1.6  T
   5   -168.8371009 -0.490871E-06  0.439E-03    1.54       2.2  T
   6   -168.8371001  0.780937E-06  0.311E-03    1.54       3.0  T
   7   -168.8371012 -0.110478E-05  0.788E-04    1.54      12.0  T
   8   -168.8371013 -0.236898E-07  0.457E-04    1.54      20.7  T
   9   -168.8371013 -0.385680E-08  0.223E-04    1.54      42.3  T
     SCC iter.                  ...        0 min,  0.433 sec
     gradient                   ...        0 min,  0.035 sec
 * total energy  :  -166.3971734 Eh     change       -0.5786656E-03 Eh
   gradient norm :     0.0084345 Eh/α   predicted    -0.5801384E-03 (   0.25%)
   displ. norm   :     0.5824334 α      lambda       -0.6375418E-03
   maximum displ.:     0.2820897 α      in ANC's #4, #7, #17, ...

........................................................................
.............................. CYCLE   41 ..............................
........................................................................

 iter      E             dE          RMSdq      gap      omega  full diag
   1   -168.8377681 -0.168838E+03  0.525E-02    1.54       0.0  T
   2   -168.8377703 -0.221234E-05  0.319E-02    1.54       1.0  T
   3   -168.8377610  0.929093E-05  0.954E-03    1.54       1.0  T
   4   -168.8377704 -0.939971E-05  0.411E-03    1.54       2.3  T
   5   -168.8377713 -0.904919E-06  0.273E-03    1.54       3.5  T
   6   -168.8377714 -0.252532E-07  0.184E-03    1.54       5.1  T
   7   -168.8377716 -0.249075E-06  0.542E-04    1.54      17.4  T
   8   -168.8377716 -0.137053E-07  0.333E-04    1.54      28.4  T
     SCC iter.                  ...        0 min,  0.516 sec
     gradient                   ...        0 min,  0.043 sec
 * total energy  :  -166.3976317 Eh     change       -0.4583057E-03 Eh
   gradient norm :     0.0090409 Eh/α   predicted    -0.4269090E-03 (  -6.85%)
   displ. norm   :     0.5472257 α      lambda       -0.5103735E-03
   maximum displ.:     0.2858885 α      in ANC's #4, #7, #17, ...

........................................................................
.............................. CYCLE   42 ..............................
........................................................................

 iter      E             dE          RMSdq      gap      omega  full diag
   1   -168.8394680 -0.168839E+03  0.498E-02    1.54       0.0  T
   2   -168.8394706 -0.257082E-05  0.297E-02    1.54       1.0  T
   3   -168.8394636  0.703464E-05  0.995E-03    1.54       1.0  T
   4   -168.8394715 -0.797557E-05  0.461E-03    1.54       2.1  T
   5   -168.8394718 -0.203596E-06  0.362E-03    1.54       2.6  T
   6   -168.8394711  0.678384E-06  0.258E-03    1.54       3.7  T
   7   -168.8394718 -0.752703E-06  0.648E-04    1.54      14.6  T
   8   -168.8394718 -0.225397E-07  0.374E-04    1.54      25.3  T
     SCC iter.                  ...        0 min,  0.392 sec
     gradient                   ...        0 min,  0.041 sec
 * total energy  :  -166.3979727 Eh     change       -0.3409200E-03 Eh
   gradient norm :     0.0079880 Eh/α   predicted    -0.3316067E-03 (  -2.73%)
   displ. norm   :     0.4675332 α      lambda       -0.4178551E-03
   maximum displ.:     0.2635765 α      in ANC's #4, #7, #17, ...
 * RMSD in coord.:     0.8976488 α      energy gain  -0.6141414E-01 Eh

generating ANC from model Hessian ...
Using Lindh-Hessian (1995)
 Shifting diagonal of input Hessian by    9.9769230071773077E-003
 Lowest  eigenvalues of input Hessian
    0.000000    0.000000    0.000000    0.000000    0.000000    0.000000
    0.010000    0.010036    0.010056    0.010073    0.010145    0.010188
    0.010337    0.010480    0.010631    0.010887    0.010925    0.011055
 Highest eigenvalues
    2.153471    2.175668    2.194564    2.194671    2.373385    2.373842


........................................................................
.............................. CYCLE   43 ..............................
........................................................................

 iter      E             dE          RMSdq      gap      omega  full diag
   1   -168.8409233 -0.168841E+03  0.441E-02    1.54       0.0  T
   2   -168.8409259 -0.259603E-05  0.266E-02    1.54       1.0  T
   3   -168.8409212  0.467267E-05  0.853E-03    1.53       1.1  T
   4   -168.8409265 -0.526921E-05  0.401E-03    1.54       2.4  T
   5   -168.8409267 -0.288818E-06  0.305E-03    1.53       3.1  T
   6   -168.8409263  0.401279E-06  0.217E-03    1.54       4.3  T
   7   -168.8409268 -0.471740E-06  0.630E-04    1.54      15.0  T
   8   -168.8409268 -0.172822E-07  0.368E-04    1.54      25.7  T
     SCC iter.                  ...        0 min,  0.462 sec
     gradient                   ...        0 min,  0.047 sec
 * total energy  :  -166.3982125 Eh     change       -0.2398168E-03 Eh
   gradient norm :     0.0082369 Eh/α   predicted     0.0000000E+00 (-100.00%)
   displ. norm   :     0.0890999 α      lambda       -0.2168267E-03
   maximum displ.:     0.0363331 α      in ANC's #4, #25, #36, ...

........................................................................
.............................. CYCLE   44 ..............................
........................................................................

 iter      E             dE          RMSdq      gap      omega  full diag
   1   -168.8421618 -0.168842E+03  0.155E-02    1.53       0.0  T
   2   -168.8421623 -0.473823E-06  0.110E-02    1.54       1.0  T
   3   -168.8421618  0.432786E-06  0.374E-03    1.54       2.5  T
   4   -168.8421613  0.562497E-06  0.341E-03    1.54       2.8  T
   5   -168.8421623 -0.104149E-05  0.200E-03    1.54       4.7  T
   6   -168.8421624 -0.817659E-07  0.771E-04    1.54      12.2  T
   7   -168.8421624 -0.302100E-07  0.247E-04    1.54      38.3  T
     SCC iter.                  ...        0 min,  0.276 sec
     gradient                   ...        0 min,  0.036 sec
 * total energy  :  -166.3983788 Eh     change       -0.1663049E-03 Eh
   gradient norm :     0.0032550 Eh/α   predicted    -0.1093209E-03 ( -34.26%)
   displ. norm   :     0.1871094 α      lambda       -0.2219266E-03
   maximum displ.:     0.0852010 α      in ANC's #4, #25, #20, ...

........................................................................
.............................. CYCLE   45 ..............................
........................................................................

 iter      E             dE          RMSdq      gap      omega  full diag
   1   -168.8432068 -0.168843E+03  0.205E-02    1.54       0.0  T
   2   -168.8432081 -0.125800E-05  0.144E-02    1.54       1.0  T
   3   -168.8432077  0.372940E-06  0.544E-03    1.54       1.7  T
   4   -168.8432072  0.540955E-06  0.386E-03    1.54       2.4  T
   5   -168.8432082 -0.103010E-05  0.246E-03    1.54       3.8  T
   6   -168.8432083 -0.129979E-06  0.124E-03    1.54       7.6  T
   7   -168.8432084 -0.548318E-07  0.458E-04    1.54      20.6  T
   8   -168.8432084 -0.819938E-09  0.245E-04    1.54      38.5  T
     SCC iter.                  ...        0 min,  0.298 sec
     gradient                   ...        0 min,  0.037 sec
 * total energy  :  -166.3985281 Eh     change       -0.1492841E-03 Eh
   gradient norm :     0.0033869 Eh/α   predicted    -0.1148493E-03 ( -23.07%)
   displ. norm   :     0.1769196 α      lambda       -0.1140839E-03
   maximum displ.:     0.0899939 α      in ANC's #4, #25, #20, ...

........................................................................
.............................. CYCLE   46 ..............................
........................................................................

 iter      E             dE          RMSdq      gap      omega  full diag
   1   -168.8431562 -0.168843E+03  0.166E-02    1.54       0.0  T
   2   -168.8431567 -0.483734E-06  0.104E-02    1.54       1.0  T
   3   -168.8431563  0.389981E-06  0.286E-03    1.54       3.3  T
   4   -168.8431566 -0.233288E-06  0.177E-03    1.54       5.3  T
   5   -168.8431568 -0.263546E-06  0.109E-03    1.54       8.7  T
   6   -168.8431568 -0.226333E-07  0.639E-04    1.54      14.8  T
   7   -168.8431569 -0.101788E-07  0.278E-04    1.54      34.0  T
     SCC iter.                  ...        0 min,  0.294 sec
     gradient                   ...        0 min,  0.036 sec
 * total energy  :  -166.3986196 Eh     change       -0.9153270E-04 Eh
   gradient norm :     0.0046565 Eh/α   predicted    -0.5923805E-04 ( -35.28%)
   displ. norm   :     0.2683486 α      lambda       -0.1590442E-03
   maximum displ.:     0.1423934 α      in ANC's #4, #25, #20, ...

........................................................................
.............................. CYCLE   47 ..............................
........................................................................

 iter      E             dE          RMSdq      gap      omega  full diag
   1   -168.8422569 -0.168842E+03  0.259E-02    1.54       0.0  T
   2   -168.8422576 -0.681185E-06  0.156E-02    1.54       1.0  T
   3   -168.8422559  0.162176E-05  0.404E-03    1.54       2.3  T
   4   -168.8422576 -0.167102E-05  0.158E-03    1.54       6.0  T
   5   -168.8422578 -0.210474E-06  0.865E-04    1.54      10.9  T
   6   -168.8422578 -0.468901E-09  0.612E-04    1.54      15.5  T
     SCC iter.                  ...        0 min,  0.241 sec
     gradient                   ...        0 min,  0.036 sec
 * total energy  :  -166.3987431 Eh     change       -0.1235206E-03 Eh
   gradient norm :     0.0043537 Eh/α   predicted    -0.8524932E-04 ( -30.98%)
   displ. norm   :     0.2895568 α      lambda       -0.1565498E-03
   maximum displ.:     0.1649382 α      in ANC's #4, #25, #20, ...

........................................................................
.............................. CYCLE   48 ..............................
........................................................................

 iter      E             dE          RMSdq      gap      omega  full diag
   1   -168.8411478 -0.168841E+03  0.280E-02    1.54       0.0  T
   2   -168.8411484 -0.669837E-06  0.171E-02    1.54       1.0  T
   3   -168.8411463  0.217381E-05  0.449E-03    1.54       2.1  T
   4   -168.8411487 -0.238474E-05  0.192E-03    1.54       4.9  T
   5   -168.8411487 -0.449883E-07  0.138E-03    1.54       6.8  T
   6   -168.8411487 -0.100009E-07  0.906E-04    1.54      10.4  T
   7   -168.8411488 -0.742830E-07  0.359E-04    1.54      26.3  T
     SCC iter.                  ...        0 min,  0.426 sec
[...]
   101   1 H        0.925     0.047     2.363     2.404
   102   1 H        0.925     0.054     2.269     2.356
   103   1 H        0.925     0.069     2.094     2.263
   104   1 H        0.925     0.053     2.280     2.361
   105   1 H        0.925     0.075     2.030     2.228
   106   1 H        0.925     0.048     2.351     2.398
   107   1 H        0.925     0.044     2.402     2.424
   108   1 H        0.925     0.055     2.260     2.351
   109   1 H        0.925     0.068     2.107     2.270
   110   1 H        0.925     0.055     2.256     2.349
   111   1 H        0.925     0.076     2.023     2.224
   112   1 H        0.925     0.047     2.354     2.399

 Mol. C6AA /au·bohr⁶  :     144227.493972
 Mol. C8AA /au·bohr⁸  :    3542148.772713
 Mol. α(0) /au        :        592.936006


Wiberg/Mayer (AO) data.
largest (>0.10) Wiberg bond orders for each atom

 ---------------------------------------------------------------------------
     #   Z sym  total        # sym  WBO       # sym  WBO       # sym  WBO
 ---------------------------------------------------------------------------
     1   6 C    3.983 --     2 C    1.545     6 C    1.297   100 H    0.967
     2   6 C    3.974 --     1 C    1.545     3 C    1.282    99 H    0.956
     3   6 C    3.973 --     4 C    1.423     2 C    1.282    30 C    1.090
     4   6 C    3.981 --     3 C    1.423     5 C    1.334    98 H    0.946
     5   6 C    3.987 --     4 C    1.334     6 C    1.268     7 C    1.172
     6   6 C    3.986 --     1 C    1.297     5 C    1.268    10 C    1.225
     7   6 C    3.978 --     8 C    1.295    11 C    1.262     5 C    1.172
     8   6 C    3.984 --     7 C    1.295    14 C    1.281     9 C    1.221
     9   6 C    3.975 --    10 C    1.620     8 C    1.221    89 H    0.967
    10   6 C    3.977 --     9 C    1.620     6 C    1.225    90 H    0.966
    11   6 C    3.975 --    12 C    1.287     7 C    1.262    15 C    1.174
    12   6 C    3.947 --    13 C    1.300    11 C    1.287    43 N    1.142
    13   6 C    3.978 --    14 C    1.537    12 C    1.300    87 H    0.964
    14   6 C    3.960 --    13 C    1.537     8 C    1.281    88 H    0.968
    15   6 C    3.975 --    16 C    1.288    17 C    1.261    11 C    1.174
    16   6 C    3.947 --    20 C    1.300    15 C    1.288    43 N    1.142
    17   6 C    3.978 --    18 C    1.295    15 C    1.261    21 C    1.173
    18   6 C    3.984 --    17 C    1.295    19 C    1.280    24 C    1.222
    19   6 C    3.960 --    20 C    1.537    18 C    1.280    96 H    0.968
    20   6 C    3.978 --    19 C    1.537    16 C    1.300    97 H    0.965
    21   6 C    3.987 --    28 C    1.333    22 C    1.267    17 C    1.173
    22   6 C    3.986 --    27 C    1.297    21 C    1.267    23 C    1.225
    23   6 C    3.977 --    24 C    1.620    22 C    1.225    94 H    0.967
    24   6 C    3.975 --    23 C    1.620    18 C    1.222    95 H    0.967
    25   6 C    3.973 --    28 C    1.423    26 C    1.282    29 C    1.090
    26   6 C    3.975 --    27 C    1.545    25 C    1.282    92 H    0.956
    27   6 C    3.983 --    26 C    1.545    22 C    1.297    93 H    0.967
    28   6 C    3.981 --    25 C    1.423    21 C    1.333    91 H    0.947
    29   6 C    3.942 --    56 N    1.250    58 N    1.244    25 C    1.090
                            57 O    0.140    59 O    0.137
    30   6 C    3.942 --    54 N    1.250    52 N    1.245     3 C    1.090
                            55 O    0.140    53 O    0.137
    31   6 C    3.967 --    33 C    0.997    34 C    0.982    32 C    0.960
                            54 N    0.914
    32   6 C    3.967 --    35 C    0.998    36 C    0.980    31 C    0.960
                            52 N    0.915
    33   6 C    3.988 --    31 C    0.997   106 H    0.982   104 H    0.981
                           105 H    0.977
    34   6 C    3.988 --    31 C    0.982   101 H    0.981   102 H    0.981
                           103 H    0.977
    35   6 C    3.988 --    32 C    0.998   112 H    0.983   110 H    0.981
                           111 H    0.977
    36   6 C    3.989 --   107 H    0.984   108 H    0.981    32 C    0.980
                           109 H    0.980
    37   6 C    3.967 --    40 C    0.997    39 C    0.982    38 C    0.960
                            56 N    0.914
    38   6 C    3.967 --    41 C    0.998    42 C    0.980    37 C    0.960
                            58 N    0.915
    39   6 C    3.988 --    37 C    0.982    60 H    0.981    61 H    0.981
                            62 H    0.978
    40   6 C    3.989 --    37 C    0.997    65 H    0.982    63 H    0.981
                            64 H    0.978
    41   6 C    3.988 --    38 C    0.998    71 H    0.983    69 H    0.981
                            70 H    0.977
    42   6 C    3.989 --    66 H    0.984    67 H    0.981    38 C    0.980
                            68 H    0.980
    43   7 N    3.547 --    12 C    1.142    16 C    1.142    51 C    1.009
    44  14 Si   3.618 --    50 C    0.902    49 C    0.901    48 C    0.895
                            45 C    0.846
    45   6 C    3.969 --    46 C    1.023    73 H    0.982    72 H    0.980
                            44 Si   0.846
    46   6 C    3.945 --    45 C    1.023    74 H    0.972    75 H    0.971
                            47 O    0.966
    47   8 O    2.069 --    51 C    0.980    46 C    0.966
    48   6 C    3.980 --    82 H    0.991    83 H    0.988    81 H    0.987
                            44 Si   0.895
    49   6 C    3.981 --    84 H    0.988    85 H    0.987    86 H    0.986
                            44 Si   0.901
    50   6 C    3.981 --    80 H    0.988    78 H    0.987    79 H    0.986
                            44 Si   0.902
    51   6 C    3.956 --    43 N    1.009    47 O    0.980    76 H    0.955
                            77 H    0.954
    52   7 N    3.703 --    53 O    1.306    30 C    1.245    32 C    0.915
    53   8 O    1.742 --    52 N    1.306    30 C    0.137
    54   7 N    3.707 --    55 O    1.303    30 C    1.250    31 C    0.914
    55   8 O    1.747 --    54 N    1.303    30 C    0.140
    56   7 N    3.707 --    57 O    1.302    29 C    1.250    37 C    0.914
    57   8 O    1.745 --    56 N    1.302    29 C    0.140
    58   7 N    3.703 --    59 O    1.307    29 C    1.244    38 C    0.915
    59   8 O    1.743 --    58 N    1.307    29 C    0.137
    60   1 H    0.998 --    39 C    0.981
    61   1 H    0.996 --    39 C    0.981
    62   1 H    0.995 --    39 C    0.978
    63   1 H    0.997 --    40 C    0.981
    64   1 H    0.994 --    40 C    0.978
    65   1 H    0.997 --    40 C    0.982
    66   1 H    0.998 --    42 C    0.984
    67   1 H    0.996 --    42 C    0.981
    68   1 H    0.995 --    42 C    0.980
    69   1 H    0.997 --    41 C    0.981
    70   1 H    0.994 --    41 C    0.977
    71   1 H    0.997 --    41 C    0.983
    72   1 H    0.998 --    45 C    0.980
    73   1 H    0.998 --    45 C    0.982
    74   1 H    1.000 --    46 C    0.972
    75   1 H    1.000 --    46 C    0.971
    76   1 H    0.998 --    51 C    0.955
    77   1 H    0.998 --    51 C    0.954
    78   1 H    0.999 --    50 C    0.987
    79   1 H    0.998 --    50 C    0.986
    80   1 H    0.999 --    50 C    0.988
    81   1 H    0.999 --    48 C    0.987
    82   1 H    0.999 --    48 C    0.991
    83   1 H    0.999 --    48 C    0.988
    84   1 H    0.999 --    49 C    0.988
    85   1 H    0.999 --    49 C    0.987
    86   1 H    0.999 --    49 C    0.986
    87   1 H    0.998 --    13 C    0.964
    88   1 H    0.998 --    14 C    0.968
    89   1 H    0.998 --     9 C    0.967
    90   1 H    0.998 --    10 C    0.966
    91   1 H    0.993 --    28 C    0.947
    92   1 H    0.993 --    26 C    0.956
    93   1 H    0.998 --    27 C    0.967
    94   1 H    0.998 --    23 C    0.967
    95   1 H    0.998 --    24 C    0.967
    96   1 H    0.998 --    19 C    0.968
    97   1 H    0.998 --    20 C    0.965
    98   1 H    0.992 --     4 C    0.946
    99   1 H    0.993 --     2 C    0.956
   100   1 H    0.998 --     1 C    0.967
   101   1 H    0.998 --    34 C    0.981
   102   1 H    0.996 --    34 C    0.981
   103   1 H    0.995 --    34 C    0.977
   104   1 H    0.997 --    33 C    0.981
   105   1 H    0.994 --    33 C    0.977
   106   1 H    0.997 --    33 C    0.982
   107   1 H    0.998 --    36 C    0.984
   108   1 H    0.996 --    36 C    0.981
   109   1 H    0.995 --    36 C    0.980
   110   1 H    0.997 --    35 C    0.981
   111   1 H    0.994 --    35 C    0.977
   112   1 H    0.997 --    35 C    0.983
 ---------------------------------------------------------------------------

Topologies differ in bond orders
Writing corrected topology to xtbtopo.mol

molecular dipole:
                 x           y           z       tot (Debye)
 q only:        1.158       0.565       0.595
   full:        1.339       0.775       0.462       4.105
molecular quadrupole (traceless):
                xx          xy          yy          xz          yz          zz
 q only:      -16.173     -10.673      22.092      15.301     -20.014      -5.919
  q+dip:      -14.194     -14.362      33.434      12.265     -18.554     -19.240
   full:      -17.519     -12.296      27.604       8.147     -21.814     -10.085

           -------------------------------------------------
          |                Geometry Summary                 |
           -------------------------------------------------

      molecular mass/u    :      808.0522223
   center of mass at/Å    :       -0.8750537       1.0962670      -0.3079375
  moments of inertia/u·Å² :        0.8925245E+04   0.1732085E+05   0.2229614E+05
rotational constants/cm⁻¹ :        0.1888759E-02   0.9732565E-03   0.7560784E-03

 * 112 selected distances

     #   Z          #   Z                                           value/Å
     1   6 C        2   6 C                                       1.3663012
     2   6 C        3   6 C                                       1.4117960
     3   6 C        4   6 C                                       1.3867407
     4   6 C        5   6 C                                       1.4001187
     1   6 C        6   6 C                                       1.4055507
     5   6 C        6   6 C                                       1.4144379
     7   6 C        8   6 C                                       1.4143495
     8   6 C        9   6 C                                       1.4210844
     6   6 C       10   6 C                                       1.4182392
     9   6 C       10   6 C                                       1.3547737
     7   6 C       11   6 C                                       1.4169242
    11   6 C       12   6 C                                       1.4132232
    12   6 C       13   6 C                                       1.3953478
     8   6 C       14   6 C                                       1.4097805
    13   6 C       14   6 C                                       1.3672808
    11   6 C       15   6 C                                       1.4435391
    15   6 C       16   6 C                                       1.4124550
    15   6 C       17   6 C                                       1.4172928
    17   6 C       18   6 C                                       1.4143759
    18   6 C       19   6 C                                       1.4098968
    16   6 C       20   6 C                                       1.3952827
    19   6 C       20   6 C                                       1.3672883
    21   6 C       22   6 C                                       1.4144132
    22   6 C       23   6 C                                       1.4180243
    18   6 C       24   6 C                                       1.4208646
    23   6 C       24   6 C                                       1.3547085
    25   6 C       26   6 C                                       1.4117220
    22   6 C       27   6 C                                       1.4055797
    26   6 C       27   6 C                                       1.3662027
    21   6 C       28   6 C                                       1.4002053
    25   6 C       28   6 C                                       1.3865225
    31   6 C       32   6 C                                       1.5379381
    31   6 C       33   6 C                                       1.5242028
    31   6 C       34   6 C                                       1.5311751
    32   6 C       35   6 C                                       1.5235188
    32   6 C       36   6 C                                       1.5340793
    37   6 C       38   6 C                                       1.5380303
    37   6 C       39   6 C                                       1.5311352
    37   6 C       40   6 C                                       1.5240227
    38   6 C       41   6 C                                       1.5232495
    38   6 C       42   6 C                                       1.5341979
    12   6 C       43   7 N                                       1.3733670
    16   6 C       43   7 N                                       1.3734121
    44  14 Si      45   6 C                                       1.9145208 (max)
    45   6 C       46   6 C                                       1.5161353
    46   6 C       47   8 O                                       1.4118061
    44  14 Si      48   6 C                                       1.9064272
    44  14 Si      49   6 C                                       1.9096748
    44  14 Si      50   6 C                                       1.9095074
    43   7 N       51   6 C                                       1.4226426
    47   8 O       51   6 C                                       1.4044963
    30   6 C       52   7 N                                       1.3462077
    32   6 C       52   7 N                                       1.4792939
    30   6 C       54   7 N                                       1.3449180
    31   6 C       54   7 N                                       1.4808767
    29   6 C       56   7 N                                       1.3447728
    37   6 C       56   7 N                                       1.4808485
    29   6 C       58   7 N                                       1.3462018
    38   6 C       58   7 N                                       1.4792384
    39   6 C       60   1 H                                       1.0869435
    39   6 C       61   1 H                                       1.0862349
    39   6 C       62   1 H                                       1.0879920
    40   6 C       63   1 H                                       1.0854815
    40   6 C       64   1 H                                       1.0873396
    40   6 C       65   1 H                                       1.0863399
    42   6 C       66   1 H                                       1.0879781
    42   6 C       67   1 H                                       1.0860097
    42   6 C       68   1 H                                       1.0882176
    41   6 C       69   1 H                                       1.0852103
    41   6 C       70   1 H                                       1.0873479
    41   6 C       71   1 H                                       1.0862963
    45   6 C       72   1 H                                       1.0897607
    45   6 C       73   1 H                                       1.0895339
    46   6 C       74   1 H                                       1.1007053
    46   6 C       75   1 H                                       1.1016544
    51   6 C       76   1 H                                       1.1044538
    51   6 C       77   1 H                                       1.1037759
    50   6 C       78   1 H                                       1.0860444
    50   6 C       79   1 H                                       1.0860090
    50   6 C       80   1 H                                       1.0857630
    48   6 C       81   1 H                                       1.0855109
Note: The following floating-point exceptions are signalling: IEEE_UNDERFLOW_FLAG
normal termination of xtb
    48   6 C       82   1 H                                       1.0852389
    48   6 C       83   1 H                                       1.0854459
    49   6 C       84   1 H                                       1.0860816
    49   6 C       85   1 H                                       1.0857929
    49   6 C       86   1 H                                       1.0860033
    13   6 C       87   1 H                                       1.0789951
    14   6 C       88   1 H                                       1.0804048
     9   6 C       89   1 H                                       1.0815010
    10   6 C       90   1 H                                       1.0812468
    28   6 C       91   1 H                                       1.0755401 (min)
    26   6 C       92   1 H                                       1.0769204
    27   6 C       93   1 H                                       1.0814174
    23   6 C       94   1 H                                       1.0812383
    24   6 C       95   1 H                                       1.0815366
    19   6 C       96   1 H                                       1.0803153
    20   6 C       97   1 H                                       1.0790013
     4   6 C       98   1 H                                       1.0755446
     2   6 C       99   1 H                                       1.0768074
     1   6 C      100   1 H                                       1.0813943
    34   6 C      101   1 H                                       1.0870243
    34   6 C      102   1 H                                       1.0862204
    34   6 C      103   1 H                                       1.0879161
    33   6 C      104   1 H                                       1.0854419
    33   6 C      105   1 H                                       1.0873940
    33   6 C      106   1 H                                       1.0863466
    36   6 C      107   1 H                                       1.0879294
    36   6 C      108   1 H                                       1.0860067
    36   6 C      109   1 H                                       1.0882049
    35   6 C      110   1 H                                       1.0852471
    35   6 C      111   1 H                                       1.0873521
    35   6 C      112   1 H                                       1.0862814

 * 5 distinct bonds (by element types)

   Z      Z             #   av. dist./Å        max./Å        min./Å
   1 H    6 C          53     1.0859697     1.1044538     1.0755401
   6 C    6 C          42     1.4345716     1.5380303     1.3547085
   6 C    7 N          11     1.4065254     1.4808767     1.3447728
   6 C    8 O           2     1.4081512     1.4118061     1.4044963
   6 C   14 Si          4     1.9100326     1.9145208     1.9064272


optimized geometry written to: xtbopt.mol


           -------------------------------------------------
          | TOTAL ENERGY             -166.401484874023 Eh   |
          | GRADIENT NORM               0.000413324385 Eh/α |
          | HOMO-LUMO GAP               1.505613572722 eV   |
           -------------------------------------------------

------------------------------------------------------------------------
 * finished run on 2024/11/14 at 10:47:08.622     
------------------------------------------------------------------------
 total:
 * wall-time:     0 d,  0 h,  0 min, 54.015 sec
 *  cpu-time:     0 d,  0 h,  2 min, 55.848 sec
 * ratio c/w:     3.256 speedup
 SCF:
 * wall-time:     0 d,  0 h,  0 min,  1.528 sec
 *  cpu-time:     0 d,  0 h,  0 min,  4.058 sec
 * ratio c/w:     2.655 speedup
 ANC optimizer:
 * wall-time:     0 d,  0 h,  0 min, 52.459 sec
 *  cpu-time:     0 d,  0 h,  2 min, 51.757 sec
 * ratio c/w:     3.274 speedup

