224
 energy: -333.055298622009 gnorm: 0.445443488359 xtb: 6.6.1 (8d0f1dd)
C           -4.70250000000000        1.08340000000000       -0.92320000000000
C           -4.40550000000000       -0.25640000000000       -0.67090000000000
C           -3.14070000000000       -0.65510000000000       -0.17210000000000
C           -2.17900000000000        0.37630000000000       -0.02910000000000
C           -2.43930000000000        1.73840000000000       -0.33060000000000
C           -3.74590000000000        2.08120000000000       -0.71000000000000
C           -1.45580000000000        2.77520000000000       -0.16650000000000
C           -1.91110000000000        4.11840000000000       -0.05970000000000
C           -3.22670000000000        4.43240000000000       -0.39570000000000
C           -4.11210000000000        3.42720000000000       -0.78110000000000
C           -0.04930000000000        2.57020000000000       -0.05110000000000
C            0.74980000000000        3.55340000000000        0.50750000000000
C            0.25820000000000        4.83170000000000        0.78480000000000
C           -1.05500000000000        5.12900000000000        0.41840000000000
C            0.82600000000000        1.51380000000000       -0.39420000000000
C            2.01920000000000        1.82450000000000        0.24170000000000
C            0.72040000000000        0.32830000000000       -1.20800000000000
C            1.76340000000000       -0.63340000000000       -1.05850000000000
C            2.92610000000000       -0.32440000000000       -0.31850000000000
C            3.08580000000000        0.92950000000000        0.28010000000000
C           -0.31480000000000        0.04660000000000       -2.17620000000000
C           -0.43910000000000       -1.25360000000000       -2.70510000000000
C            0.53140000000000       -2.21790000000000       -2.42440000000000
C            1.65000000000000       -1.89220000000000       -1.66280000000000
C           -2.27590000000000        0.76570000000000       -3.56040000000000
C           -2.43850000000000       -0.59170000000000       -3.92750000000000
C           -1.52120000000000       -1.56960000000000       -3.53410000000000
C           -1.19010000000000        1.03650000000000       -2.69130000000000
C           -3.18220000000000        1.89700000000000       -4.10200000000000
C           -2.82680000000000       -2.10870000000000        0.23370000000000
C           -1.58450000000000       -4.01220000000000        0.83810000000000
C           -3.12840000000000       -4.32720000000000        0.74870000000000
C           -0.87820000000000       -4.55980000000000        2.09960000000000
C           -0.78170000000000       -4.51490000000000       -0.38340000000000
C           -3.47030000000000       -5.57580000000000       -0.09720000000000
C           -3.80040000000000       -4.49190000000000        2.13640000000000
C           -4.05260000000000        4.07080000000000       -4.49050000000000
C           -4.68260000000000        2.99240000000000       -5.45800000000000
C           -5.07100000000000        4.59470000000000       -3.45830000000000
C           -3.43500000000000        5.31860000000000       -5.16030000000000
C           -6.23230000000000        3.00980000000000       -5.54420000000000
C           -4.12400000000000        3.10610000000000       -6.89210000000000
N            1.99330000000000        3.08130000000000        0.74970000000000
Si           5.94720000000000        4.07180000000000        5.65000000000000
C            4.33980000000000        3.54890000000000        4.82890000000000
C            4.36780000000000        3.84240000000000        3.33290000000000
O            3.21070000000000        3.30190000000000        2.73530000000000
C            5.81410000000000        3.81520000000000        7.46950000000000
C            6.28820000000000        5.88610000000000        5.38790000000000
C            7.34910000000000        3.00920000000000        5.03220000000000
C            3.09400000000000        3.78390000000000        1.41450000000000
N           -3.66400000000000       -3.10060000000000        0.17940000000000
O           -4.80100000000000       -3.00860000000000       -0.16470000000000
N           -1.58380000000000       -2.56920000000000        0.76990000000000
O           -0.45610000000000       -1.85550000000000        0.87190000000000
N           -3.02830000000000        3.28930000000000       -3.82870000000000
O           -2.11280000000000        3.84330000000000       -3.02640000000000
N           -4.16530000000000        1.73360000000000       -4.93380000000000
O           -4.50630000000000        0.68210000000000       -5.37460000000000
H           -5.58060000000000        3.74470000000000       -2.97470000000000
H           -5.86050000000000        5.20610000000000       -3.94330000000000
H           -4.58430000000000        5.24620000000000       -2.70250000000000
H           -2.61760000000000        5.05400000000000       -5.85790000000000
H           -2.99070000000000        5.98410000000000       -4.38550000000000
H           -4.21640000000000        5.89750000000000       -5.69660000000000
H           -3.01440000000000        3.02790000000000       -6.87580000000000
H           -4.41840000000000        4.06690000000000       -7.36090000000000
H           -4.50490000000000        2.27600000000000       -7.52280000000000
H           -6.72110000000000        2.81270000000000       -4.56910000000000
H           -6.59420000000000        2.22160000000000       -6.23590000000000
H           -6.58010000000000        3.99380000000000       -5.92790000000000
H            4.21170000000000        2.45900000000000        5.00040000000000
H            3.48680000000000        4.08510000000000        5.29930000000000
H            4.41610000000000        4.95170000000000        3.21300000000000
H            5.26230000000000        3.36210000000000        2.88280000000000
H            4.02370000000000        3.63190000000000        0.81960000000000
H            2.89060000000000        4.87330000000000        1.44400000000000
H            7.49110000000000        3.16040000000000        3.94410000000000
H            7.10740000000000        1.94440000000000        5.23300000000000
H            8.27780000000000        3.28160000000000        5.57370000000000
H            5.03340000000000        4.51410000000000        7.82060000000000
H            6.77230000000000        4.06150000000000        7.96780000000000
H            5.54860000000000        2.75630000000000        7.66340000000000
H            6.42450000000000        6.09480000000000        4.30860000000000
H            7.20660000000000        6.16580000000000        5.94380000000000
H            5.43130000000000        6.47390000000000        5.77850000000000
H            0.87090000000000        5.60850000000000        1.21630000000000
H           -1.42380000000000        6.13740000000000        0.56440000000000
H           -3.58290000000000        5.45430000000000       -0.34040000000000
H           -5.13590000000000        3.69730000000000       -0.97070000000000
H           -0.98430000000000        2.03290000000000       -2.41360000000000
H           -3.22540000000000       -0.94370000000000       -4.56590000000000
H           -1.65150000000000       -2.58120000000000       -3.90110000000000
H            0.45960000000000       -3.21040000000000       -2.85320000000000
H            2.42310000000000       -2.63920000000000       -1.52860000000000
H            3.73520000000000       -1.04140000000000       -0.24670000000000
H            4.00740000000000        1.17500000000000        0.79080000000000
H           -1.22500000000000        0.15590000000000        0.37270000000000
H           -5.22160000000000       -0.93340000000000       -0.83420000000000
H           -5.70800000000000        1.34550000000000       -1.23310000000000
H           -1.22300000000000       -4.13200000000000       -1.32690000000000
H           -0.76150000000000       -5.62470000000000       -0.41940000000000
H            0.27210000000000       -4.16740000000000       -0.32490000000000
H           -1.35380000000000       -4.22800000000000        3.03240000000000
H            0.18010000000000       -4.22150000000000        2.13330000000000
H           -0.89330000000000       -5.67020000000000        2.09740000000000
H           -3.62170000000000       -3.59510000000000        2.76880000000000
H           -3.41940000000000       -5.39070000000000        2.66580000000000
H           -4.90040000000000       -4.60750000000000        2.02730000000000
H           -3.11470000000000       -5.47940000000000       -1.14250000000000
H           -4.56980000000000       -5.72640000000000       -0.14320000000000
H           -3.01500000000000       -6.48100000000000        0.36040000000000
C           -4.92870000000000        1.07560000000000        7.69170000000000
C           -4.58070000000000       -0.27500000000000        7.70650000000000
C           -3.26780000000000       -0.68830000000000        8.03720000000000
C           -2.31850000000000        0.33690000000000        8.22080000000000
C           -2.61970000000000        1.70600000000000        8.12690000000000
C           -3.97340000000000        2.06100000000000        7.95970000000000
C           -1.61650000000000        2.71900000000000        8.29700000000000
C           -2.07690000000000        4.04260000000000        8.56960000000000
C           -3.43540000000000        4.36250000000000        8.44720000000000
C           -4.36390000000000        3.39030000000000        8.10080000000000
C           -0.18300000000000        2.51100000000000        8.26710000000000
C            0.63920000000000        3.48100000000000        8.82010000000000
C            0.16620000000000        4.73770000000000        9.19890000000000
C           -1.18070000000000        5.03650000000000        8.99800000000000
C            0.71770000000000        1.49000000000000        7.80050000000000
C            1.94570000000000        1.81900000000000        8.35150000000000
C            0.63440000000000        0.32420000000000        6.94730000000000
C            1.72350000000000       -0.59860000000000        6.98170000000000
C            2.90630000000000       -0.27600000000000        7.66190000000000
C            3.04670000000000        0.95590000000000        8.29010000000000
C           -0.42490000000000        0.03730000000000        6.03380000000000
C           -0.51680000000000       -1.22590000000000        5.41760000000000
C            0.50150000000000       -2.16500000000000        5.58970000000000
C            1.63640000000000       -1.83200000000000        6.32020000000000
C           -2.46560000000000        0.76020000000000        4.84160000000000
C           -2.58880000000000       -0.55750000000000        4.34250000000000
C           -1.61720000000000       -1.51930000000000        4.61070000000000
C           -1.35820000000000        1.01300000000000        5.65940000000000
C           -3.42880000000000        1.88560000000000        4.48330000000000
C           -2.88640000000000       -2.15010000000000        8.28130000000000
C           -1.59200000000000       -4.03480000000000        8.84160000000000
C           -3.13210000000000       -4.37750000000000        8.74340000000000
C           -0.90410000000000       -4.48790000000000       10.14970000000000
C           -0.75980000000000       -4.56340000000000        7.65060000000000
C           -3.45720000000000       -5.62030000000000        7.88590000000000
C           -3.80040000000000       -4.56100000000000       10.13130000000000
C           -4.28100000000000        4.07230000000000        4.17420000000000
C           -5.06540000000000        2.98230000000000        3.35590000000000
C           -5.14840000000000        4.64010000000000        5.29760000000000
C           -3.69650000000000        5.27540000000000        3.37800000000000
C           -6.61020000000000        3.06800000000000        3.32680000000000
C           -4.63030000000000        3.01280000000000        1.93350000000000
N            1.91040000000000        3.04240000000000        8.92590000000000
Si           5.80890000000000        4.03360000000000       13.80380000000000
C            4.18220000000000        3.61450000000000       12.96610000000000
C            4.18750000000000        4.01760000000000       11.50210000000000
O            2.92660000000000        3.71420000000000       10.93440000000000
C            5.59210000000000        3.68560000000000       15.62000000000000
C            6.20560000000000        5.84110000000000       13.54770000000000
C            7.22480000000000        3.00460000000000       13.13960000000000
C            3.03280000000000        3.75480000000000        9.52960000000000
N           -3.70150000000000       -3.15560000000000        8.20130000000000
O           -4.85080000000000       -3.07290000000000        7.90280000000000
N           -1.61190000000000       -2.60090000000000        8.73810000000000
O           -0.49350000000000       -1.87350000000000        8.84580000000000
N           -3.20710000000000        3.27910000000000        4.72090000000000
O           -2.18910000000000        3.82950000000000        5.39420000000000
N           -4.54210000000000        1.72410000000000        3.84860000000000
O           -4.96900000000000        0.66950000000000        3.48870000000000
H           -5.60690000000000        3.80760000000000        5.85760000000000
H           -5.97070000000000        5.25220000000000        4.86880000000000
H           -4.55380000000000        5.28690000000000        5.97380000000000
H           -2.95540000000000        4.95370000000000        2.61840000000000
H           -3.14930000000000        5.96130000000000        4.06110000000000
H           -4.50010000000000        5.85600000000000        2.87900000000000
H           -3.52290000000000        2.89420000000000        1.87970000000000
H           -4.95920000000000        3.96990000000000        1.48750000000000
H           -5.10160000000000        2.16440000000000        1.40460000000000
H           -7.06270000000000        2.96300000000000        4.32710000000000
H           -7.02750000000000        2.25840000000000        2.68530000000000
H           -6.92020000000000        4.03720000000000        2.87430000000000
H            4.00300000000000        2.52140000000000       13.06240000000000
H            3.36950000000000        4.16210000000000       13.48510000000000
H            4.37060000000000        5.11040000000000       11.41420000000000
H            5.02200000000000        3.44860000000000       11.02640000000000
H            3.94820000000000        3.24450000000000        9.21140000000000
H            3.06800000000000        4.80000000000000        9.15100000000000
H            7.36870000000000        3.20530000000000       12.05830000000000
H            7.00690000000000        1.92740000000000       13.29050000000000
H            8.15470000000000        3.26810000000000       13.68550000000000
H            4.75390000000000        4.30170000000000       16.00540000000000
H            6.52440000000000        3.94090000000000       16.16250000000000
H            5.35630000000000        2.61090000000000       15.76120000000000
H            6.36710000000000        6.03560000000000       12.46700000000000
H            7.12890000000000        6.10030000000000       14.10400000000000
H            5.36100000000000        6.45980000000000       13.91240000000000
H            0.82900000000000        5.49450000000000        9.59430000000000
H           -1.53930000000000        6.03090000000000        9.23740000000000
H           -3.78590000000000        5.37310000000000        8.61980000000000
H           -5.40680000000000        3.66890000000000        8.01730000000000
H           -1.18800000000000        1.98310000000000        6.01740000000000
H           -3.37940000000000       -0.88040000000000        3.69080000000000
H           -1.72270000000000       -2.48940000000000        4.16700000000000
H            0.45260000000000       -3.13210000000000        5.10240000000000
H            2.44870000000000       -2.54770000000000        6.37620000000000
H            3.74720000000000       -0.95980000000000        7.66200000000000
H            3.99360000000000        1.18400000000000        8.75240000000000
H           -1.32850000000000        0.10780000000000        8.49230000000000
H           -5.39250000000000       -0.95220000000000        7.52120000000000
H           -5.96290000000000        1.34530000000000        7.50830000000000
H           -1.18690000000000       -4.21270000000000        6.68730000000000
H           -0.72550000000000       -5.67300000000000        7.65040000000000
H            0.28750000000000       -4.19620000000000        7.71140000000000
H           -1.37840000000000       -4.03440000000000       11.04390000000000
H            0.15930000000000       -4.16380000000000       10.16040000000000
H           -0.93270000000000       -5.59410000000000       10.23920000000000
H           -3.64340000000000       -3.65700000000000       10.76140000000000
H           -3.40050000000000       -5.44840000000000       10.66310000000000
H           -4.89850000000000       -4.69290000000000       10.02250000000000
H           -3.09930000000000       -5.51050000000000        6.84280000000000
H           -4.55500000000000       -5.78210000000000        7.83800000000000
H           -2.99270000000000       -6.52280000000000        8.33940000000000
224
 energy: -333.171388388124 gnorm: 0.193074463648 xtb: 6.6.1 (8d0f1dd)
C           -4.69331734316150        1.06770651619960       -0.91869311843111
C           -4.39759414066513       -0.26003906964406       -0.66626947312781
C           -3.13022559015715       -0.65504743270889       -0.16433474874056
C           -2.18025116919913        0.36759331021811       -0.02694699740108
C           -2.43637389158583        1.72506261138428       -0.33219121691769
C           -3.74543957886615        2.07997399532130       -0.71359315167454
C           -1.46095233054086        2.77193614649611       -0.16985247020313
C           -1.90948163362086        4.11475286472384       -0.05816128818698
C           -3.23722185537998        4.42521413765229       -0.39966630388699
C           -4.11031437135633        3.43812022379920       -0.77414161402866
C           -0.06196374073848        2.57084032541198       -0.06089599233337
C            0.73779632384345        3.56448938888705        0.52081194508052
C            0.24889961284641        4.84163994409160        0.78613522436105
C           -1.04826177094919        5.12553274476560        0.42038559957616
C            0.81960230982746        1.49893256363323       -0.39702104616903
C            2.03398426103774        1.81551192929577        0.23226595899375
C            0.71711916960859        0.32745205701334       -1.20976589647368
C            1.76249430255439       -0.62715534385802       -1.05988082678675
C            2.92633893205627       -0.31549940316243       -0.31821687245814
C            3.09538433576841        0.91833775881445        0.27393646076190
C           -0.32238178289318        0.05587330948531       -2.17792978689168
C           -0.44152258606774       -1.25178211178796       -2.70301494047470
C            0.54420060547895       -2.21773370888200       -2.42132299463103
C            1.64332588892170       -1.89439436583109       -1.67079382954141
C           -2.27040871731178        0.77840165211416       -3.55853975513765
C           -2.43654425778304       -0.58092925591536       -3.92833023119515
C           -1.52881785766965       -1.55137913588593       -3.53718113436140
C           -1.19789029884430        1.04189746853403       -2.69213590229342
C           -3.15438590576200        1.90263099610038       -4.08221783802145
C           -2.80516350189059       -2.08240242691153        0.23551126213820
C           -1.58341899884576       -4.00573641618169        0.83564202352825
C           -3.11590758664019       -4.33177877554355        0.75660678840642
C           -0.88237560669245       -4.55631316926367        2.09649591827058
C           -0.78591629051005       -4.52139467151542       -0.38409236079983
C           -3.46853519812347       -5.56900092915698       -0.09551571564772
C           -3.79514956417956       -4.49204906352925        2.13706415477480
C           -4.04890451457314        4.06551589318258       -4.48554344776062
C           -4.67956412601793        3.00658304041265       -5.45839851223616
C           -5.07757371476851        4.59368788599341       -3.46476191529804
C           -3.43493892718885        5.31224905001159       -5.16068474132991
C           -6.22437326373148        3.00942235928984       -5.54261837732955
C           -4.12309675761088        3.10908591599346       -6.89274542140929
N            1.99845243508549        3.08548492289148        0.74712316537416
Si           5.94268795153821        4.06822534623720        5.64225409372181
C            4.33281504062796        3.54390366418446        4.83042445045522
C            4.36339712939165        3.83697956781526        3.34111919945379
O            3.21647280796662        3.30880757921638        2.72421015995380
C            5.81530170873060        3.81543122694167        7.48244664210105
C            6.29154819632589        5.89645554126010        5.38453524215615
C            7.35989025031470        3.00359093158393        5.02683246085735
C            3.08258587762985        3.77704142758574        1.40565127277142
N           -3.65552173140604       -3.09072892415925        0.18022327462013
O           -4.84545275313234       -3.02075982670743       -0.18317603296475
N           -1.59231481891775       -2.54661039153979        0.76701702433850
O           -0.47184177991143       -1.86434066855047        0.86918635121037
N           -3.01462017836431        3.27104381423884       -3.82314496338947
O           -2.11721389776425        3.83888853627882       -3.03994052256345
N           -4.15547819052975        1.73588141078986       -4.92631479199681
O           -4.53437772989177        0.64276942652402       -5.39999593803948
H           -5.57236008490797        3.75394017869564       -2.97346192045077
H           -5.85285711394620        5.20356127009678       -3.94771091142902
H           -4.58335638861185        5.22541921258302       -2.71599128129825
H           -2.62717910296155        5.05409784994003       -5.85223941749677
H           -2.99812696508794        5.96464100526289       -4.39062184289692
H           -4.20646323340101        5.88706599490579       -5.69219321699554
H           -3.02751233942788        3.03130893400669       -6.87648626457402
H           -4.41444974964412        4.05692127812438       -7.35910316558604
H           -4.50311603879769        2.28320729201902       -7.50923474449988
H           -6.70706121851024        2.81553458507561       -4.57805685276383
H           -6.57733503013105        2.22823901669798       -6.22913691866780
H           -6.57360324121171        3.97999320547118       -5.92224074441389
H            4.19579059991685        2.46785804853641        4.99333154441965
H            3.48526045827878        4.06936549857042        5.28931013215584
H            4.41536370766481        4.93687598658588        3.20363673145534
H            5.25823839201144        3.37437816900889        2.88314596867254
H            4.01799824577615        3.62491825301904        0.82642527307811
H            2.88316768325508        4.86415836788149        1.43381692911089
H            7.50441522729879        3.14748762017846        3.95367054846750
H            7.12393078932989        1.95260754437112        5.22260349506273
H            8.27967692557240        3.26720614695840        5.55783695672343
H            5.04275092509043        4.49715384547409        7.84027893922203
H            6.75939189201767        4.05458214503406        7.97822533263889
H            5.54850558288136        2.77459701006286        7.68127608497493
H            6.42665680910325        6.11048895923716        4.32172358804005
H            7.19669418514549        6.18021960748484        5.93110398650875
H            5.44842348513250        6.48077274895558        5.76783892248565
H            0.86883466913269        5.61162941295704        1.21926341009177
H           -1.42350939541870        6.13203669636627        0.55940824446386
H           -3.58152745368395        5.45113337829002       -0.34280365710215
H           -5.13667913202298        3.69852295073339       -0.97438837036852
H           -0.99207932541946        2.05218595869101       -2.41631576991242
H           -3.23494035490016       -0.92379121303006       -4.56530308959933
H           -1.65372227983377       -2.56777692133638       -3.89962370301126
H            0.46158531560221       -3.20910784603892       -2.85062021288825
H            2.42132882583925       -2.63534818200629       -1.52813991648621
H            3.72754926119409       -1.04104872036463       -0.24623311897597
H            4.01056319485412        1.16858307223551        0.79070013574763
H           -1.21742441734115        0.13990580667753        0.37874616098007
H           -5.20807181013641       -0.95068523923821       -0.82934048497344
H           -5.69775790229427        1.33701531311952       -1.23156183662135
H           -1.21859310531276       -4.13592034739659       -1.31516029923208
H           -0.76272728749230       -5.61808625383240       -0.41972520790950
H            0.25092136035986       -4.16346924922746       -0.32105676852767
H           -1.35353227775845       -4.22395810793154        3.02209956367206
H            0.16256375923111       -4.21954706487914        2.12436645849014
H           -0.89319601831832       -5.65619079756569        2.09146365790469
H           -3.62188751032831       -3.60530807800094        2.76037103340978
H           -3.42280941851114       -5.38128686122613        2.66037151195958
H           -4.88293208622411       -4.60157151874125        2.01939231745693
H           -3.11667587062714       -5.47636618758778       -1.12914183022146
H           -4.55651331899758       -5.71535296259692       -0.13737028189539
H           -3.02066697961124       -6.46656152466575        0.35379712736471
C           -4.91872310055640        1.05966144479008        7.69587359655582
C           -4.57346835508114       -0.27956811407632        7.71354941566376
C           -3.25778515866770       -0.69075062696129        8.04552576959889
C           -2.31639503765326        0.32715852631106        8.22026674164242
C           -2.61627731164210        1.69680658438194        8.12585752346673
C           -3.97234914767327        2.05982616646869        7.95782476571990
C           -1.61672951281766        2.71733287098741        8.29142526201720
C           -2.07183408276520        4.03800451188878        8.57035184759110
C           -3.44245424737431        4.35531996542182        8.44901956425268
C           -4.36111212360016        3.40140053815098        8.10873727760206
C           -0.19634673715340        2.50938353155162        8.25617865565051
C            0.62754456686055        3.49089411840517        8.82865165750913
C            0.15771500501076        4.74758414738043        9.20189476677402
C           -1.17257283946899        5.03409575751640        9.00127732945922
C            0.70887863969190        1.47502400954975        7.80034531078842
C            1.95725425038152        1.80849129761188        8.34555231235479
C            0.63156288881086        0.32176577756982        6.95053185270745
C            1.72077424829954       -0.59418740459243        6.98252875883064
C            2.90738872089063       -0.26832415084978        7.66419558300068
C            3.05424116902904        0.94780249927764        8.28704994786407
C           -0.43107396423288        0.04305875850640        6.03355988370693
C           -0.51949212689255       -1.22612511943060        5.41969819147314
C            0.51273632834829       -2.16598577877896        5.59316457616446
C            1.62820764800939       -1.83432480806366        6.31261027886812
C           -2.46214798793935        0.77137365735101        4.84102851778454
C           -2.58863645891653       -0.54802229497767        4.34102688743718
C           -1.62739072145663       -1.50370679490183        4.61070027498834
C           -1.36765275718455        1.01878239567891        5.66298452500857
C           -3.39963026717959        1.89194862456626        4.49797959703210
C           -2.86565853542737       -2.12481693287171        8.28552416047752
C           -1.59202238513446       -4.02701591835540        8.83820945122127
C           -3.11958622206624       -4.38398647178975        8.75184208244785
C           -0.90772176307931       -4.48507924082243       10.14573776747360
C           -0.76390448927166       -4.56972380583132        7.65098549721987
C           -3.45518571386998       -5.61522056866902        7.88842262289182
C           -3.79586421066144       -4.56220969107466       10.13276897256226
C           -4.27755550967393        4.06866981724907        4.17982107921839
C           -5.06655502723120        2.99788623207776        3.35827899245619
C           -5.15441437830770        4.64201382585136        5.29731461819963
C           -3.69779851830441        5.26662750330263        3.37838077902138
C           -6.60618396956854        3.06905207148555        3.33646903084810
C           -4.62874667649535        3.01591159747975        1.92305355875862
N            1.91445833078570        3.04676245331111        8.92535498721073
Si           5.80751741482475        4.03209496729786       13.80131648889042
C            4.17354644573009        3.61474656438305       12.97126652716896
C            4.18394435865173        4.01415090882665       11.51104807237024