116
 energy: -22.928061455056 gnorm: 0.329736929581 xtb: 6.6.1 (8d0f1dd)
C           -3.31122850772930        0.79849766164622       -0.92477639677520
C           -2.44380812530352       -0.12270372891954       -0.27661132624697
C           -1.41337090092821        0.39579727573559        0.56335275196199
C           -0.89266158675590        1.65801491088749        0.27377586709581
C           -1.72665675402493        2.51431363229076       -0.49448366572522
C           -2.95444148494349        2.13954154133227       -1.01494489940871
C           -0.74098268209890       -0.43411532818871        1.49825021926784
C            0.56872586496315        0.03782116815119        1.86248088067890
C            1.03782416582094        1.29402317993033        1.50887470833621
N            0.31238977034758        2.07067427098208        0.65193736800696
C           -1.29695700510141       -1.39996043042223        2.41574187746061
C           -0.38243517664656       -2.18060797534842        3.13232615520648
N            0.91308504082021       -1.90366887689689        3.30325166013478
C            1.37712470144904       -0.74872102533751        2.81811050966982
C            2.52149331701875       -0.17739833758153        3.39379298866852
C            2.95849061756259        1.02681208890480        2.95105897606587
C            2.24288949469137        1.78498308775960        2.03503020483770
C           -2.74860936222260       -1.74497937691422        2.38401158947411
C           -3.09416315450955       -2.91614440870436        3.00571134491758
C           -2.16786021984049       -3.77788778654213        3.63251872101904
C           -0.85708937311598       -3.40495313382985        3.68547234358092
O           -3.71994433332149       -0.94984598373544        1.67726658385724
O           -2.55702603277562       -1.47241711578389       -0.57241635275616
C           -3.84297843593025        3.13357444054366       -1.60938954875544
C           -2.68769581069131       -5.03867041417370        4.30484659386931
H           -1.39666850744143        3.51251503834900       -0.76806311868865
H           -4.27662633836220        0.55105838579656       -1.33106614114542
H            2.66329581305412        2.73912661909249        1.72562431984580
H            3.05775395548473       -0.69369546277216        4.16536137542516
H           -0.24710966264510       -4.12034095424229        4.22946223699121
H           -4.11477991332403       -3.04712728052358        3.03244694615357
O           -4.21824883374556        4.03433712717988       -0.87713382485991
O           -4.44510595673734        2.90643496899600       -2.81853501752979
C           -5.44216520282800        3.83300025693726       -3.02488532025093
C            4.23586651889298        1.50004220933226        3.59165660008449
O            5.05927614697201        0.66079890002952        3.91714215179376
O            4.47001334453535        2.86385149488593        3.72605651435371
C            5.79457498613219        3.08584475587818        4.15829123132174
O           -3.82227255313510       -5.27347675879771        4.16636005494405
O           -1.85023202017753       -5.79767454267276        5.06656077253571
C           -2.55119635829503       -6.86252441382958        5.62930343183426
C           -5.07197156564436       -1.42399175670916        1.58830531863830
C           -1.33089900128490       -2.23622472573986       -0.99264499351172
H           -2.54510546830388       -7.76426885143998        4.99136022291012
H           -3.57194749219491       -6.44405511486021        5.74196173723541
H           -2.09133598235598       -7.02043774843818        6.64022264233588
H            5.72707967266424        3.46798026205549        5.10135971236643
H            6.34060091246885        3.78468702308830        3.50069950143490
H            6.17933064298187        2.03010500085905        4.19342358084693
H           -0.91862729772622       -2.57650129080332       -0.01361370304871
H           -0.49769766914251       -1.60651221708571       -1.34094446550576
H           -1.52632419730509       -2.94569707152159       -1.75361447637286
H           -5.11788846557077       -2.41810833635233        1.17520213188926
H           -5.67929807973498       -0.69619639428435        1.04301666067831
H           -5.57598832326623       -1.42383358739762        2.57928294206544
H           -6.13050215934830        3.76035386975488       -2.23272855695873
H           -5.86615610071888        3.45938329385866       -4.02668959924245
H           -5.13479557532099        4.87790991548477       -2.98314551356402
C           -1.38192942069774        3.73616555005018        2.91232598411686
C           -1.84821468128685        2.59982427735607        3.49755545445181
C           -1.05946531454833        2.05730632010638        4.60922730982276
C            0.19893954712228        2.69376791964407        4.86302140881997
C            0.50425395911860        3.94630308659851        4.28768785650746
C           -0.26031777722226        4.46998310053134        3.25072669343212
C           -1.20488993561782        0.74454293276906        5.14851520323437
C           -0.06287609782692        0.02744069315890        5.60930570802864
C            1.19208754369866        0.71421540266195        5.78882868583885
N            1.19428660993148        2.06344359410476        5.62744624321596
C           -2.41361422770794        0.07928500213936        5.25249410304426
C           -2.45851584031083       -1.32662100968547        5.60237876023992
N           -1.29466212405906       -1.98318595734370        5.89916817085159
C           -0.14475655767527       -1.32117560077092        5.98824682881008
C            0.97209270935794       -1.98958449505532        6.53157704134458
C            2.21982707914082       -1.36973967291181        6.68703967237737
C            2.30561929262884       -0.09745313075593        6.26436900324455
C           -3.73018485967715        0.71367583494582        5.25810242262992
C           -4.89964478833448       -0.06184623426677        5.21204641615509
C           -4.82617965800088       -1.39228978090841        5.46901303780036
C           -3.67144193418464       -1.98914944386360        5.67265433266067
O           -3.75568638935321        2.07705011038914        5.52067969627343
O           -2.94192434743730        1.91263938797883        3.01658762327703
C            0.21273512614467        5.50086066357994        2.34765104514621
C           -6.06660304520411       -2.17604633098929        5.80641622556876
H            1.41756699010566        4.38133362238595        4.66974005703471
H           -1.82880610647429        4.11982501512100        2.06992133318584
H            3.26888037378556        0.32655662585251        6.31721410015598
H            0.87146188387207       -3.08471526305024        6.57830423410869
H           -3.67716811065157       -3.05999292755990        5.83019634570050
H           -5.77379677507622        0.43595144608221        4.71017130754348
O            1.34459852619901        5.82615848916894        2.44941456579099
O           -0.74718748219123        6.07961784856304        1.59848183464284
C           -0.21473095568964        7.24015934882472        1.05753806029483
C            3.53228080814219       -2.00967610361154        7.02506769044485
O            3.64093082622715       -3.14437803815732        7.50071391725347
O            4.56565258381079       -1.22937033368332        6.69086985080897
C            5.72579357310716       -1.80692399125161        7.22246151275881
O           -7.04801223588612       -1.95726935745904        5.14194115322235
O           -6.01514389321278       -2.93743591896022        6.94765316328794
C           -7.21292732384718       -3.62681918543340        7.15115816329978
C           -4.95459780685163        2.65960679932188        5.86868674392943
C           -3.68284113682406        2.59129188358641        2.05479246020704
H           -7.43119628931628       -4.22607794725959        6.20622607140901
H           -8.06548455146707       -2.91765848248592        7.29781126410398
H           -7.07314693247270       -4.33087306029711        7.91223421050944
H            6.57332189837178       -1.29353136199234        6.78341268688262
H            5.74663761932316       -2.84282155125561        6.88089468184451
H            5.69426191474290       -1.72781984964892        8.29460302186842
H           -4.10481209541493        3.44288266176275        2.60483747673152
H           -4.49244774344916        1.87419893016926        1.82433103764650
H           -3.18901540870812        2.85154642679373        1.06781919454921
H           -5.55414326821421        2.76698137191684        4.93950725322359
H           -4.78658370641210        3.62090640967288        6.25983200635257
H           -5.43485580473958        1.97242995129449        6.65265772412460
H            0.89164886030839        7.38838561720231        1.13776105146914
H           -0.62894889903848        8.04195665205089        1.64837664327952
H           -0.59282546386754        7.45699159724320        0.03719083132488
116
 energy: -22.463067816342 gnorm: 0.598874103827 xtb: 6.6.1 (8d0f1dd)
C           -2.33499617954452        0.57833876915790       -1.97243135068635
C           -1.61514486113631       -0.19445101226435       -0.95855094632265
C           -0.80310411741644        0.73372142143272       -0.08388885230513
C           -0.70701005758029        2.12835519156233       -0.29615957387447
C           -1.60916545901644        2.82295399067981       -1.15066060721817
C           -2.46543641258127        2.01848120202381       -1.89454868103875
C           -0.15790017187614        0.05062654417171        1.04289395270302
C            0.98690301202705        0.66479671146422        1.53898789092868
C            1.11372526804060        2.13091684554933        1.23816219108805
N            0.15000904606453        2.78415989133109        0.57503635998810
C           -0.56534494523271       -1.23972766818094        1.38310483737944
C            0.34601789323764       -1.78146210692973        2.32089741747237
N            1.68814793855090       -1.32704255185016        2.49468430017980
C            1.87009119395523       -0.01238859449545        2.42947321198530
C            2.87711301205128        0.72492535590889        2.89481789771455
C            3.18970631689357        1.97277037507819        2.35928115610154
C            2.23049119984707        2.77379643098410        1.85452091520215
C           -1.96918757721684       -1.57665777842998        1.55277987813637
C           -2.23314869346621       -2.85992815769644        2.05898073204671
C           -1.22876553998303       -3.50384723906717        2.85379080921583
C            0.06521526337742       -2.91292123227025        3.08621824673861
O           -3.06511960480775       -0.70707205012847        1.58298813038886
O           -1.61293263582147       -1.66160220226746       -1.36628997218528
C           -3.62810360723477        2.65288002104895       -2.64766797330942
C           -1.45807778253826       -4.54454837099433        3.90481459055919
H           -1.59916435043685        3.91582257398333       -1.53587827780196
H           -3.09397303929130        0.07168936968768       -2.46240060611968
H            2.67984838667031        3.84569285269303        1.77518424958216
H            3.30396373167216        0.46853767598894        3.85106728790473
H            0.78752641995587       -3.08824863929506        3.95875405513365
H           -3.13870899638595       -3.41177718542683        1.93498740520698
O           -3.37680855114266        3.54532503709012       -3.44164804782198
O           -4.90776401088703        2.27633039864708       -2.39589113773467
C           -5.72990785431117        3.21736263239695       -3.22735808131829
C            4.67103866860772        2.42841093986977        2.71015285832863
O            5.23853824545941        2.00303693197310        3.73998061152790
O            5.20410921449254        3.42162156129986        1.88111902360489
C            6.37428023672795        2.89288566755323        1.26914035408018
O           -1.69737450983065       -4.01691144831330        5.03601676205518
O           -1.17470693166404       -5.75567965952358        3.65892411014241
C           -0.78512352952871       -6.46685905618942        4.80907816712727
C           -4.19792363148062       -1.10507512607662        2.17850905392354
C           -0.46043834276667       -2.00512903463026       -2.20414714001389
H           -1.78480509209475       -6.44725610855746        5.34127621017028
H           -0.00899904581686       -6.10372222515825        5.60418317050867
H           -0.45808041670099       -7.52167488786032        4.59387750790194
H            6.10962390383078        1.81377766928975        1.03727569797303
H            7.20111499811178        2.94518838167468        1.84578423338345
H            6.54538393749790        3.40484785764024        0.35323257525397
H            0.49844414475045       -2.53688862100137       -1.60908567829355
H            0.22636985688898       -1.22848186747671       -2.62444593537244
H           -0.70483323035536       -2.70201453344055       -3.07195702984288
H           -4.37197858724033       -2.18469964263374        2.02593766824895
H           -5.01904645918758       -0.42747683277807        1.95315847092133
H           -4.02232774112197       -0.93761785040095        3.25911465472542
H           -6.77182059730556        3.21860764797899       -2.86821881214656
H           -5.82650617132573        3.17391628936327       -4.46273984531097
H           -5.15889128221353        4.25964986059711       -3.27674791087826
C           -2.04497268433443        3.89503607928529        4.48579501801311
C           -2.47948724965262        2.53087114284818        4.78906652367597
C           -1.33962443909853        1.72041208693764        5.39649492081808
C            0.08791966301697        2.06586314329657        5.31781342552669
C            0.30624007544575        3.36481794826374        4.81300571957410
C           -0.67580572895999        4.20329971922390        4.23702498317369
C           -1.66447308840268        0.57950389654732        6.12551277111018
C           -0.60982134231074       -0.37557529311465        6.27009766257267
C            0.89203159830657        0.01525224163462        6.10790166971131
N            1.28116022533462        1.34998356126627        5.66327564345172
C           -3.12051972799503        0.21875504398713        6.34957946338948
C           -3.27727677771249       -1.15892575538699        6.62454180342959
N           -2.32632197799634       -2.12469946886844        6.73293271711393
C           -0.94738279178663       -1.68867224548687        6.62962477135446
C            0.14278515105709       -2.48838430551708        7.14765540545105
C            1.47201048035601       -2.28830760322819        7.03993195962574
C            1.83683088378099       -1.16173075717683        6.19440001271823
C           -4.26077217408149        1.08178040687825        6.48299564227880
C           -5.57270014316680        0.51801449399210        6.60967210544299
C           -5.67865278405907       -0.90879297759260        6.67003614272115
C           -4.60999253724803       -1.75731403125911        6.96034044185913
O           -4.35325701688168        2.54786197532239        6.72316903558098
O           -3.49930798879329        1.96270311104847        4.07519204831437
C           -0.32725700411823        5.30159108767118        3.24762832915595
C           -6.98936349443189       -1.53943769054921        6.71072237349651
H            1.27917177335685        3.71108289796623        4.81658236606990
H           -2.73755754835824        4.57100279964741        3.71348747101365
H            2.74089877882313       -1.23625435352389        5.72540155861405
H            0.11242843942340       -3.65907927090405        7.36087731552778
H           -4.49086495502408       -2.84733673845802        6.98385662955771
H           -6.32654848254816        1.27067225267873        6.52331381780254
O            0.16534282336360        6.32976727648808        3.60149541638300
O           -0.96936622405021        4.88272956345711        2.09651864409219
C           -1.11731500641994        6.05681083105563        1.25239617405535
C            2.57395158378098       -3.36824773822406        7.33289533497425
O            2.20202443788261       -4.53708992847743        7.57470928774564
O            3.91147862286458       -2.78725429877743        7.20869979667394
C            4.63549221394812       -3.86068583148190        7.71596388973234
O           -7.97330425167628       -0.91567529220850        6.45891083728590
O           -7.14998989875897       -2.83331038165225        7.21194271496164
C           -8.43277761754880       -2.84900559188114        7.84121401263991
C           -5.19044395104349        3.42941628014357        5.91000934176612
C           -2.92058877106216        1.77431103108635        2.75391788114861
H           -8.88385038238273       -1.83082422845976        7.75674803891596
H           -8.26624911344630       -3.23653722318226        9.00117045772978
H           -8.87748925163075       -3.67477800614129        7.51085471885424
H            5.54018000790282       -3.60630406443259        8.21289918330706
H            4.91474273685702       -4.41097533564686        6.77405540775400
H            4.12913702605471       -4.60178294434321        8.28473650392494
H           -2.00750680910330        2.17974850270470        2.90841056233401
H           -3.46859098901571        2.31790971549794        1.90010957958457
H           -3.13507706897272        0.70086178905390        2.80714920856029
H           -4.78892054541755        3.63586182280177        4.87620691117285
H           -5.12675292643077        4.22191810137784        6.43513329532835
H           -6.24518264642544        3.03488183186883        5.97375771474467
H           -1.79543187108799        6.93073850597517        1.67804903499342
H           -1.46707383570773        5.68191174044014        0.23279523268430
H           -0.13247797751051        6.45815371637777        0.98502889337902
116
 energy: -22.577397834146 gnorm: 0.565309436563 xtb: 6.6.1 (8d0f1dd)
C           -2.74927206065318        0.32888330896286       -1.77039063506400
C           -2.05577305334733       -0.38408894910731       -0.76811255558140
C           -1.45835245395413        0.48995032353715        0.21462135065271
C           -1.74296792706377        1.81181342535476        0.10952627480980
C           -2.67764345556067        2.42141080975724       -0.79789279134605
C           -3.19360550510723        1.69144274010732       -1.76137164517169
C           -0.58908632333422        0.16988997730682        1.25149548548397
C            0.51924798074243        0.89685968901956        1.51801189915278
C            0.35249180008965        2.24013251799631        1.19143855422728
N           -0.84983389974148        2.56310657714631        0.67114441443514
C           -0.35003185081414       -1.19583355269429        1.68753339313886
C            0.96976293617319       -1.69715555611541        2.08659785621316
N            1.88447004713265       -0.81967079275842        2.53052966921449
C            1.84388170129275        0.40716576695186        2.06914824540535
C            2.93543345338947        1.26983020905215        2.33689608491054
C            2.87107867980446        2.55678587448610        1.70083238369043
C            1.53104590087328        3.08555297839629        1.37992799415679
C           -1.51114169034817       -2.04458279127691        2.05901733358047
C           -1.25921995804701       -3.45845963076317        2.31538991034929
C           -0.04007232984109       -4.04156997554476        2.38286711224430
C            1.06549147224387       -3.11807638114341        2.39392567138739
O           -2.75796753005807       -1.45557487521556        2.39516878685264
O           -1.56960377735978       -1.70665841572356       -0.76622142248283
C           -3.94260213317929        2.08047071695646       -2.87319019177916
C            0.34763237604396       -5.38424338217095        2.92884850021456
H           -2.94933641684688        3.53925515066789       -0.76937016392466
H           -3.01471872246044       -0.14101060227569       -2.65274945243973
H            1.27471071268417        4.10590752826618        1.14903882283459
H            3.68592850767309        1.03706260163068        3.01251017369097
H            1.97289057063153       -3.52728076492425        2.82186399256240
H           -2.20237459697091       -3.90676691890334        2.65440669714257
O           -4.53021387860390        3.12493889423428       -2.68682145855204
O           -3.99899979396275        1.48623549063491       -4.10827724676366
C           -5.01062340759895        2.04017001849385       -4.82259468678328
C            4.16377565657068        3.38060159187409        1.91833879324595
O            4.38206719417959        3.87222435720666        3.03716432050544
O            5.19464591287034        3.11174244664496        0.99973661707951
C            6.50818726478315        3.32983497970473        1.49681828395533
O            1.50650535511612       -5.87006232844014        2.68498907719431
O           -0.50572591520230       -5.73827072117820        3.88749997475175
C            0.13991545839293       -6.65363186852209        4.78766532216719
C           -3.89675478708891       -2.23584343827711        2.53509454329836
C           -2.13222015916911       -2.50003141406394       -1.82109935476455
H           -0.81290073417991       -7.12212454862660        4.92352212506594
H            0.46147366157521       -6.33984371110868        5.79149452824964
H            0.98861750975236       -7.02218727333499        4.25772110020739
H            7.05628056781879        3.27518297571547        0.61309262778258
H            6.72098232003735        2.39442450367204        2.00470252743552
H            6.64799538915631        4.37047885177889        2.12454802339513
H           -3.31481741396130       -2.51704313110847       -1.80504848358880
H           -1.62211150433133       -3.36102923679348       -1.82826716741576
H           -2.01638612347272       -2.03619632502865       -2.73962586513905
H           -3.66547226696090       -3.12515009722278        1.88943505956677
H           -4.78509213146805       -1.77380380881387        2.09108004343235
H           -4.32407658280437       -2.52808633041122        3.49524132151726
H           -5.67110997848114        1.15319041074028       -4.93192852554319
H           -4.84324935516477        2.16072363146979       -5.86075460964066
H           -5.56647925291035        2.87828057779749       -4.18790044041889
C           -1.38633929568041        3.87340386883278        3.99430174804261
C           -2.02814904063125        2.71806816485962        4.46708842929360
C           -1.18202684931155        1.74869264483992        5.35802944835776
C            0.22438111756284        1.87897891795467        5.42132297393853
C            0.78881302271549        3.10913540050572        5.02904725237908
C            0.10352660074722        4.06399638048244        4.19174200518089
C           -1.79092982241502        0.55653260947000        5.82600954366612
C           -0.90393342015216       -0.48651678803512        6.18609460254903
C            0.50391698859908       -0.45398575811317        5.99339855399390
N            1.01929909138120        0.87801916991079        5.83840855127707
C           -3.14035730457341        0.34430649780306        6.10048393284224
C           -3.72228896228352       -0.96237542888735        6.22972226001136
N           -2.79640780461218       -1.91601350207973        6.57722497491924
C           -1.40809835147386       -1.76051144380180        6.51298055724958
C           -0.53689320142505       -2.87169496002092        6.48503620374794
C            0.74174393979966       -2.85207930317242        6.17837530440554
C            1.26619367870669       -1.55628659715730        5.95945612200476
C           -4.10197726690871        1.37274491552596        6.23211675376540
C           -5.50273190399113        1.11308768928583        6.18125460358079
C           -6.04434638207510       -0.08697896750170        6.61501015490055
C           -5.06805518650094       -1.05896452555308        6.54284825964151
O           -3.82659668827208        2.72957208960024        6.63706877749665
O           -3.30074460074664        2.38416645961079        3.96951887625083
C            0.74743387104273        5.46553739773737        4.10571082245056
C           -7.43736881737579       -0.35368919575716        7.22432081660952
H            1.83862465299322        3.38122382023001        5.28753602416741
H           -1.74271200073083        4.67124104298353        3.50390441961044
H            2.33281957086419       -1.35453256607829        5.68886835710422
H           -0.98425978117954       -3.94537950813147        6.28472712680744
H           -5.39153008644427       -2.01469603926076        7.07417960326481
H           -6.19442403934936        1.89425294603177        6.43172300887464
O            1.96312261924155        5.49372353966607        3.93079774664829
O            0.00811046730320        6.64905317001006        3.74749560023816
C            0.46691913383272        7.57741050918210        2.77780327013634
C            1.71438675530645       -3.64470871037559        7.01244521111225
O            1.33154050692169       -4.81570075002165        7.08886101722319
O            2.79230239784204       -3.04250431567243        7.78284001978460
C            3.54765176022323       -4.01872511181730        8.36143656012215
O           -8.03791716883612        0.70545162716629        7.65004102935114
O           -8.11213673453562       -1.65236444953379        7.25252602654908
C           -9.58449068918415       -1.53484976976459        7.41949581919417
C           -4.01456874097843        2.93198307702284        8.10402685622569
C           -3.17553800892486        1.50195725889847        2.86739137495871
H          -10.11744402971312       -1.94381517075910        6.55817544836545
H           -9.90647860575204       -0.44997502543010        7.60675684080257
H           -9.74708507916675       -2.20447111962794        8.15931077920878
H            4.04352166069256       -3.71086560954442        9.26641928314704
H            4.14971463696006       -4.31155803579766        7.57493203839179
H            3.06018118034487       -5.00807344349682        8.55422032507205
H           -2.39727187973724        0.61552443221483        2.99460825378226
H           -2.95709693312927        1.98463438996444        1.91699217005006
H           -4.21018281756053        0.97194551102838        2.89149114193729
H           -4.68516841282087        3.77159324835616        8.23780226661779
H           -2.91978297073365        3.01992279076806        8.56197979833568
H           -4.33112241666112        2.02409876119008        8.65986999647820
H            1.44042329588508        8.07664383405367        3.23284981033954
H           -0.33717277608767        8.30006061264008        2.62536688154418
H            0.63829223460240        7.08531227817854        1.79025481405203
116
 energy: -22.516662768170 gnorm: 0.560622415394 xtb: 6.6.1 (8d0f1dd)
C           -3.12103077201205       -0.26080970265261       -1.21944105296003
C           -1.92586206019392       -0.80969077575467       -0.60317626542892
C           -1.03482703314597        0.00814687782452        0.14165029228800
C           -1.02209224997845        1.46369683226745       -0.12831819801911
C           -2.03150183967993        1.86429871486770       -0.94474533915060
C           -3.18978760278195        1.10784224801854       -1.12660153061896
C           -0.11168148892208       -0.52328359463940        1.09722492490076
C            0.95798265995584        0.39606735202374        1.37752710813895
C            1.01967029297719        1.76511059053363        0.93319166269227
N           -0.00568640953236        2.34842821673335        0.12668944267138
C           -0.07138510703976       -1.84911162287131        1.70457603301061
C            1.24322508302426       -2.27679398560438        2.12165367127584
N            2.15691190023298       -1.39351228029507        2.68401795702599
C            2.06007340879107       -0.04631918259391        2.19331789335770
C            2.99833523008361        0.93050202558881        2.56117860649224
C            3.13446838659112        2.21560354313916        2.06555783996551
C            2.08159452119687        2.56182438360813        1.22189886612586
C           -1.29314138501725       -2.40690167223798        2.12917735813046
C           -1.10740789596863       -3.57484680951952        2.74566070507824
C            0.18764748346750       -4.16233831947577        2.84759155967563
C            1.37094187313968       -3.70301726243483        2.53134323324996
O           -2.35637046133696       -1.49862135715038        1.94507575142966
O           -2.00533926835282       -2.17858822798676       -0.33123814896218
C           -4.15345967028593        1.78283559667069       -2.10380701049642
C            0.33985808055548       -5.33424326428987        3.50024564943867
H           -2.08728094010900        2.93880120220030       -1.19195441182324
H           -3.98636640891367       -0.81966785850539       -1.50338893993701
H            1.96000476849952        3.57057660542323        0.86507615832055
H            3.51653353794985        0.73071135241555        3.49567741032874
H            2.20206419150381       -4.19986096912952        2.99870096921935
H           -1.96570245095084       -4.23408621410823        2.92615800347066
O           -3.91123213005325        2.91151189677023       -2.55868683476607