Optimization of monomers started
      -----------------------------------------------------------      
     |                   =====================                   |     
     |                           x T B                           |     
     |                   =====================                   |     
     |                         S. Grimme                         |     
     |          Mulliken Center for Theoretical Chemistry        |     
     |                    University of Bonn                     |     
      -----------------------------------------------------------      

   * xtb version 6.7.1 (edcfbbe) compiled by 'runner@Mac-1732539442253.local' on 2024-11-25

   xtb is free software: you can redistribute it and/or modify it under
   the terms of the GNU Lesser General Public License as published by
   the Free Software Foundation, either version 3 of the License, or
   (at your option) any later version.
   
   xtb is distributed in the hope that it will be useful,
   but WITHOUT ANY WARRANTY; without even the implied warranty of
   MERCHANTABILITY or FITNESS FOR A PARTICULAR PURPOSE.  See the
   GNU Lesser General Public License for more details.
   
   Cite this work as:
   * C. Bannwarth, E. Caldeweyher, S. Ehlert, A. Hansen, P. Pracht,
     J. Seibert, S. Spicher, S. Grimme, WIREs Comput. Mol. Sci., 2020, 11,
     e01493. DOI: 10.1002/wcms.1493
   
   for GFN2-xTB:
   * C. Bannwarth, S. Ehlert and S. Grimme., J. Chem. Theory Comput., 2019,
     15, 1652-1671. DOI: 10.1021/acs.jctc.8b01176
   for GFN1-xTB:
   * S. Grimme, C. Bannwarth, P. Shushkov, J. Chem. Theory Comput., 2017,
     13, 1989-2009. DOI: 10.1021/acs.jctc.7b00118
   for GFN0-xTB:
   * P. Pracht, E. Caldeweyher, S. Ehlert, S. Grimme, ChemRxiv, 2019, preprint.
     DOI: 10.26434/chemrxiv.8326202.v1
   for GFN-FF:
   * S. Spicher and S. Grimme, Angew. Chem. Int. Ed., 2020, 59, 15665-15673.
     DOI: 10.1002/anie.202004239
   
   for ALPB and GBSA implicit solvation:
   * S. Ehlert, M. Stahn, S. Spicher, S. Grimme, J. Chem. Theory Comput.,
     2021, 17, 4250-4261. DOI: 10.1021/acs.jctc.1c00471
   
   for ddCOSMO and CPCM-X implicit solvation:
   * M. Stahn, S. Ehlert, S. Grimme, J. Phys. Chem. A,
     2023, XX, XXXX-XXXX. DOI: 10.1021/acs.jpca.3c04382
   
   for DFT-D4:
   * E. Caldeweyher, C. Bannwarth and S. Grimme, J. Chem. Phys., 2017,
     147, 034112. DOI: 10.1063/1.4993215
   * E. Caldeweyher, S. Ehlert, A. Hansen, H. Neugebauer, S. Spicher,
     C. Bannwarth and S. Grimme, J. Chem. Phys., 2019, 150, 154122.
     DOI: 10.1063/1.5090222
   * E. Caldeweyher, J.-M. Mewes, S. Ehlert and S. Grimme, Phys. Chem. Chem. Phys.
     2020, 22, 8499-8512. DOI: 10.1039/D0CP00502A
   
   for sTDA-xTB:
   * S. Grimme and C. Bannwarth, J. Chem. Phys., 2016, 145, 054103.
     DOI: 10.1063/1.4959605
   
   in the mass-spec context:
   * V. Asgeirsson, C. Bauer and S. Grimme, Chem. Sci., 2017, 8, 4879.
     DOI: 10.1039/c7sc00601b
   * J. Koopman and S. Grimme, ACS Omega 2019, 4, 12, 15120-15133.
     DOI: 10.1021/acsomega.9b02011
   
   for metadynamics refer to:
   * S. Grimme, J. Chem. Theory Comput., 2019, 155, 2847-2862
     DOI: 10.1021/acs.jctc.9b00143
   
   for SPH calculations refer to:
   * S. Spicher and S. Grimme, J. Chem. Theory Comput., 2021, 17, 1701-1714
     DOI: 10.1021/acs.jctc.0c01306
   
   for ONIOM refer to:
   * C. Plett, A. Katbashev, S. Ehlert, S. Grimme, M. Bursch,
     Phys. Chem. Chem. Phys., 2023, 25, 17860-17868. DOI: 10.1039/D3CP02178E
   
   for DIPRO refer to:
   * J. Kohn, N. Gildemeister, S. Grimme, D. Fazzi, A. Hansen,
     J. Chem. Phys., 2023, just accepted.
   
   for PTB refer to:
   * S. Grimme, M. Mueller, A. Hansen, J. Chem. Phys., 2023, 158, 124111.
     DOI: 10.1063/5.0137838
   
   with help from (in alphabetical order)
   P. Atkinson, C. Bannwarth, F. Bohle, G. Brandenburg, E. Caldeweyher
   M. Checinski, S. Dohm, S. Ehlert, S. Ehrlich, I. Gerasimov, C. Hölzer
   A. Katbashev, J. Kohn, J. Koopman, C. Lavigne, S. Lehtola, F. März, M. Müller,
   F. Musil, H. Neugebauer, J. Pisarek, C. Plett, P. Pracht, F. Pultar,
   J. Seibert, P. Shushkov, S. Spicher, M. Stahn, M. Steiner, T. Strunk,
   J. Stückrath, T. Rose, and J. Unsleber
   
 * started run on 2025/03/17 at 12:09:35.959     
   ID    Z sym.   atoms
    1    6 C      1-21, 25-44, 47, 52-75
    2    8 O      22, 23, 45, 46, 48-51
    3    5 B      24
    4    1 H      76-141

           -------------------------------------------------
          |                Calculation Setup                |
           -------------------------------------------------

          program call               : xtb Katherine1.mol --opt tight --cycles 500 --chrg -1 --uhf 2 --spinpol --tblite
          coordinate file            : Katherine1.mol
          omp threads                :                     8

########################################################################
[WARNING] Please study the warnings concerning your input carefully
-1- prog_main: Charge in sdf/mol input was overwritten
########################################################################
repulsion energy          2.8095451010688E+00 Eh
dispersion energy         2.8033149374234E-03 Eh
interaction energy        0.0000000000000E+00 Eh
number of electrons       3.8200000000000E+02 e
integral cutoff           1.9311100799991E+01 bohr

------------------------------------------------------------
  cycle        total energy    energy error   density error
------------------------------------------------------------
      1     -208.1765921153  -2.1098894E+02   1.0920567E-01
      2     -209.0155337847  -8.3894167E-01   5.2941150E-02
      3     -209.0064685648   9.0652198E-03   2.8292035E-02
      4     -209.0779318942  -7.1463329E-02   1.3827702E-02
      5     -209.1247254210  -4.6793527E-02   5.1414225E-03
      6     -209.1296829571  -4.9575361E-03   2.8900536E-03
      7     -209.1313824981  -1.6995410E-03   1.7031798E-03
      8     -209.1319160954  -5.3359727E-04   6.9846213E-04
      9     -209.1319616081  -4.5512688E-05   4.5418763E-04
     10     -209.1319782358  -1.6627684E-05   2.2580603E-04
     11     -209.1319803977  -2.1619100E-06   1.3241374E-04
     12     -209.1319827404  -2.3427819E-06   6.3529228E-05
     13     -209.1319829885  -2.4805286E-07   3.2263410E-05
     14     -209.1319830913  -1.0277981E-07   1.5270773E-05
------------------------------------------------------------

electronic energy        -2.1194433150728E+02 Eh
total energy             -2.0913198309128E+02 Eh

 total:                                   1.744 sec
 - repulsion                              0.001 sec (  0%)
 - dispersion                             0.024 sec (  1%)
 - coulomb                                0.006 sec (  0%)
 - hamiltonian                            0.019 sec (  1%)
 - scc                                    1.694 sec ( 97%)

      ----------------------------------------------------------- 
     |                   =====================                   |
     |                        A N C O P T                        |
     |                   =====================                   |
     |               Approximate Normal Coordinate               |
     |                Rational Function Optimizer                |
      ----------------------------------------------------------- 
      ----------------------------------------------------------- 
     |                   =====================                   |
     |                        A N C O P T                        |
     |                   =====================                   |
     |               Approximate Normal Coordinate               |
     |                Rational Function Optimizer                |
      ----------------------------------------------------------- 

          ...................................................
          :                      SETUP                      :
          :.................................................:
          :   optimization level             tight          :
          :   max. optcycles                   500          :
          :   ANC micro-cycles                  20          :
          :   degrees of freedom               417          :
          :.................................................:
          :   RF solver                   davidson          :
          :   write xtbopt.log                true          :
          :   linear?                        false          :
          :   energy convergence         0.1000000E-05 Eh   :
          :   grad. convergence          0.8000000E-03 Eh/α :
          :   maxmium RF displ.          1.0000000          :
          :   Hlow (freq-cutoff)         0.1000000E-01      :
          :   Hmax (freq-cutoff)         5.0000000          :
          :   S6 in model hess.         20.0000000          :
          ...................................................

generating ANC from exact Hessian ...
Using Lindh-Hessian (1995)
 Shifting diagonal of input Hessian by    9.9756641174003954E-003
 Lowest  eigenvalues of input Hessian
    0.000000    0.000000    0.000000    0.000000    0.000000    0.000000
    0.010000    0.010015    0.010017    0.010101    0.010130    0.010326
    0.010335    0.010393    0.010519    0.010634    0.010734    0.010761
 Highest eigenvalues
    1.991351    1.993531    2.194923    2.196995    2.223459    2.224924


........................................................................
.............................. CYCLE    1 ..............................
........................................................................
------------------------------------------------------------
  cycle        total energy    energy error   density error
------------------------------------------------------------
      1     -209.1319827860  -2.1194433E+02   2.9134463E-05
      2     -209.1319827294   5.6631848E-08   2.9445567E-05
      3     -209.1319831114  -3.8197754E-07   5.2673765E-06
------------------------------------------------------------

 total:                                   0.436 sec
 * total energy  :  -209.1319831 Eh     change       -0.2007471E-07 Eh
   gradient norm :     0.2281725 Eh/α   predicted     0.0000000E+00 (-100.00%)
   displ. norm   :     0.5573864 α      lambda       -0.1025699E+00
   maximum displ.:     0.2020050 α      in ANC's #162, #241, #224, ...

........................................................................
.............................. CYCLE    2 ..............................
........................................................................
------------------------------------------------------------
  cycle        total energy    energy error   density error
------------------------------------------------------------
      1     -209.2055837690  -2.1213503E+02   6.6576350E-03
      2     -209.2059014437  -3.1767466E-04   4.3843118E-03
      3     -209.2050281684   8.7327531E-04   3.1689641E-03
      4     -209.2076190658  -2.5908974E-03   7.3914004E-04
      5     -209.2077896532  -1.7058744E-04   3.1556535E-04
      6     -209.2078046249  -1.4971729E-05   2.1541449E-04
      7     -209.2078062601  -1.6351770E-06   1.0834791E-04
      8     -209.2078086059  -2.3457745E-06   4.2106702E-05
      9     -209.2078087594  -1.5351870E-07   2.4319399E-05
     10     -209.2078087986  -3.9178246E-08   1.0104929E-05
------------------------------------------------------------

 total:                                   1.699 sec
 * total energy  :  -209.2078088 Eh     change       -0.7582569E-01 Eh
   gradient norm :     0.1226144 Eh/α   predicted    -0.6722975E-01 ( -11.34%)
   displ. norm   :     0.5675113 α      lambda       -0.5044647E-01
   maximum displ.:     0.2172126 α      in ANC's #154, #90, #162, ...

........................................................................
.............................. CYCLE    3 ..............................
........................................................................
------------------------------------------------------------
  cycle        total energy    energy error   density error
------------------------------------------------------------
      1     -209.2385423371  -2.1227565E+02   4.8264491E-03
      2     -209.2390438648  -5.0152768E-04   3.3731168E-03
      3     -209.2390623337  -1.8468862E-05   2.0401492E-03
      4     -209.2399873746  -9.2504088E-04   5.4548567E-04
      5     -209.2400639858  -7.6611271E-05   2.5678092E-04
      6     -209.2400729499  -8.9641134E-06   1.6372018E-04
      7     -209.2400722171   7.3284238E-07   9.7298901E-05
      8     -209.2400748782  -2.6610655E-06   3.0458783E-05
      9     -209.2400749532  -7.5046756E-08   1.8321413E-05
------------------------------------------------------------

 total:                                   1.192 sec
 * total energy  :  -209.2400750 Eh     change       -0.3226615E-01 Eh
   gradient norm :     0.0379994 Eh/α   predicted    -0.3334688E-01 (   3.35%)
   displ. norm   :     0.5627202 α      lambda       -0.1444764E-01
   maximum displ.:     0.1709291 α      in ANC's #90, #36, #30, ...

........................................................................
.............................. CYCLE    4 ..............................
........................................................................
------------------------------------------------------------
  cycle        total energy    energy error   density error
------------------------------------------------------------
      1     -209.2506433732  -2.1232217E+02   3.3008215E-03
      2     -209.2506949949  -5.1621666E-05   1.9504045E-03
      3     -209.2503936288   3.0136602E-04   1.0620985E-03
      4     -209.2507516620  -3.5803320E-04   1.5947751E-04
      5     -209.2507598817  -8.2196558E-06   8.1688008E-05
      6     -209.2507605998  -7.1807779E-07   4.6406444E-05
      7     -209.2507605615   3.8301494E-08   2.1281139E-05
      8     -209.2507606804  -1.1894369E-07   9.3522933E-06
------------------------------------------------------------

 total:                                   1.094 sec
 * total energy  :  -209.2507607 Eh     change       -0.1068573E-01 Eh
   gradient norm :     0.0226552 Eh/α   predicted    -0.9511270E-02 ( -10.99%)
   displ. norm   :     0.6179223 α      lambda       -0.8079545E-02
   maximum displ.:     0.2252721 α      in ANC's #30, #21, #36, ...

........................................................................
.............................. CYCLE    5 ..............................
........................................................................
------------------------------------------------------------
  cycle        total energy    energy error   density error
------------------------------------------------------------
      1     -209.2568414789  -2.1235762E+02   2.8145849E-03
      2     -209.2568603981  -1.8919203E-05   1.6506848E-03
      3     -209.2567004272   1.5997089E-04   7.1321139E-04
      4     -209.2568801280  -1.7970079E-04   1.0419742E-04
      5     -209.2568838148  -3.6867536E-06   5.0686009E-05
      6     -209.2568841085  -2.9369696E-07   2.7237674E-05
      7     -209.2568841077   8.2300744E-10   1.2118142E-05
------------------------------------------------------------

 total:                                   0.967 sec
 * total energy  :  -209.2568841 Eh     change       -0.6123427E-02 Eh
   gradient norm :     0.0161048 Eh/α   predicted    -0.5582274E-02 (  -8.84%)
   displ. norm   :     0.6163819 α      lambda       -0.4619619E-02
   maximum displ.:     0.2743552 α      in ANC's #21, #30, #33, ...

........................................................................
.............................. CYCLE    6 ..............................
........................................................................
------------------------------------------------------------
  cycle        total energy    energy error   density error
------------------------------------------------------------
      1     -209.2603762558  -2.1237859E+02   2.2990306E-03
      2     -209.2603930900  -1.6834199E-05   1.3626300E-03
      3     -209.2602894402   1.0364981E-04   5.6102557E-04
      4     -209.2604057694  -1.1632925E-04   8.0637444E-05
      5     -209.2604080770  -2.3076107E-06   3.7033463E-05
      6     -209.2604083530  -2.7594660E-07   1.8082625E-05
------------------------------------------------------------

 total:                                   0.791 sec
 * total energy  :  -209.2604084 Eh     change       -0.3524245E-02 Eh
   gradient norm :     0.0091418 Eh/α   predicted    -0.3187370E-02 (  -9.56%)
   displ. norm   :     0.6250495 α      lambda       -0.2934003E-02
   maximum displ.:     0.3413405 α      in ANC's #21, #30, #33, ...

........................................................................
.............................. CYCLE    7 ..............................
........................................................................
------------------------------------------------------------
  cycle        total energy    energy error   density error
------------------------------------------------------------
      1     -209.2627060502  -2.1239325E+02   1.8562229E-03
      2     -209.2627118950  -5.8448564E-06   1.0964886E-03
      3     -209.2626642858   4.7609181E-05   3.2975229E-04
      4     -209.2627165921  -5.2306302E-05   5.0026067E-05
      5     -209.2627172754  -6.8325548E-07   2.4004263E-05
      6     -209.2627173304  -5.4969547E-08   1.1977236E-05
------------------------------------------------------------

 total:                                   0.848 sec
 * total energy  :  -209.2627173 Eh     change       -0.2308977E-02 Eh
   gradient norm :     0.0102377 Eh/α   predicted    -0.2040141E-02 ( -11.64%)
   displ. norm   :     0.6373926 α      lambda       -0.2220613E-02
   maximum displ.:     0.3689287 α      in ANC's #21, #30, #6, ...

........................................................................
.............................. CYCLE    8 ..............................
........................................................................
------------------------------------------------------------
  cycle        total energy    energy error   density error
------------------------------------------------------------
      1     -209.2645225973  -2.1240193E+02   1.5738091E-03
      2     -209.2645361856  -1.3588295E-05   9.3432098E-04
      3     -209.2645073278   2.8857824E-05   2.7845097E-04
      4     -209.2645386542  -3.1326365E-05   6.5790579E-05
      5     -209.2645404090  -1.7548006E-06   2.1659311E-05
      6     -209.2645404753  -6.6288663E-08   1.3279407E-05
------------------------------------------------------------

 total:                                   0.895 sec
 * total energy  :  -209.2645405 Eh     change       -0.1823145E-02 Eh
   gradient norm :     0.0090910 Eh/α   predicted    -0.1561390E-02 ( -14.36%)
   displ. norm   :     0.6641608 α      lambda       -0.1927951E-02
   maximum displ.:     0.3718866 α      in ANC's #21, #6, #13, ...

........................................................................
.............................. CYCLE    9 ..............................
........................................................................
------------------------------------------------------------
  cycle        total energy    energy error   density error
------------------------------------------------------------
      1     -209.2661720564  -2.1240467E+02   1.5481768E-03
      2     -209.2661747436  -2.6872565E-06   9.2648699E-04
      3     -209.2660905955   8.4148117E-05   4.0771574E-04
      4     -209.2661826934  -9.2097924E-05   4.0023645E-05
      5     -209.2661830677  -3.7421353E-07   2.0951854E-05
      6     -209.2661830990  -3.1297247E-08   1.0764693E-05
------------------------------------------------------------

 total:                                   0.873 sec
 * total energy  :  -209.2661831 Eh     change       -0.1642624E-02 Eh
   gradient norm :     0.0088484 Eh/α   predicted    -0.1389196E-02 ( -15.43%)
   displ. norm   :     0.7198667 α      lambda       -0.1837858E-02
   maximum displ.:     0.3796407 α      in ANC's #21, #6, #13, ...

........................................................................
.............................. CYCLE   10 ..............................
........................................................................
------------------------------------------------------------
  cycle        total energy    energy error   density error
------------------------------------------------------------
      1     -209.2677205657  -2.1240738E+02   1.5638655E-03
      2     -209.2677310366  -1.0470830E-05   9.2450080E-04
      3     -209.2676579864   7.3050151E-05   4.0929562E-04
      4     -209.2677382068  -8.0220346E-05   6.1391733E-05
      5     -209.2677396168  -1.4100753E-06   2.4098045E-05
      6     -209.2677396848  -6.7996183E-08   1.5016945E-05
------------------------------------------------------------

 total:                                   0.794 sec
 * total energy  :  -209.2677397 Eh     change       -0.1556586E-02 Eh
   gradient norm :     0.0072561 Eh/α   predicted    -0.1395128E-02 ( -10.37%)
   displ. norm   :     0.7366197 α      lambda       -0.1582247E-02
   maximum displ.:     0.3453549 α      in ANC's #21, #6, #3, ...

........................................................................
.............................. CYCLE   11 ..............................
........................................................................
------------------------------------------------------------
  cycle        total energy    energy error   density error
------------------------------------------------------------
      1     -209.2690562946  -2.1240521E+02   1.5558370E-03
      2     -209.2690606651  -4.3705225E-06   9.2541508E-04
      3     -209.2689867306   7.3934488E-05   3.9543870E-04
      4     -209.2690677940  -8.1063323E-05   4.5036851E-05
      5     -209.2690683576  -5.6362128E-07   2.3766016E-05
      6     -209.2690684229  -6.5320052E-08   1.3465406E-05
------------------------------------------------------------

 total:                                   0.742 sec
 * total energy  :  -209.2690684 Eh     change       -0.1328738E-02 Eh
   gradient norm :     0.0066713 Eh/α   predicted    -0.1220397E-02 (  -8.15%)
   displ. norm   :     0.7200407 α      lambda       -0.1316717E-02
   maximum displ.:     0.3140512 α      in ANC's #6, #21, #3, ...

........................................................................
.............................. CYCLE   12 ..............................
........................................................................
------------------------------------------------------------
  cycle        total energy    energy error   density error
------------------------------------------------------------
      1     -209.2701619942  -2.1240857E+02   1.3763786E-03
      2     -209.2701705489  -8.5546028E-06   8.1407525E-04
      3     -209.2701247856   4.5763262E-05   3.2124266E-04
      4     -209.2701745990  -4.9813416E-05   5.8311733E-05
      5     -209.2701759021  -1.3030912E-06   2.2025597E-05
      6     -209.2701759708  -6.8715678E-08   1.3038146E-05
------------------------------------------------------------

 total:                                   0.784 sec
 * total energy  :  -209.2701760 Eh     change       -0.1107548E-02 Eh
   gradient norm :     0.0076564 Eh/α   predicted    -0.9996908E-03 (  -9.74%)
   displ. norm   :     0.7107299 α      lambda       -0.1128266E-02
   maximum displ.:     0.3251037 α      in ANC's #6, #3, #2, ...

........................................................................
.............................. CYCLE   13 ..............................
........................................................................
------------------------------------------------------------
  cycle        total energy    energy error   density error
------------------------------------------------------------
      1     -209.2711328298  -2.1240904E+02   1.2685825E-03
      2     -209.2711380960  -5.2661559E-06   7.5493847E-04
      3     -209.2711089892   2.9106805E-05   2.5934210E-04
      4     -209.2711406967  -3.1707496E-05   4.5962788E-05
      5     -209.2711414870  -7.9034996E-07   2.0260801E-05
      6     -209.2711415697  -8.2676308E-08   1.0923370E-05
------------------------------------------------------------

 total:                                   0.779 sec
 * total energy  :  -209.2711416 Eh     change       -0.9655989E-03 Eh
   gradient norm :     0.0062430 Eh/α   predicted    -0.8490984E-03 ( -12.07%)
   displ. norm   :     0.7033556 α      lambda       -0.1007093E-02
   maximum displ.:     0.3281394 α      in ANC's #6, #3, #2, ...

........................................................................
.............................. CYCLE   14 ..............................
........................................................................
------------------------------------------------------------
  cycle        total energy    energy error   density error
------------------------------------------------------------
      1     -209.2720019189  -2.1241294E+02   1.1719552E-03
      2     -209.2720070252  -5.1062786E-06   6.9507588E-04
      3     -209.2719877067   1.9318467E-05   2.1525623E-04
      4     -209.2720084485  -2.0741803E-05   4.8381090E-05
      5     -209.2720094019  -9.5341125E-07   1.8664941E-05
------------------------------------------------------------

 total:                                   0.755 sec
 * total energy  :  -209.2720094 Eh     change       -0.8678322E-03 Eh
   gradient norm :     0.0064225 Eh/α   predicted    -0.7526617E-03 ( -13.27%)
   displ. norm   :     0.7054898 α      lambda       -0.9190822E-03
   maximum displ.:     0.3293841 α      in ANC's #6, #3, #2, ...

........................................................................
.............................. CYCLE   15 ..............................
........................................................................
------------------------------------------------------------
  cycle        total energy    energy error   density error
------------------------------------------------------------
      1     -209.2727618022  -2.1241580E+02   1.1622322E-03
      2     -209.2727706498  -8.8476084E-06   6.8807302E-04
      3     -209.2727569134   1.3736475E-05   2.1314267E-04
      4     -209.2727723218  -1.5408418E-05   4.7356940E-05
      5     -209.2727731608  -8.3901375E-07   1.7037629E-05
------------------------------------------------------------

 total:                                   0.661 sec
 * total energy  :  -209.2727732 Eh     change       -0.7637589E-03 Eh
   gradient norm :     0.0084438 Eh/α   predicted    -0.6882619E-03 (  -9.88%)
   displ. norm   :     0.6921728 α      lambda       -0.8413864E-03
   maximum displ.:     0.3319605 α      in ANC's #3, #6, #2, ...

........................................................................
.............................. CYCLE   16 ..............................
........................................................................
------------------------------------------------------------
  cycle        total energy    energy error   density error
------------------------------------------------------------
      1     -209.2734355714  -2.1241633E+02   1.1222221E-03
      2     -209.2734464725  -1.0901180E-05   6.7002739E-04
      3     -209.2734091132   3.7359378E-05   3.1523067E-04
      4     -209.2734509065  -4.1793300E-05   6.2360683E-05
      5     -209.2734526266  -1.7201218E-06   1.9017137E-05
      6     -209.2734527220  -9.5383854E-08   9.6214981E-06
------------------------------------------------------------

 total:                                   0.761 sec
 * total energy  :  -209.2734527 Eh     change       -0.6795612E-03 Eh
   gradient norm :     0.0071458 Eh/α   predicted    -0.6222504E-03 (  -8.43%)
   displ. norm   :     0.6545733 α      lambda       -0.6732783E-03
   maximum displ.:     0.3334735 α      in ANC's #3, #2, #6, ...

........................................................................
.............................. CYCLE   17 ..............................
........................................................................
------------------------------------------------------------
  cycle        total energy    energy error   density error
------------------------------------------------------------
      1     -209.2740283270  -2.1241823E+02   9.7974498E-04
      2     -209.2740301666  -1.8396762E-06   5.8231767E-04
      3     -209.2740026355   2.7531108E-05   2.4029646E-04
      4     -209.2740327810  -3.0145489E-05   2.9358766E-05
      5     -209.2740330467  -2.6565374E-07   1.3492818E-05
------------------------------------------------------------

 total:                                   0.596 sec
 * total energy  :  -209.2740330 Eh     change       -0.5803247E-03 Eh
   gradient norm :     0.0050328 Eh/α   predicted    -0.4808798E-03 ( -17.14%)
   displ. norm   :     0.6172693 α      lambda       -0.5824214E-03
   maximum displ.:     0.3354904 α      in ANC's #3, #2, #6, ...

........................................................................
.............................. CYCLE   18 ..............................
........................................................................
------------------------------------------------------------
  cycle        total energy    energy error   density error
------------------------------------------------------------
      1     -209.2745400785  -2.1241912E+02   8.4496131E-04
      2     -209.2745415810  -1.5025608E-06   4.9922656E-04
      3     -209.2745319275   9.6535876E-06   1.6168322E-04
      4     -209.2745426006  -1.0673158E-05   2.3803493E-05
      5     -209.2745427747  -1.7411415E-07   1.2528497E-05
------------------------------------------------------------

 total:                                   0.584 sec
 * total energy  :  -209.2745428 Eh     change       -0.5097281E-03 Eh
   gradient norm :     0.0043091 Eh/α   predicted    -0.4021742E-03 ( -21.10%)
   displ. norm   :     0.6001984 α      lambda       -0.5441908E-03
   maximum displ.:     0.3444592 α      in ANC's #3, #2, #6, ...

........................................................................
.............................. CYCLE   19 ..............................
........................................................................
------------------------------------------------------------
  cycle        total energy    energy error   density error
------------------------------------------------------------
      1     -209.2750184067  -2.1242023E+02   7.4559754E-04
      2     -209.2750195959  -1.1892031E-06   4.4137881E-04
      3     -209.2750142026   5.3933749E-06   1.2963782E-04
      4     -209.2750202553  -6.0526939E-06   2.0384817E-05
      5     -209.2750203587  -1.0344846E-07   1.1699661E-05
------------------------------------------------------------

 total:                                   0.617 sec
 * total energy  :  -209.2750204 Eh     change       -0.4775840E-03 Eh
   gradient norm :     0.0044987 Eh/α   predicted    -0.3701207E-03 ( -22.50%)
   displ. norm   :     0.6015616 α      lambda       -0.5365009E-03
   maximum displ.:     0.3575743 α      in ANC's #3, #2, #1, ...

........................................................................
.............................. CYCLE   20 ..............................
........................................................................
------------------------------------------------------------
  cycle        total energy    energy error   density error
------------------------------------------------------------
      1     -209.2754939303  -2.1242045E+02   6.9782295E-04
      2     -209.2754948725  -9.4218669E-07   4.1538255E-04
      3     -209.2754858640   9.0085193E-06   1.4977204E-04
      4     -209.2754957753  -9.9112847E-06   2.2052492E-05
      5     -209.2754959268  -1.5154902E-07   1.0291190E-05
------------------------------------------------------------

 total:                                   0.579 sec
 * total energy  :  -209.2754959 Eh     change       -0.4755681E-03 Eh
   gradient norm :     0.0052079 Eh/α   predicted    -0.3653251E-03 ( -23.18%)
   displ. norm   :     0.6177372 α      lambda       -0.5530601E-03
   maximum displ.:     0.3750423 α      in ANC's #3, #2, #1, ...
 * RMSD in coord.:     0.8337450 α      energy gain  -0.1435128E+00 Eh

generating ANC from exact Hessian ...
Using Lindh-Hessian (1995)
 Shifting diagonal of input Hessian by    9.9660007309930743E-003
 Lowest  eigenvalues of input Hessian
    0.000000    0.000000    0.000000    0.000000    0.000000    0.000000
    0.010000    0.010028    0.010030    0.010111    0.010155    0.010386
    0.010410    0.010465    0.010606    0.010714    0.010807    0.010840
 Highest eigenvalues
    2.082479    2.083381    2.228401    2.228570    2.248387    2.248793


........................................................................
.............................. CYCLE   21 ..............................
........................................................................
------------------------------------------------------------
  cycle        total energy    energy error   density error
------------------------------------------------------------
      1     -209.2759980984  -2.1242046E+02   7.1698481E-04
      2     -209.2759989375  -8.3908932E-07   4.2494188E-04
      3     -209.2759921817   6.7558229E-06   1.3145630E-04
      4     -209.2759995999  -7.4182506E-06   1.9795183E-05
      5     -209.2759997279  -1.2800825E-07   9.5532314E-06
------------------------------------------------------------

 total:                                   0.671 sec
 * total energy  :  -209.2759997 Eh     change       -0.5038011E-03 Eh
   gradient norm :     0.0056171 Eh/α   predicted     0.0000000E+00 (-100.00%)
   displ. norm   :     0.1056136 α      lambda       -0.1629496E-03
   maximum displ.:     0.0818138 α      in ANC's #2, #24, #3, ...

........................................................................
.............................. CYCLE   22 ..............................
........................................................................
------------------------------------------------------------
  cycle        total energy    energy error   density error
------------------------------------------------------------
      1     -209.2761543015  -2.1242055E+02   2.6680167E-04
      2     -209.2761544515  -1.4999691E-07   1.5775909E-04
      3     -209.2761509183   3.5331911E-06   8.9069084E-05
      4     -209.2761548974  -3.9790979E-06   9.4655250E-06
      5     -209.2761549236  -2.6178697E-08   4.2279527E-06
------------------------------------------------------------

 total:                                   0.680 sec
 * total energy  :  -209.2761549 Eh     change       -0.1551957E-03 Eh
   gradient norm :     0.0037704 Eh/α   predicted    -0.8509468E-04 ( -45.17%)
   displ. norm   :     0.3035393 α      lambda       -0.4024670E-03
   maximum displ.:     0.2125895 α      in ANC's #2, #3, #24, ...

........................................................................
.............................. CYCLE   23 ..............................
........................................................................
------------------------------------------------------------
  cycle        total energy    energy error   density error
------------------------------------------------------------
      1     -209.2764845488  -2.1242066E+02   7.5247644E-04
      2     -209.2764855526  -1.0038219E-06   4.4239389E-04
      3     -209.2764795883   5.9643237E-06   1.2139720E-04
      4     -209.2764861383  -6.5500098E-06   2.3280250E-05
      5     -209.2764863207  -1.8244211E-07   1.1646757E-05
------------------------------------------------------------

 total:                                   0.588 sec
 * total energy  :  -209.2764863 Eh     change       -0.3313971E-03 Eh
   gradient norm :     0.0028650 Eh/α   predicted    -0.2197814E-03 ( -33.68%)
   displ. norm   :     0.3867046 α      lambda       -0.3607039E-03
   maximum displ.:     0.2722167 α      in ANC's #2, #3, #13, ...

........................................................................
.............................. CYCLE   24 ..............................
........................................................................
------------------------------------------------------------
  cycle        total energy    energy error   density error
------------------------------------------------------------
      1     -209.2767814987  -2.1242030E+02   8.8354996E-04
      2     -209.2767828603  -1.3616647E-06   5.1857394E-04
      3     -209.2767781730   4.6873195E-06   1.2710184E-04
      4     -209.2767835912  -5.4182082E-06   2.0688139E-05
      5     -209.2767836745  -8.3314461E-08   1.3304084E-05
------------------------------------------------------------

 total:                                   0.631 sec
 * total energy  :  -209.2767837 Eh     change       -0.2973538E-03 Eh
   gradient norm :     0.0052985 Eh/α   predicted    -0.2073577E-03 ( -30.27%)
   displ. norm   :     0.3533548 α      lambda       -0.2771291E-03
   maximum displ.:     0.2504060 α      in ANC's #2, #3, #13, ...

........................................................................
.............................. CYCLE   25 ..............................
........................................................................
------------------------------------------------------------
  cycle        total energy    energy error   density error
------------------------------------------------------------
      1     -209.2770321762  -2.1242016E+02   7.3459704E-04
      2     -209.2770331306  -9.5445122E-07   4.2987442E-04
      3     -209.2770308707   2.2599202E-06   1.0086841E-04
      4     -209.2770336123  -2.7416246E-06   1.3949982E-05
      5     -209.2770336245  -1.2123479E-08   9.3048891E-06
------------------------------------------------------------

 total:                                   0.633 sec
 * total energy  :  -209.2770336 Eh     change       -0.2499499E-03 Eh
   gradient norm :     0.0060438 Eh/α   predicted    -0.1558751E-03 ( -37.64%)
   displ. norm   :     0.3491198 α      lambda       -0.2939017E-03
   maximum displ.:     0.2459089 α      in ANC's #2, #3, #13, ...

........................................................................
.............................. CYCLE   26 ..............................
........................................................................
------------------------------------------------------------
  cycle        total energy    energy error   density error
------------------------------------------------------------
      1     -209.2773054651  -2.1242046E+02   6.6317133E-04
      2     -209.2773063357  -8.7057370E-07   3.8859483E-04
      3     -209.2773004692   5.8665000E-06   1.2485262E-04
      4     -209.2773069426  -6.4734340E-06   2.0732312E-05
      5     -209.2773070961  -1.5350568E-07   9.5374445E-06
------------------------------------------------------------

 total:                                   0.597 sec
 * total energy  :  -209.2773071 Eh     change       -0.2734717E-03 Eh
   gradient norm :     0.0052661 Eh/α   predicted    -0.1648623E-03 ( -39.72%)
   displ. norm   :     0.4082861 α      lambda       -0.3570597E-03
   maximum displ.:     0.2870769 α      in ANC's #2, #3, #13, ...

........................................................................
.............................. CYCLE   27 ..............................
........................................................................
------------------------------------------------------------
  cycle        total energy    energy error   density error
------------------------------------------------------------
      1     -209.2776319824  -2.1242080E+02   7.1748787E-04
      2     -209.2776333800  -1.3976558E-06   4.1912760E-04
      3     -209.2776277250   5.6550475E-06   1.4030989E-04
      4     -209.2776341876  -6.4625770E-06   1.8850255E-05
      5     -209.2776342834  -9.5885895E-08   1.0796176E-05
------------------------------------------------------------

 total:                                   0.596 sec
 * total energy  :  -209.2776343 Eh     change       -0.3271873E-03 Eh
   gradient norm :     0.0040583 Eh/α   predicted    -0.2082913E-03 ( -36.34%)
   displ. norm   :     0.4618896 α      lambda       -0.3764302E-03
   maximum displ.:     0.3265092 α      in ANC's #2, #3, #13, ...

........................................................................
.............................. CYCLE   28 ..............................
........................................................................
------------------------------------------------------------
  cycle        total energy    energy error   density error
------------------------------------------------------------
      1     -209.2779744368  -2.1242095E+02   7.5255175E-04
      2     -209.2779759777  -1.5408566E-06   4.4281985E-04
      3     -209.2779665584   9.4192992E-06   1.5568146E-04
      4     -209.2779769540  -1.0395579E-05   2.5639463E-05
      5     -209.2779771834  -2.2939727E-07   1.1976388E-05
------------------------------------------------------------

 total:                                   0.596 sec
 * total energy  :  -209.2779772 Eh     change       -0.3428999E-03 Eh
   gradient norm :     0.0038550 Eh/α   predicted    -0.2283777E-03 ( -33.40%)
   displ. norm   :     0.4683178 α      lambda       -0.3507352E-03
   maximum displ.:     0.3330298 α      in ANC's #2, #3, #13, ...

........................................................................
.............................. CYCLE   29 ..............................
........................................................................
------------------------------------------------------------
  cycle        total energy    energy error   density error
------------------------------------------------------------
      1     -209.2783000427  -2.1242111E+02   7.1159812E-04
      2     -209.2783014991  -1.4563550E-06   4.1723065E-04
      3     -209.2782953639   6.1352467E-06   1.3372139E-04
      4     -209.2783022653  -6.9014716E-06   2.0267814E-05
      5     -209.2783023755  -1.1017667E-07   1.1839586E-05
------------------------------------------------------------

 total:                                   0.574 sec
 * total energy  :  -209.2783024 Eh     change       -0.3251921E-03 Eh
   gradient norm :     0.0042326 Eh/α   predicted    -0.2138443E-03 ( -34.24%)
   displ. norm   :     0.4570715 α      lambda       -0.3338626E-03
   maximum displ.:     0.3258605 α      in ANC's #2, #3, #1, ...

........................................................................
.............................. CYCLE   30 ..............................
........................................................................
------------------------------------------------------------
  cycle        total energy    energy error   density error
------------------------------------------------------------
      1     -209.2786158253  -2.1242143E+02   6.4942859E-04
      2     -209.2786168378  -1.0124818E-06   3.8409883E-04
      3     -209.2786011884   1.5649459E-05   1.8487078E-04
      4     -209.2786185362  -1.7347855E-05   2.0699565E-05
      5     -209.2786186559  -1.1968831E-07   1.0432735E-05
------------------------------------------------------------

 total:                                   0.701 sec
 * total energy  :  -209.2786187 Eh     change       -0.3162804E-03 Eh
   gradient norm :     0.0042259 Eh/α   predicted    -0.2018058E-03 ( -36.19%)
   displ. norm   :     0.4671547 α      lambda       -0.3469362E-03
   maximum displ.:     0.3327136 α      in ANC's #2, #3, #1, ...

........................................................................
.............................. CYCLE   31 ..............................
........................................................................
------------------------------------------------------------
  cycle        total energy    energy error   density error
------------------------------------------------------------
      1     -209.2789479515  -2.1242179E+02   6.2495007E-04
      2     -209.2789491221  -1.1706641E-06   3.6795094E-04
      3     -209.2789431689   5.9532151E-06   1.2383423E-04
      4     -209.2789499083  -6.7394044E-06   1.5961203E-05
      5     -209.2789499648  -5.6446680E-08   9.4169784E-06
------------------------------------------------------------

 total:                                   0.720 sec
 * total energy  :  -209.2789500 Eh     change       -0.3313089E-03 Eh
   gradient norm :     0.0037254 Eh/α   predicted    -0.2113248E-03 ( -36.22%)
   displ. norm   :     0.5029059 α      lambda       -0.3780275E-03
   maximum displ.:     0.3573494 α      in ANC's #2, #3, #1, ...

........................................................................
.............................. CYCLE   32 ..............................
........................................................................
------------------------------------------------------------
  cycle        total energy    energy error   density error
------------------------------------------------------------
      1     -209.2793098890  -2.1242202E+02   6.3489702E-04
      2     -209.2793109003  -1.0113186E-06   3.7331832E-04
      3     -209.2793073047   3.5955653E-06   9.7285208E-05
      4     -209.2793112960  -3.9912381E-06   1.9072668E-05
      5     -209.2793114143  -1.1832924E-07   9.9284287E-06
------------------------------------------------------------

 total:                                   0.690 sec
 * total energy  :  -209.2793114 Eh     change       -0.3614495E-03 Eh
   gradient norm :     0.0031661 Eh/α   predicted    -0.2368186E-03 ( -34.48%)
   displ. norm   :     0.5447207 α      lambda       -0.4058104E-03
   maximum displ.:     0.3862251 α      in ANC's #2, #3, #1, ...

........................................................................
.............................. CYCLE   33 ..............................
........................................................................
------------------------------------------------------------
  cycle        total energy    energy error   density error
------------------------------------------------------------
      1     -209.2796983787  -2.1242204E+02   6.4746443E-04
      2     -209.2796992979  -9.1927208E-07   3.8146679E-04
      3     -209.2796955163   3.7816504E-06   1.0219133E-04
      4     -209.2796997774  -4.2610961E-06   1.6190141E-05
      5     -209.2796998483  -7.0957924E-08   8.9642525E-06
------------------------------------------------------------

 total:                                   0.662 sec
 * total energy  :  -209.2796998 Eh     change       -0.3884340E-03 Eh
   gradient norm :     0.0030865 Eh/α   predicted    -0.2631137E-03 ( -32.26%)
   displ. norm   :     0.5780831 α      lambda       -0.4227914E-03
   maximum displ.:     0.4089490 α      in ANC's #2, #3, #1, ...

........................................................................
.............................. CYCLE   34 ..............................
........................................................................
------------------------------------------------------------
  cycle        total energy    energy error   density error
------------------------------------------------------------
      1     -209.2801042333  -2.1242194E+02   6.4859532E-04
      2     -209.2801049456  -7.1233009E-07   3.8162426E-04
      3     -209.2801001287   4.8168524E-06   1.0609304E-04
      4     -209.2801053975  -5.2687554E-06   1.9501986E-05
      5     -209.2801055304  -1.3292382E-07   8.6998085E-06
------------------------------------------------------------

 total:                                   0.604 sec
 * total energy  :  -209.2801055 Eh     change       -0.4056821E-03 Eh
   gradient norm :     0.0034197 Eh/α   predicted    -0.2820403E-03 ( -30.48%)
   displ. norm   :     0.6038713 α      lambda       -0.4348977E-03
   maximum displ.:     0.4261903 α      in ANC's #2, #3, #1, ...

........................................................................
.............................. CYCLE   35 ..............................
........................................................................
------------------------------------------------------------
  cycle        total energy    energy error   density error
------------------------------------------------------------
      1     -209.2805229042  -2.1242183E+02   6.4403866E-04
      2     -209.2805235252  -6.2093036E-07   3.7999197E-04
      3     -209.2805201836   3.3415606E-06   9.3177731E-05
      4     -209.2805239130  -3.7294343E-06   1.5738465E-05
      5     -209.2805239800  -6.6929374E-08   8.3188392E-06
------------------------------------------------------------

 total:                                   0.593 sec
 * total energy  :  -209.2805240 Eh     change       -0.4184495E-03 Eh
   gradient norm :     0.0036417 Eh/α   predicted    -0.2967443E-03 ( -29.08%)
   displ. norm   :     0.6301718 α      lambda       -0.4492007E-03
   maximum displ.:     0.4438406 α      in ANC's #2, #3, #1, ...

........................................................................
.............................. CYCLE   36 ..............................
........................................................................
------------------------------------------------------------
  cycle        total energy    energy error   density error
------------------------------------------------------------
      1     -209.2809556516  -2.1242181E+02   6.4750285E-04
      2     -209.2809562028  -5.5126938E-07   3.8127105E-04
      3     -209.2809540916   2.1111962E-06   7.2547294E-05
      4     -209.2809564559  -2.3642225E-06   1.6117750E-05
      5     -209.2809565252  -6.9327655E-08   8.3819841E-06
------------------------------------------------------------

 total:                                   0.715 sec
 * total energy  :  -209.2809565 Eh     change       -0.4325452E-03 Eh
   gradient norm :     0.0034745 Eh/α   predicted    -0.3137936E-03 ( -27.45%)
   displ. norm   :     0.6596655 α      lambda       -0.4645681E-03
   maximum displ.:     0.4640918 α      in ANC's #2, #3, #1, ...

........................................................................
.............................. CYCLE   37 ..............................
........................................................................
------------------------------------------------------------
  cycle        total energy    energy error   density error
------------------------------------------------------------
      1     -209.2814033145  -2.1242192E+02   6.6031192E-04
      2     -209.2814038427  -5.2817643E-07   3.8975245E-04
      3     -209.2813975979   6.2447520E-06   1.1946604E-04
      4     -209.2814044131  -6.8151383E-06   1.7381953E-05
      5     -209.2814045015  -8.8368921E-08   8.8098355E-06
------------------------------------------------------------

 total:                                   0.739 sec
 * total energy  :  -209.2814045 Eh     change       -0.4479763E-03 Eh
   gradient norm :     0.0029460 Eh/α   predicted    -0.3333696E-03 ( -25.58%)
   displ. norm   :     0.6888903 α      lambda       -0.4752791E-03
   maximum displ.:     0.4847937 α      in ANC's #2, #3, #1, ...

........................................................................
.............................. CYCLE   38 ..............................
........................................................................
------------------------------------------------------------
  cycle        total energy    energy error   density error
------------------------------------------------------------
      1     -209.2818610119  -2.1242224E+02   6.7484384E-04
      2     -209.2818616777  -6.6584343E-07   3.9794964E-04
      3     -209.2818595872   2.0905537E-06   7.6022943E-05
      4     -209.2818620055  -2.4183764E-06   1.4384948E-05
      5     -209.2818620363  -3.0759651E-08   8.2047889E-06
------------------------------------------------------------

 total:                                   0.648 sec
 * total energy  :  -209.2818620 Eh     change       -0.4575348E-03 Eh
   gradient norm :     0.0022661 Eh/α   predicted    -0.3504177E-03 ( -23.41%)
   displ. norm   :     0.7108416 α      lambda       -0.4752019E-03
   maximum displ.:     0.5010388 α      in ANC's #2, #3, #1, ...

........................................................................
.............................. CYCLE   39 ..............................
........................................................................
------------------------------------------------------------
  cycle        total energy    energy error   density error
------------------------------------------------------------
      1     -209.2823192714  -2.1242275E+02   6.8471104E-04
      2     -209.2823199063  -6.3489884E-07   4.0348172E-04
      3     -209.2823173296   2.5767406E-06   8.3940632E-05
      4     -209.2823201852  -2.8556356E-06   1.7189255E-05
      5     -209.2823202679  -8.2738751E-08   9.4261615E-06
------------------------------------------------------------

 total:                                   0.655 sec
 * total energy  :  -209.2823203 Eh     change       -0.4582316E-03 Eh
   gradient norm :     0.0018809 Eh/α   predicted    -0.3576604E-03 ( -21.95%)
   displ. norm   :     1.0846162 α      lambda       -0.4647810E-03
   maximum displ.:     0.7663952 α      in ANC's #2, #3, #1, ...

........................................................................
.............................. CYCLE   40 ..............................
........................................................................
------------------------------------------------------------
  cycle        total energy    energy error   density error
------------------------------------------------------------
      1     -209.2829732021  -2.1242332E+02   1.0280100E-03
      2     -209.2829747361  -1.5339727E-06   6.0678755E-04
      3     -209.2829689181   5.8180267E-06   1.2166852E-04
      4     -209.2829755461  -6.6279771E-06   2.2195699E-05
      5     -209.2829756325  -8.6482657E-08   1.2162964E-05
------------------------------------------------------------

 total:                                   0.636 sec
 * total energy  :  -209.2829756 Eh     change       -0.6553646E-03 Eh
   gradient norm :     0.0023909 Eh/α   predicted    -0.3538946E-03 ( -46.00%)
   displ. norm   :     0.7036731 α      lambda       -0.4213913E-03
   maximum displ.:     0.4992941 α      in ANC's #2, #3, #1, ...

........................................................................
.............................. CYCLE   41 ..............................
........................................................................
------------------------------------------------------------
  cycle        total energy    energy error   density error
------------------------------------------------------------
      1     -209.2833815807  -2.1242417E+02   6.5851489E-04
      2     -209.2833822834  -7.0262672E-07   3.8868812E-04
      3     -209.2833790934   3.1899745E-06   9.1845273E-05
      4     -209.2833826327  -3.5392786E-06   1.6880511E-05
      5     -209.2833827209  -8.8277773E-08   8.6948279E-06
------------------------------------------------------------

 total:                                   0.644 sec
 * total energy  :  -209.2833827 Eh     change       -0.4070884E-03 Eh
   gradient norm :     0.0026295 Eh/α   predicted    -0.3150249E-03 ( -22.62%)
   displ. norm   :     0.7238279 α      lambda       -0.4252078E-03
   maximum displ.:     0.5152320 α      in ANC's #2, #3, #1, ...

........................................................................
.............................. CYCLE   42 ..............................
........................................................................
------------------------------------------------------------
  cycle        total energy    energy error   density error
------------------------------------------------------------
      1     -209.2837922748  -2.1242514E+02   6.7989912E-04
      2     -209.2837930280  -7.5323956E-07   4.0178577E-04
      3     -209.2837870332   5.9947776E-06   1.1402986E-04
      4     -209.2837936395  -6.6062418E-06   1.7729750E-05
      5     -209.2837937283  -8.8837226E-08   8.7584225E-06
------------------------------------------------------------

 total:                                   0.677 sec
 * total energy  :  -209.2837937 Eh     change       -0.4110074E-03 Eh
   gradient norm :     0.0026707 Eh/α   predicted    -0.3239950E-03 ( -21.17%)
   displ. norm   :     0.7407823 α      lambda       -0.4286064E-03
   maximum displ.:     0.5294599 α      in ANC's #2, #3, #1, ...
 * RMSD in coord.:     0.9519175 α      energy gain  -0.8297801E-02 Eh

generating ANC from exact Hessian ...
Using Lindh-Hessian (1995)
 Shifting diagonal of input Hessian by    9.9644772833891084E-003
 Lowest  eigenvalues of input Hessian
    0.000000    0.000000    0.000000    0.000000    0.000000    0.000000
    0.010000    0.010028    0.010030    0.010125    0.010165    0.010398
    0.010409    0.010473    0.010578    0.010723    0.010766    0.010806
 Highest eigenvalues
    2.079771    2.080451    2.224671    2.226600    2.243309    2.246468


........................................................................
.............................. CYCLE   43 ..............................
........................................................................
------------------------------------------------------------
  cycle        total energy    energy error   density error
------------------------------------------------------------
      1     -209.2842080725  -2.1242600E+02   7.0571737E-04
      2     -209.2842089908  -9.1830216E-07   4.1701938E-04
      3     -209.2842039096   5.0812256E-06   1.1078826E-04
      4     -209.2842096005  -5.6908758E-06   1.6379445E-05
      5     -209.2842096623  -6.1828302E-08   8.8060194E-06
------------------------------------------------------------

 total:                                   0.711 sec
 * total energy  :  -209.2842097 Eh     change       -0.4159340E-03 Eh
   gradient norm :     0.0024244 Eh/α   predicted     0.0000000E+00 (-100.00%)
   displ. norm   :     0.0681312 α      lambda       -0.5693904E-04
   maximum displ.:     0.0550818 α      in ANC's #3, #1, #8, ...

........................................................................
.............................. CYCLE   44 ..............................
........................................................................
------------------------------------------------------------
  cycle        total energy    energy error   density error
------------------------------------------------------------
      1     -209.2842645071  -2.1242725E+02   1.2785808E-04
      2     -209.2842645843  -7.7190919E-08   7.7312133E-05
      3     -209.2842635546   1.0297468E-06   5.5469769E-05
      4     -209.2842648723  -1.3176788E-06   6.6632148E-06
      5     -209.2842648879  -1.5677841E-08   2.4310402E-06
------------------------------------------------------------

 total:                                   0.674 sec
 * total energy  :  -209.2842649 Eh     change       -0.5522565E-04 Eh
   gradient norm :     0.0016557 Eh/α   predicted    -0.2912534E-04 ( -47.26%)
   displ. norm   :     0.2834860 α      lambda       -0.1452968E-03
   maximum displ.:     0.1981362 α      in ANC's #3, #1, #8, ...

........................................................................
.............................. CYCLE   45 ..............................
........................................................................
------------------------------------------------------------
  cycle        total energy    energy error   density error
------------------------------------------------------------
      1     -209.2844511490  -2.1242940E+02   5.2480975E-04
      2     -209.2844520048  -8.5585745E-07   3.0916823E-04
      3     -209.2844480779   3.9268992E-06   9.5666796E-05
      4     -209.2844523164  -4.2384320E-06   1.9420288E-05
      5     -209.2844524616  -1.4523732E-07   8.7332606E-06
------------------------------------------------------------

 total:                                   0.588 sec
 * total energy  :  -209.2844525 Eh     change       -0.1875737E-03 Eh
   gradient norm :     0.0020413 Eh/α   predicted    -0.7524507E-04 ( -59.89%)
   displ. norm   :     0.2850762 α      lambda       -0.1728727E-03
   maximum displ.:     0.1967897 α      in ANC's #3, #1, #8, ...

........................................................................
.............................. CYCLE   46 ..............................
........................................................................
------------------------------------------------------------
  cycle        total energy    energy error   density error
------------------------------------------------------------
      1     -209.2846072110  -2.1242902E+02   4.7461560E-04
      2     -209.2846079144  -7.0341116E-07   2.7999980E-04
      3     -209.2846068386   1.0757749E-06   5.8931071E-05
      4     -209.2846080560  -1.2174115E-06   1.3867656E-05
      5     -209.2846081103  -5.4220749E-08   7.0183053E-06
------------------------------------------------------------

 total:                                   0.750 sec
 * total energy  :  -209.2846081 Eh     change       -0.1556487E-03 Eh
   gradient norm :     0.0027340 Eh/α   predicted    -0.9346213E-04 ( -39.95%)
   displ. norm   :     0.3530729 α      lambda       -0.1860998E-03
   maximum displ.:     0.2428949 α      in ANC's #3, #1, #8, ...

........................................................................
.............................. CYCLE   47 ..............................
........................................................................
------------------------------------------------------------
  cycle        total energy    energy error   density error
------------------------------------------------------------
      1     -209.2847728398  -2.1242789E+02   5.4653004E-04
      2     -209.2847736297  -7.8991428E-07   3.2307519E-04
      3     -209.2847693124   4.3172858E-06   9.5954280E-05
      4     -209.2847739618  -4.6494317E-06   1.9203160E-05
      5     -209.2847741022  -1.4033492E-07   8.2847945E-06
------------------------------------------------------------

 total:                                   0.679 sec
 * total energy  :  -209.2847741 Eh     change       -0.1659919E-03 Eh
   gradient norm :     0.0032604 Eh/α   predicted    -0.1046502E-03 ( -36.95%)
   displ. norm   :     0.3456674 α      lambda       -0.1657849E-03
   maximum displ.:     0.2398970 α      in ANC's #3, #1, #8, ...

........................................................................
.............................. CYCLE   48 ..............................
........................................................................
------------------------------------------------------------
  cycle        total energy    energy error   density error
------------------------------------------------------------
      1     -209.2849250528  -2.1242692E+02   4.9533350E-04
      2     -209.2849258043  -7.5146383E-07   2.9252833E-04
      3     -209.2849227441   3.0602193E-06   9.2839430E-05
      4     -209.2849261469  -3.4028294E-06   1.6102526E-05
      5     -209.2849262258  -7.8922483E-08   8.0445281E-06
------------------------------------------------------------

 total:                                   0.671 sec
 * total energy  :  -209.2849262 Eh     change       -0.1521236E-03 Eh
   gradient norm :     0.0033362 Eh/α   predicted    -0.9280565E-04 ( -38.99%)
   displ. norm   :     0.3273640 α      lambda       -0.1584321E-03
   maximum displ.:     0.2287410 α      in ANC's #3, #1, #8, ...

........................................................................
.............................. CYCLE   49 ..............................
........................................................................
------------------------------------------------------------
  cycle        total energy    energy error   density error
------------------------------------------------------------
      1     -209.2850751362  -2.1242651E+02   4.3928325E-04
      2     -209.2850756907  -5.5455203E-07   2.5870381E-04
      3     -209.2850721349   3.5557591E-06   9.8314135E-05
      4     -209.2850760737  -3.9387776E-06   1.5702500E-05
      5     -209.2850761673  -9.3536954E-08   6.9067701E-06
------------------------------------------------------------

 total:                                   0.654 sec
 * total energy  :  -209.2850762 Eh     change       -0.1499415E-03 Eh
   gradient norm :     0.0029686 Eh/α   predicted    -0.8770856E-04 ( -41.50%)
   displ. norm   :     0.3499756 α      lambda       -0.1774855E-03
   maximum displ.:     0.2446104 α      in ANC's #3, #1, #8, ...

........................................................................
.............................. CYCLE   50 ..............................
........................................................................
------------------------------------------------------------
  cycle        total energy    energy error   density error
------------------------------------------------------------
      1     -209.2852432417  -2.1242638E+02   4.5191959E-04
      2     -209.2852437743  -5.3257662E-07   2.6602759E-04
      3     -209.2852384356   5.3386750E-06   1.2258300E-04
      4     -209.2852444182  -5.9826292E-06   1.6700002E-05
      5     -209.2852445227  -1.0446968E-07   6.8705788E-06
------------------------------------------------------------

 total:                                   0.813 sec
 * total energy  :  -209.2852445 Eh     change       -0.1683554E-03 Eh
   gradient norm :     0.0024059 Eh/α   predicted    -0.9961268E-04 ( -40.83%)
   displ. norm   :     0.4111437 α      lambda       -0.2121135E-03
   maximum displ.:     0.2863992 α      in ANC's #3, #1, #8, ...

........................................................................
.............................. CYCLE   51 ..............................
........................................................................
------------------------------------------------------------
  cycle        total energy    energy error   density error
------------------------------------------------------------
      1     -209.2854446486  -2.1242630E+02   5.1767144E-04
      2     -209.2854453086  -6.6004213E-07   3.0407715E-04
      3     -209.2854417459   3.5626946E-06   1.0690795E-04
      4     -209.2854457919  -4.0459861E-06   1.4184140E-05
      5     -209.2854458485  -5.6563493E-08   7.7316745E-06
------------------------------------------------------------

 total:                                   0.667 sec
 * total energy  :  -209.2854458 Eh     change       -0.2013257E-03 Eh
   gradient norm :     0.0019219 Eh/α   predicted    -0.1239862E-03 ( -38.42%)
   displ. norm   :     0.7153045 α      lambda       -0.2391719E-03
   maximum displ.:     0.4972413 α      in ANC's #3, #1, #8, ...

........................................................................
.............................. CYCLE   52 ..............................
........................................................................
------------------------------------------------------------
  cycle        total energy    energy error   density error
------------------------------------------------------------
      1     -209.2857681451  -2.1242592E+02   8.7894512E-04
      2     -209.2857697318  -1.5866508E-06   5.1672737E-04
      3     -209.2857623975   7.3342659E-06   1.5290868E-04
      4     -209.2857705992  -8.2016729E-06   2.4675453E-05
      5     -209.2857707709  -1.7174958E-07   1.3825536E-05
------------------------------------------------------------

 total:                                   0.632 sec
 * total energy  :  -209.2857708 Eh     change       -0.3249225E-03 Eh
   gradient norm :     0.0024943 Eh/α   predicted    -0.1467853E-03 ( -54.82%)
   displ. norm   :     0.4698664 α      lambda       -0.2132158E-03
   maximum displ.:     0.3277809 α      in ANC's #3, #1, #8, ...

........................................................................
.............................. CYCLE   53 ..............................
........................................................................
------------------------------------------------------------
  cycle        total energy    energy error   density error
------------------------------------------------------------
      1     -209.2859713786  -2.1242617E+02   5.5230824E-04
      2     -209.2859719511  -5.7248437E-07   3.2525221E-04
      3     -209.2859669342   5.0168535E-06   1.1280532E-04
      4     -209.2859724281  -5.4938544E-06   1.8110470E-05
      5     -209.2859725433  -1.1521016E-07   8.0910737E-06
------------------------------------------------------------

 total:                                   0.855 sec
 * total energy  :  -209.2859725 Eh     change       -0.2017724E-03 Eh
   gradient norm :     0.0030718 Eh/α   predicted    -0.1301492E-03 ( -35.50%)
   displ. norm   :     0.4973229 α      lambda       -0.2259122E-03
   maximum displ.:     0.3467703 α      in ANC's #3, #1, #8, ...

........................................................................
.............................. CYCLE   54 ..............................
........................................................................
------------------------------------------------------------
  cycle        total energy    energy error   density error
------------------------------------------------------------
      1     -209.2861872085  -2.1242686E+02   5.7049355E-04
      2     -209.2861877444  -5.3597591E-07   3.3707042E-04
      3     -209.2861842365   3.5079665E-06   9.3408208E-05
      4     -209.2861880990  -3.8625438E-06   1.4959932E-05
      5     -209.2861881617  -6.2677088E-08   7.8024220E-06
------------------------------------------------------------

 total:                                   0.784 sec
 * total energy  :  -209.2861882 Eh     change       -0.2156184E-03 Eh
   gradient norm :     0.0034664 Eh/α   predicted    -0.1408968E-03 ( -34.65%)
   displ. norm   :     0.5407763 α      lambda       -0.2485968E-03
   maximum displ.:     0.3773227 α      in ANC's #3, #1, #8, ...

........................................................................
.............................. CYCLE   55 ..............................
........................................................................
------------------------------------------------------------
  cycle        total energy    energy error   density error
------------------------------------------------------------
      1     -209.2864250226  -2.1242765E+02   6.1072039E-04
      2     -209.2864255970  -5.7440059E-07   3.6072127E-04
      3     -209.2864217176   3.8793563E-06   9.2668558E-05
      4     -209.2864259741  -4.2564307E-06   1.5417735E-05
      5     -209.2864260419  -6.7867148E-08   7.6716807E-06
------------------------------------------------------------

 total:                                   0.734 sec
 * total energy  :  -209.2864260 Eh     change       -0.2378803E-03 Eh
   gradient norm :     0.0035568 Eh/α   predicted    -0.1606506E-03 ( -32.47%)
   displ. norm   :     0.5930363 α      lambda       -0.2768610E-03
   maximum displ.:     0.4148353 α      in ANC's #3, #1, #2, ...

........................................................................
.............................. CYCLE   56 ..............................
........................................................................
------------------------------------------------------------
  cycle        total energy    energy error   density error
------------------------------------------------------------
      1     -209.2866904279  -2.1242839E+02   6.6340736E-04
      2     -209.2866910897  -6.6181923E-07   3.9266690E-04
      3     -209.2866868143   4.2754282E-06   9.6381841E-05
      4     -209.2866915335  -4.7191993E-06   1.5603601E-05
      5     -209.2866915955  -6.2021286E-08   7.9297701E-06
------------------------------------------------------------

 total:                                   0.647 sec
 * total energy  :  -209.2866916 Eh     change       -0.2655536E-03 Eh
   gradient norm :     0.0033112 Eh/α   predicted    -0.1871173E-03 ( -29.54%)
   displ. norm   :     0.6429693 α      lambda       -0.3025851E-03
   maximum displ.:     0.4516750 α      in ANC's #3, #1, #2, ...

........................................................................
.............................. CYCLE   57 ..............................
........................................................................
------------------------------------------------------------
  cycle        total energy    energy error   density error
------------------------------------------------------------
      1     -209.2869789514  -2.1242898E+02   7.1314304E-04
      2     -209.2869797346  -7.8323117E-07   4.2155996E-04
      3     -209.2869748382   4.8964617E-06   1.0422283E-04
      4     -209.2869802408  -5.4026737E-06   1.7264343E-05
      5     -209.2869803195  -7.8614931E-08   8.7774620E-06
------------------------------------------------------------

 total:                                   0.599 sec
 * total energy  :  -209.2869803 Eh     change       -0.2887240E-03 Eh
   gradient norm :     0.0027101 Eh/α   predicted    -0.2138419E-03 ( -25.94%)
   displ. norm   :     0.6856973 α      lambda       -0.3182085E-03
   maximum displ.:     0.4842091 α      in ANC's #3, #1, #2, ...

........................................................................
.............................. CYCLE   58 ..............................
........................................................................
------------------------------------------------------------
  cycle        total energy    energy error   density error
------------------------------------------------------------
      1     -209.2872806740  -2.1242930E+02   7.5285721E-04
      2     -209.2872815778  -9.0377782E-07   4.4557791E-04
      3     -209.2872757323   5.8454867E-06   1.1450987E-04
      4     -209.2872821577  -6.4254335E-06   1.9251967E-05
      5     -209.2872822622  -1.0447053E-07   9.7418420E-06
------------------------------------------------------------

 total:                                   0.811 sec
 * total energy  :  -209.2872823 Eh     change       -0.3019427E-03 Eh
   gradient norm :     0.0019082 Eh/α   predicted    -0.2339122E-03 ( -22.53%)
   displ. norm   :     1.0634537 α      lambda       -0.3155969E-03
   maximum displ.:     0.7548875 α      in ANC's #3, #1, #2, ...

........................................................................
.............................. CYCLE   59 ..............................
........................................................................
------------------------------------------------------------
  cycle        total energy    energy error   density error
------------------------------------------------------------
      1     -209.2877096609  -2.1242889E+02   1.1515385E-03
      2     -209.2877118200  -2.1591330E-06   6.8042979E-04
      3     -209.2877030154   8.8046750E-06   1.4561310E-04
      4     -209.2877128282  -9.8128426E-06   2.7219690E-05
      5     -209.2877130056  -1.7738924E-07   1.4477784E-05
------------------------------------------------------------

 total:                                   0.662 sec
 * total energy  :  -209.2877130 Eh     change       -0.4307434E-03 Eh
   gradient norm :     0.0017084 Eh/α   predicted    -0.2371142E-03 ( -44.95%)
   displ. norm   :     1.0139847 α      lambda       -0.2688566E-03
   maximum displ.:     0.7235224 α      in ANC's #3, #1, #2, ...

........................................................................
.............................. CYCLE   60 ..............................
........................................................................
------------------------------------------------------------
  cycle        total energy    energy error   density error
------------------------------------------------------------
      1     -209.2880781913  -2.1242876E+02   1.0801346E-03
      2     -209.2880797915  -1.6002141E-06   6.3829899E-04
      3     -209.2880682380   1.1553523E-05   1.6191451E-04
      4     -209.2880808022  -1.2564156E-05   2.8446386E-05
      5     -209.2880810562  -2.5400146E-07   1.3696170E-05
------------------------------------------------------------

 total:                                   0.694 sec
 * total energy  :  -209.2880811 Eh     change       -0.3680506E-03 Eh
   gradient norm :     0.0024445 Eh/α   predicted    -0.1958634E-03 ( -46.78%)
   displ. norm   :     0.6586474 α      lambda       -0.2398474E-03
   maximum displ.:     0.4712847 α      in ANC's #3, #1, #2, ...

........................................................................
.............................. CYCLE   61 ..............................
........................................................................
------------------------------------------------------------
  cycle        total energy    energy error   density error
------------------------------------------------------------
      1     -209.2883070399  -2.1242876E+02   6.9834384E-04
      2     -209.2883077253  -6.8536707E-07   4.1247378E-04
      3     -209.2883030347   4.6905963E-06   1.0166307E-04
      4     -209.2883081836  -5.1489122E-06   1.7711423E-05
      5     -209.2883082773  -9.3758672E-08   8.6220095E-06
------------------------------------------------------------

 total:                                   0.618 sec
 * total energy  :  -209.2883083 Eh     change       -0.2272212E-03 Eh
   gradient norm :     0.0027952 Eh/α   predicted    -0.1719491E-03 ( -24.33%)
   displ. norm   :     0.7050697 α      lambda       -0.2592010E-03
   maximum displ.:     0.5060423 α      in ANC's #3, #1, #2, ...

........................................................................
.............................. CYCLE   62 ..............................
........................................................................
------------------------------------------------------------
  cycle        total energy    energy error   density error
------------------------------------------------------------
      1     -209.2885522177  -2.1242964E+02   7.6075700E-04
      2     -209.2885527874  -5.6972888E-07   4.4866502E-04
      3     -209.2885469252   5.8622190E-06   1.1501931E-04
      4     -209.2885533319  -6.4067417E-06   1.6933115E-05
      5     -209.2885534113  -7.9373706E-08   8.6911878E-06
------------------------------------------------------------

 total:                                   1.039 sec
 * total energy  :  -209.2885534 Eh     change       -0.2451339E-03 Eh
   gradient norm :     0.0027060 Eh/α   predicted    -0.1940294E-03 ( -20.85%)
   displ. norm   :     0.7681622 α      lambda       -0.2752445E-03
   maximum displ.:     0.5506850 α      in ANC's #3, #1, #2, ...

[...]
   J. Stückrath, T. Rose, and J. Unsleber
   
 * started run on 2025/03/17 at 15:04:39.225     
   ID    Z sym.   atoms
    1    6 C      1-21, 25-44, 47, 52-75, 142-162, 166-185, 188, 193-216
    2    8 O      22, 23, 45, 46, 48-51, 163, 164, 186, 187, 189-192
    3    5 B      24, 165
    4    1 H      76-141, 217-282

           -------------------------------------------------
          |                Calculation Setup                |
           -------------------------------------------------

          program call               : xtb opt_dimer.mol --dipro 0.3 --chrg -2 --uhf 4
          coordinate file            : opt_dimer.mol
          omp threads                :                     8


molecular fragmentation (1/2 indicates fragments):
111111111111111111111111111111111111111111111111111111111111111111111111
111111111111111111111111111111111111111111111111111111111111111111111222
222222222222222222222222222222222222222222222222222222222222222222222222
222222222222222222222222222222222222222222222222222222222222222222
# atoms in fragment 1/2:   141   141
 fragment masses (1/2) :      998.04      998.04
CMA distance (Bohr)    :  14.363
constraining FC (au)   :  0.0500
########################################################################
[WARNING] Please study the warnings concerning your input carefully
-1- prog_main: Charge in sdf/mol input was overwritten
########################################################################

           -------------------------------------------------
          |                 G F N 2 - x T B                 |
           -------------------------------------------------

        Reference                      10.1021/acs.jctc.8b01176
      * Hamiltonian:
        H0-scaling (s, p, d)           1.850000    2.230000    2.230000
        zeta-weighting                 0.500000
      * Dispersion:
        s8                             2.700000
        a1                             0.520000
        a2                             5.000000
        s9                             5.000000
      * Repulsion:
        kExp                           1.500000    1.000000
        rExp                           1.000000
      * Coulomb:
        alpha                          2.000000
        third order                    shell-resolved
        anisotropic                    true
        a3                             3.000000
        a5                             4.000000
        cn-shift                       1.200000
        cn-exp                         4.000000
        max-rad                        5.000000

q/qsh data taken from xtbrestart
CAMM data taken from xtbrestart
           -------------------------------------------------
          |                    D I P R O                    |
           -------------------------------------------------
Calculation for dimer 
--------------------- 
  
charge of dimer :  -2.
unpaired e- of dimer :  4
repulsion energy          6.2688494633203E+00 Eh
dispersion energy         3.7076096844549E-02 Eh
number of electrons       7.6400000000000E+02 e
integral cutoff           1.9311100799991E+01 bohr

------------------------------------------------------------
  cycle        total energy    energy error   density error
------------------------------------------------------------
      1     -416.8287816429  -4.2313471E+02   1.4959279E-01
      2     -418.3431146764  -1.5143330E+00   7.1675842E-02
      3     -418.2907351852   5.2379491E-02   3.8810097E-02
      4     -418.4331138286  -1.4237864E-01   1.9983117E-02
      5     -418.5707072195  -1.3759339E-01   7.0221689E-03
      6     -418.5824033640  -1.1696145E-02   3.0691535E-03
      7     -418.5838286077  -1.4252437E-03   1.3750722E-03
      8     -418.5841199232  -2.9131546E-04   5.5820440E-04
      9     -418.5841741741  -5.4250982E-05   3.1064258E-04
     10     -418.5842034507  -2.9276597E-05   1.2509740E-04
     11     -418.5842051006  -1.6498295E-06   4.9687580E-05
     12     -418.5842053962  -2.9564001E-07   2.6261226E-05
     13     -418.5842055291  -1.3292561E-07   1.2210545E-05
------------------------------------------------------------

electronic energy        -4.2489013108930E+02 Eh
total energy             -4.1858420552913E+02 Eh

 total:                                  50.142 sec
 - repulsion                              0.001 sec (  0%)
 - dispersion                             0.043 sec (  0%)
 - coulomb                                0.018 sec (  0%)
 - hamiltonian                            0.030 sec (  0%)
 - scc                                   50.050 sec ( 99%)

Found 2 fragments!
Fragment 1:  1-141
Fragment 2:  142-282

[Info] Fragment spin read from .UHFfrag
[Info] Fragment charge read from .CHRGfrag
Calculation for fragment 1
 ------------------------------
   
charge of fragment :  -1.
unpaired e- of fragment :  2
------------------------------------------------------------
  cycle        total energy    energy error   density error
------------------------------------------------------------
      1     -208.4157554911  -2.1155817E+02   1.4841030E-01
      2     -209.1826647044  -7.6690921E-01   7.0563586E-02
      3     -209.1664641974   1.6200507E-02   3.8027545E-02
      4     -209.2321061446  -6.5641947E-02   1.9213117E-02
      5     -209.2934116701  -6.1305525E-02   6.6994121E-03
      6     -209.2983375534  -4.9258833E-03   3.0006586E-03
      7     -209.2990078563  -6.7030283E-04   1.3241308E-03
      8     -209.2991491274  -1.4127119E-04   5.3971046E-04
      9     -209.2991730881  -2.3960607E-05   3.0093400E-04
     10     -209.2991866903  -1.3602214E-05   1.2366312E-04
     11     -209.2991875471  -8.5685249E-07   4.6808838E-05
     12     -209.2991876556  -1.0847737E-07   2.4865772E-05
     13     -209.2991877036  -4.7962175E-08   1.1840007E-05
------------------------------------------------------------

 total:                                  17.289 sec
Calculation for fragment 2
 ------------------------------
   
charge of fragment :  -1.
unpaired e- of fragment :  2
------------------------------------------------------------
  cycle        total energy    energy error   density error
------------------------------------------------------------
      1     -208.4083202473  -2.1154668E+02   1.5093062E-01
      2     -209.1705741144  -7.6225387E-01   7.2407223E-02
      3     -209.1447400111   2.5834103E-02   3.9151561E-02
      4     -209.2177021697  -7.2962159E-02   1.9972729E-02
      5     -209.2843967543  -6.6694585E-02   6.9084262E-03
      6     -209.2895966319  -5.1998777E-03   3.0022691E-03
      7     -209.2902578012  -6.6116921E-04   1.2739787E-03
      8     -209.2903772535  -1.1945233E-04   5.0126085E-04
      9     -209.2903913982  -1.4144736E-05   2.6996285E-04
     10     -209.2904010453  -9.6470538E-06   1.2111341E-04
     11     -209.2904019490  -9.0369139E-07   4.2504155E-05
     12     -209.2904019993  -5.0325383E-08   2.1818963E-05
     13     -209.2904020224  -2.3062938E-08   1.0563562E-05
------------------------------------------------------------

 total:                                  16.776 sec
   
   ::::::::::::::::::::::::::::::::::::::::::::::
   ::     D I P R O      C O U P L I N G S     ::
   ::::::::::::::::::::::::::::::::::::::::::::::
   
energy threshhold for near-degenerate orbitals near HOMO and LUMO considered for DIPRO:  0.300 eV
no. of orbitals within energy window of frag 1         7
no. of orbitals within energy window of frag 2         7
   
  Fragment 1 HOMO-4  Fragment 2 HOMO-4
--------------------------------------
E_mon(orb) frag1 frag2              -6.595    -6.707 eV
J(AB):               -0.002 eV
S(AB):             0.00009782 Eh
|J(AB,eff)|:            0.001 eV
   
  Fragment 1 HOMO-4  Fragment 2 HOMO-3
--------------------------------------
E_mon(orb) frag1 frag2              -6.595    -6.539 eV
J(AB):                0.003 eV
S(AB):            -0.00014412 Eh
|J(AB,eff)|:            0.002 eV
   
  Fragment 1 HOMO-4  Fragment 2 HOMO-2
--------------------------------------
E_mon(orb) frag1 frag2              -6.595    -6.591 eV
J(AB):                0.000 eV
S(AB):            -0.00001554 Eh
|J(AB,eff)|:            0.000 eV
   
  Fragment 1 HOMO-4  Fragment 2 HOMO-1
--------------------------------------
E_mon(orb) frag1 frag2              -6.595    -6.430 eV
J(AB):               -0.000 eV
S(AB):            -0.00001699 Eh
|J(AB,eff)|:            0.000 eV
   
  Fragment 1 HOMO-4  Fragment 2 HOMO 
--------------------------------------
E_mon(orb) frag1 frag2              -6.595    -6.470 eV
J(AB):                0.002 eV
S(AB):            -0.00011102 Eh
|J(AB,eff)|:            0.001 eV
   
  Fragment 1 HOMO-4  Fragment 2 LUMO 
--------------------------------------
E_mon(orb) frag1 frag2              -6.595    -5.446 eV
J(AB):               -0.007 eV
S(AB):             0.00036915 Eh
|J(AB,eff)|:            0.005 eV
   
  Fragment 1 HOMO-4  Fragment 2 LUMO+1
--------------------------------------
E_mon(orb) frag1 frag2              -6.595    -5.482 eV
J(AB):               -0.003 eV
S(AB):             0.00015631 Eh
|J(AB,eff)|:            0.002 eV
   
  Fragment 1 HOMO-3  Fragment 2 HOMO-4
--------------------------------------
E_mon(orb) frag1 frag2              -6.503    -6.707 eV
J(AB):               -0.000 eV
S(AB):             0.00000662 Eh
|J(AB,eff)|:            0.000 eV
   
  Fragment 1 HOMO-3  Fragment 2 HOMO-3
--------------------------------------
E_mon(orb) frag1 frag2              -6.503    -6.539 eV
J(AB):               -0.003 eV
S(AB):             0.00014917 Eh
|J(AB,eff)|:            0.002 eV
   
  Fragment 1 HOMO-3  Fragment 2 HOMO-2
--------------------------------------
E_mon(orb) frag1 frag2              -6.503    -6.591 eV
J(AB):               -0.001 eV
S(AB):             0.00003838 Eh
|J(AB,eff)|:            0.001 eV
   
  Fragment 1 HOMO-3  Fragment 2 HOMO-1
--------------------------------------
E_mon(orb) frag1 frag2              -6.503    -6.430 eV
J(AB):                0.004 eV
S(AB):            -0.00019073 Eh
|J(AB,eff)|:            0.003 eV
   
  Fragment 1 HOMO-3  Fragment 2 HOMO 
--------------------------------------
E_mon(orb) frag1 frag2              -6.503    -6.470 eV
J(AB):               -0.000 eV
S(AB):             0.00003849 Eh
|J(AB,eff)|:            0.000 eV
   
  Fragment 1 HOMO-3  Fragment 2 LUMO 
--------------------------------------
E_mon(orb) frag1 frag2              -6.503    -5.446 eV
J(AB):                0.003 eV
S(AB):            -0.00018794 Eh
|J(AB,eff)|:            0.002 eV
   
  Fragment 1 HOMO-3  Fragment 2 LUMO+1
--------------------------------------
E_mon(orb) frag1 frag2              -6.503    -5.482 eV
J(AB):                0.002 eV
S(AB):            -0.00010170 Eh
|J(AB,eff)|:            0.001 eV
   
  Fragment 1 HOMO-2  Fragment 2 HOMO-4
--------------------------------------
E_mon(orb) frag1 frag2              -6.525    -6.707 eV
J(AB):                0.000 eV
S(AB):             0.00000094 Eh
|J(AB,eff)|:            0.000 eV
   
  Fragment 1 HOMO-2  Fragment 2 HOMO-3
--------------------------------------
E_mon(orb) frag1 frag2              -6.525    -6.539 eV
J(AB):                0.000 eV
S(AB):            -0.00002829 Eh
|J(AB,eff)|:            0.000 eV
   
  Fragment 1 HOMO-2  Fragment 2 HOMO-2
--------------------------------------
E_mon(orb) frag1 frag2              -6.525    -6.591 eV
J(AB):               -0.000 eV
S(AB):             0.00000885 Eh
|J(AB,eff)|:            0.000 eV
   
  Fragment 1 HOMO-2  Fragment 2 HOMO-1
--------------------------------------
E_mon(orb) frag1 frag2              -6.525    -6.430 eV
J(AB):                0.003 eV
S(AB):            -0.00013168 Eh
|J(AB,eff)|:            0.002 eV
   
  Fragment 1 HOMO-2  Fragment 2 HOMO 
--------------------------------------
E_mon(orb) frag1 frag2              -6.525    -6.470 eV
J(AB):                0.002 eV
S(AB):            -0.00007939 Eh
|J(AB,eff)|:            0.001 eV
   
  Fragment 1 HOMO-2  Fragment 2 LUMO 
--------------------------------------
E_mon(orb) frag1 frag2              -6.525    -5.446 eV
J(AB):               -0.000 eV
S(AB):             0.00000602 Eh
|J(AB,eff)|:            0.000 eV
   
  Fragment 1 HOMO-2  Fragment 2 LUMO+1
--------------------------------------
E_mon(orb) frag1 frag2              -6.525    -5.482 eV
J(AB):               -0.000 eV
S(AB):             0.00000062 Eh
|J(AB,eff)|:            0.000 eV
   
  Fragment 1 HOMO-1  Fragment 2 HOMO-4
--------------------------------------
E_mon(orb) frag1 frag2              -6.401    -6.707 eV
J(AB):                0.001 eV
S(AB):            -0.00004104 Eh
|J(AB,eff)|:            0.000 eV
   
  Fragment 1 HOMO-1  Fragment 2 HOMO-3
--------------------------------------
E_mon(orb) frag1 frag2              -6.401    -6.539 eV
J(AB):                0.001 eV
S(AB):            -0.00003699 Eh
|J(AB,eff)|:            0.001 eV
   
  Fragment 1 HOMO-1  Fragment 2 HOMO-2
--------------------------------------
E_mon(orb) frag1 frag2              -6.401    -6.591 eV
J(AB):                0.001 eV
S(AB):            -0.00006371 Eh
|J(AB,eff)|:            0.001 eV
   
  Fragment 1 HOMO-1  Fragment 2 HOMO-1
--------------------------------------
E_mon(orb) frag1 frag2              -6.401    -6.430 eV
J(AB):               -0.003 eV
S(AB):             0.00015741 Eh
|J(AB,eff)|:            0.002 eV
   
  Fragment 1 HOMO-1  Fragment 2 HOMO 
--------------------------------------
E_mon(orb) frag1 frag2              -6.401    -6.470 eV
J(AB):               -0.001 eV
S(AB):             0.00004655 Eh
|J(AB,eff)|:            0.001 eV
   
  Fragment 1 HOMO-1  Fragment 2 LUMO 
--------------------------------------
E_mon(orb) frag1 frag2              -6.401    -5.446 eV
J(AB):                0.001 eV
S(AB):            -0.00010106 Eh
|J(AB,eff)|:            0.001 eV
   
  Fragment 1 HOMO-1  Fragment 2 LUMO+1
--------------------------------------
E_mon(orb) frag1 frag2              -6.401    -5.482 eV
J(AB):                0.000 eV
S(AB):            -0.00002439 Eh
|J(AB,eff)|:            0.000 eV
   
  Fragment 1 HOMO   Fragment 2 HOMO-4
--------------------------------------
E_mon(orb) frag1 frag2              -6.440    -6.707 eV
J(AB):               -0.002 eV
S(AB):             0.00010087 Eh
|J(AB,eff)|:            0.001 eV
   
  Fragment 1 HOMO   Fragment 2 HOMO-3
--------------------------------------
E_mon(orb) frag1 frag2              -6.440    -6.539 eV
J(AB):                0.001 eV
S(AB):            -0.00004017 Eh
|J(AB,eff)|:            0.001 eV
   
  Fragment 1 HOMO   Fragment 2 HOMO-2
--------------------------------------
E_mon(orb) frag1 frag2              -6.440    -6.591 eV
J(AB):               -0.000 eV
S(AB):             0.00002370 Eh
|J(AB,eff)|:            0.000 eV
   
  Fragment 1 HOMO   Fragment 2 HOMO-1
--------------------------------------
E_mon(orb) frag1 frag2              -6.440    -6.430 eV
J(AB):               -0.000 eV
S(AB):             0.00001328 Eh
|J(AB,eff)|:            0.000 eV
   
  Fragment 1 HOMO   Fragment 2 HOMO 
--------------------------------------
E_mon(orb) frag1 frag2              -6.440    -6.470 eV
J(AB):               -0.000 eV
S(AB):             0.00000566 Eh
|J(AB,eff)|:            0.000 eV
   
  Fragment 1 HOMO   Fragment 2 LUMO 
--------------------------------------
E_mon(orb) frag1 frag2              -6.440    -5.446 eV
J(AB):               -0.001 eV
S(AB):             0.00006371 Eh
|J(AB,eff)|:            0.001 eV
   
  Fragment 1 HOMO   Fragment 2 LUMO+1
--------------------------------------
E_mon(orb) frag1 frag2              -6.440    -5.482 eV
J(AB):               -0.000 eV
S(AB):             0.00000685 Eh
|J(AB,eff)|:            0.000 eV
   
  Fragment 1 LUMO   Fragment 2 HOMO-4
--------------------------------------
E_mon(orb) frag1 frag2              -5.407    -6.707 eV
J(AB):               -0.003 eV
S(AB):             0.00019353 Eh
|J(AB,eff)|:            0.002 eV
   
  Fragment 1 LUMO   Fragment 2 HOMO-3
--------------------------------------
E_mon(orb) frag1 frag2              -5.407    -6.539 eV
J(AB):                0.004 eV
S(AB):            -0.00016501 Eh
|J(AB,eff)|:            0.003 eV
   
  Fragment 1 LUMO   Fragment 2 HOMO-2
--------------------------------------
E_mon(orb) frag1 frag2              -5.407    -6.591 eV
J(AB):               -0.001 eV
S(AB):             0.00005156 Eh
|J(AB,eff)|:            0.000 eV
   
  Fragment 1 LUMO   Fragment 2 HOMO-1
--------------------------------------
E_mon(orb) frag1 frag2              -5.407    -6.430 eV
J(AB):               -0.004 eV
S(AB):             0.00017562 Eh
|J(AB,eff)|:            0.003 eV
   
  Fragment 1 LUMO   Fragment 2 HOMO 
--------------------------------------
E_mon(orb) frag1 frag2              -5.407    -6.470 eV
J(AB):               -0.002 eV
S(AB):             0.00009470 Eh
|J(AB,eff)|:            0.001 eV
   
  Fragment 1 LUMO   Fragment 2 LUMO 
--------------------------------------
E_mon(orb) frag1 frag2              -5.407    -5.446 eV
J(AB):                0.001 eV
S(AB):            -0.00002085 Eh
|J(AB,eff)|:            0.001 eV
   
  Fragment 1 LUMO   Fragment 2 LUMO+1
--------------------------------------
E_mon(orb) frag1 frag2              -5.407    -5.482 eV
J(AB):               -0.000 eV
S(AB):             0.00002459 Eh
|J(AB,eff)|:            0.000 eV
   
  Fragment 1 LUMO+1  Fragment 2 HOMO-4
--------------------------------------
E_mon(orb) frag1 frag2              -5.405    -6.707 eV
J(AB):               -0.001 eV
S(AB):             0.00003294 Eh
|J(AB,eff)|:            0.001 eV
   
  Fragment 1 LUMO+1  Fragment 2 HOMO-3
--------------------------------------
E_mon(orb) frag1 frag2              -5.405    -6.539 eV
J(AB):                0.001 eV
S(AB):            -0.00002253 Eh
|J(AB,eff)|:            0.001 eV
   
  Fragment 1 LUMO+1  Fragment 2 HOMO-2
--------------------------------------
E_mon(orb) frag1 frag2              -5.405    -6.591 eV
J(AB):                0.001 eV
S(AB):            -0.00002641 Eh
|J(AB,eff)|:            0.001 eV
   
  Fragment 1 LUMO+1  Fragment 2 HOMO-1
--------------------------------------
E_mon(orb) frag1 frag2              -5.405    -6.430 eV
J(AB):               -0.008 eV
S(AB):             0.00038046 Eh
|J(AB,eff)|:            0.005 eV
   
  Fragment 1 LUMO+1  Fragment 2 HOMO 
--------------------------------------
E_mon(orb) frag1 frag2              -5.405    -6.470 eV
J(AB):               -0.001 eV
S(AB):             0.00007151 Eh
|J(AB,eff)|:            0.001 eV
   
  Fragment 1 LUMO+1  Fragment 2 LUMO 
--------------------------------------
E_mon(orb) frag1 frag2              -5.405    -5.446 eV
J(AB):                0.002 eV
S(AB):            -0.00012939 Eh
|J(AB,eff)|:            0.002 eV
   
  Fragment 1 LUMO+1  Fragment 2 LUMO+1
--------------------------------------
E_mon(orb) frag1 frag2              -5.405    -5.482 eV
J(AB):                0.001 eV
S(AB):            -0.00007522 Eh
|J(AB,eff)|:            0.001 eV
   
..............................................................................
:  total |J(AB,eff)| for hole transport (occ. MOs) :               0.006 eV  :
:  total |J(AB,eff)| for charge transport (unocc. MOs) :           0.002 eV  :
:  total |J(AB,eff)| for charge transfer (CT) :                    0.009 eV  :
..............................................................................
  
 Please remember, DIPRO is not available for restart!
   
normal termination of dipro
----------------------------------------------------------
 * finished run on 2025/03/17 at 15:06:04.639     
----------------------------------------------------------
 dipro:
 * wall-time:     0 d,  0 h,  1 min, 25.308 sec
 *  cpu-time:     0 d,  0 h,  3 min,  3.654 sec
 * ratio c/w:     2.153 speedup
Reorganization energy (electron): 0.11597843467421305 eV
Reorganization energy (hole): 0.08593162701266982 eV
Electron Transfer integral J: 0.002 eV
Hole Transfer integral J: 0.006 eV
