110
 energy: -291.989786029086 gnorm: 0.342694512034 xtb: 6.7.1 (edcfbbe)
C           -3.06940000000000        0.72680000000000       -1.19080000000000
C           -2.48360000000000       -0.45080000000000       -0.72630000000000
C           -1.53490000000000       -0.35090000000000        0.34900000000000
C           -0.94850000000000        0.91800000000000        0.61850000000000
C           -1.53620000000000        2.05790000000000        0.05100000000000
C           -2.62630000000000        1.96420000000000       -0.76750000000000
C           -1.05610000000000       -1.47560000000000        1.09010000000000
C            0.16920000000000       -1.30590000000000        1.74490000000000
C            0.73770000000000       -0.00700000000000        1.86140000000000
N            0.14670000000000        1.09720000000000        1.38060000000000
C           -1.68820000000000       -2.75110000000000        1.23860000000000
C           -0.88490000000000       -3.83220000000000        1.70020000000000
N            0.36250000000000       -3.68490000000000        2.19050000000000
C            0.84440000000000       -2.43460000000000        2.28450000000000
C            2.07920000000000       -2.22740000000000        2.91360000000000
C            2.61130000000000       -0.96780000000000        3.04630000000000
C            1.95590000000000        0.12490000000000        2.53740000000000
C           -3.09890000000000       -2.96880000000000        1.07580000000000
C           -3.56550000000000       -4.28320000000000        1.08300000000000
C           -2.73690000000000       -5.35080000000000        1.36340000000000
C           -1.43220000000000       -5.12610000000000        1.69880000000000
O           -3.94960000000000       -1.87600000000000        0.99660000000000
O           -2.72010000000000       -1.69350000000000       -1.29360000000000
H           -1.12150000000000        3.02770000000000        0.27770000000000
H           -3.89240000000000        0.69500000000000       -1.88470000000000
H            2.38670000000000        1.10580000000000        2.66200000000000
H            2.62330000000000       -3.07510000000000        3.30070000000000
H           -0.80360000000000       -5.95980000000000        1.97270000000000
H           -4.60470000000000       -4.49220000000000        0.89250000000000
C           -5.31270000000000       -2.15680000000000        1.20170000000000
C           -3.45010000000000       -1.68550000000000       -2.49540000000000
S           -3.52220000000000        3.54530000000000       -1.30360000000000
F           -3.95630000000000        3.67220000000000        0.20620000000000
F           -2.19740000000000        4.33370000000000       -0.96560000000000
F           -4.28020000000000        4.86270000000000       -1.72710000000000
F           -4.78740000000000        2.65030000000000       -1.59650000000000
F           -2.99830000000000        3.26730000000000       -2.76600000000000
S           -3.41120000000000       -7.12230000000000        1.30960000000000
F           -3.73910000000000       -6.98510000000000        2.85300000000000
F           -4.82830000000000       -6.52450000000000        0.95060000000000
F           -3.96480000000000       -8.60420000000000        1.25180000000000
F           -3.03400000000000       -7.13000000000000       -0.22830000000000
F           -1.95670000000000       -7.62480000000000        1.66960000000000
S            4.24940000000000       -0.72360000000000        3.95960000000000
F            4.81310000000000       -0.03620000000000        2.65270000000000
F            4.69960000000000       -2.13840000000000        3.41790000000000
F            5.60230000000000       -0.51160000000000        4.74790000000000
F            3.68630000000000        0.66910000000000        4.43990000000000
F            3.54150000000000       -1.42680000000000        5.17860000000000
H           -3.44330000000000       -2.70190000000000       -2.89420000000000
H           -2.97050000000000       -1.01480000000000       -3.21130000000000
H           -4.47950000000000       -1.38240000000000       -2.29770000000000
H           -5.83000000000000       -1.20900000000000        1.36430000000000
H           -5.41900000000000       -2.76720000000000        2.10250000000000
H           -5.72600000000000       -2.66010000000000        0.32620000000000
C           -0.99630000000000        4.10100000000000        3.47940000000000
C           -1.19950000000000        2.78790000000000        3.89810000000000
C           -0.33560000000000        2.25430000000000        4.91330000000000
C            0.79680000000000        3.01310000000000        5.31990000000000
C            0.93590000000000        4.32610000000000        4.84300000000000
C            0.05020000000000        4.86410000000000        3.95390000000000
C           -0.48950000000000        0.95120000000000        5.47990000000000
C            0.62150000000000        0.41300000000000        6.14160000000000
C            1.71770000000000        1.25030000000000        6.48010000000000
N            1.77540000000000        2.54300000000000        6.12220000000000
C           -1.66200000000000        0.12930000000000        5.46430000000000
C           -1.48990000000000       -1.27050000000000        5.67240000000000
N           -0.35200000000000       -1.81240000000000        6.15700000000000
C            0.62490000000000       -0.95930000000000        6.51640000000000
C            1.69670000000000       -1.42940000000000        7.28870000000000
C            2.72490000000000       -0.60270000000000        7.67910000000000
C            2.74830000000000        0.70840000000000        7.26210000000000
C           -2.99840000000000        0.65670000000000        5.42770000000000
C           -4.04400000000000       -0.23720000000000        5.21110000000000
C           -3.83210000000000       -1.60010000000000        5.18710000000000
C           -2.59510000000000       -2.11400000000000        5.46070000000000
O           -3.20520000000000        2.00630000000000        5.69060000000000
O           -2.15860000000000        1.98070000000000        3.29740000000000
H            1.77780000000000        4.91450000000000        5.17530000000000
H           -1.63750000000000        4.53540000000000        2.73110000000000
H            3.57870000000000        1.33960000000000        7.54220000000000
H            1.70510000000000       -2.46390000000000        7.59680000000000
H           -2.47170000000000       -3.18220000000000        5.54770000000000
H           -5.04740000000000        0.12150000000000        5.05530000000000
C           -4.48620000000000        2.33430000000000        6.17670000000000
C           -3.26520000000000        2.65960000000000        2.74720000000000
S            0.28050000000000        6.64440000000000        3.34450000000000
F            1.58480000000000        6.71990000000000        4.23430000000000
F            1.12800000000000        6.03940000000000        2.15110000000000
F            0.47950000000000        8.12930000000000        2.83540000000000
F           -0.59020000000000        7.10240000000000        4.58480000000000
F           -1.03790000000000        6.47310000000000        2.49080000000000
S           -5.28570000000000       -2.74680000000000        4.80050000000000
F           -6.07960000000000       -2.02510000000000        5.95500000000000
F           -5.78080000000000       -1.65310000000000        3.78600000000000
F           -6.49020000000000       -3.69070000000000        4.42960000000000
F           -4.38010000000000       -3.36480000000000        3.67590000000000
F           -4.68390000000000       -3.76790000000000        5.83940000000000
S            4.09410000000000       -1.27110000000000        8.81040000000000
F            4.74050000000000        0.17270000000000        8.78770000000000
F            4.95020000000000       -1.67360000000000        7.53620000000000
F            5.21380000000000       -1.81670000000000        9.79140000000000
F            3.17020000000000       -0.83660000000000       10.02450000000000
F            3.37200000000000       -2.67780000000000        8.76640000000000
H           -4.04830000000000        1.92740000000000        2.54470000000000
H           -2.98080000000000        3.13590000000000        1.81030000000000
H           -3.63310000000000        3.39880000000000        3.46060000000000
H           -4.44640000000000        3.35530000000000        6.56110000000000
H           -4.75390000000000        1.65480000000000        6.98840000000000
H           -5.21700000000000        2.28120000000000        5.36900000000000
110
 energy: -292.076814225335 gnorm: 0.231984061856 xtb: 6.7.1 (edcfbbe)
C           -3.06834027577392        0.72043576965780       -1.19416053569807
C           -2.48321822614321       -0.44970367127788       -0.72552487063610
C           -1.53825667830015       -0.35845772914178        0.33900722070854
C           -0.95374684967973        0.91370190221798        0.61955156510937
C           -1.53673635546676        2.06588852861561        0.05700737987705
C           -2.62051528518095        1.96036667512012       -0.76247593461149
C           -1.06209413336419       -1.47546940112984        1.08776828036642
C            0.16538581355896       -1.30558419284428        1.74458146924742
C            0.73594724771672       -0.00546499395248        1.85768193301895
N            0.13599959736146        1.08563665000303        1.37958038314969
C           -1.69988386108158       -2.74390528429294        1.24172954362488
C           -0.88880782715552       -3.82689029777227        1.69973183701385
N            0.35379566497560       -3.67502818191352        2.18106176455561
C            0.83945696136072       -2.43600737644552        2.28848467060144
C            2.08335701161794       -2.23419640193030        2.91806050481859
C            2.60763688167591       -0.96869104465288        3.04153326018118
C            1.95945072277528        0.13325407116261        2.53914419950632
C           -3.09695862861158       -2.96861631878484        1.07662213576346
C           -3.56753481224215       -4.27592694272574        1.08177179975167
C           -2.72850982475350       -5.34359536414822        1.36107265950413
C           -1.42556511832754       -5.13091708819760        1.69888844799693
O           -3.93432940022253       -1.89096061779274        0.99910490059679
O           -2.71337448361433       -1.67437207891506       -1.28668408850258
H           -1.10969359737030        3.02582557789645        0.28554389473871
H           -3.88535016176766        0.68832027237296       -1.89263554555539
H            2.38596317723436        1.11413029335082        2.65640258124163
H            2.62069829786227       -3.08285055269145        3.30416354033708
H           -0.79150810837957       -5.95116743889131        1.98201153727667
H           -4.60468490164955       -4.48020135780744        0.89232492051221
C           -5.30909304040071       -2.15880988058202        1.18267820127889
C           -3.44900914477658       -1.68248798290456       -2.49029525392421
S           -3.50973810604036        3.52507816195270       -1.30508111736990
F           -3.98612753694391        3.70041761852798        0.21188284634380
F           -2.19191568192323        4.36832525937938       -0.97367992182995
F           -4.27158950281323        4.84539267084263       -1.73433562818752
F           -4.81840876147756        2.65460683283942       -1.60700158689006
F           -2.99587525932801        3.27112115373282       -2.79866772396940
S           -3.40244947405803       -7.09952405959360        1.31138827212874
F           -3.74873436685796       -6.99420048248207        2.87363924498624
F           -4.85623666229164       -6.53725082274804        0.94473678846962
F           -3.96094406027912       -8.58588388522662        1.25290832086035
F           -3.03534531899378       -7.14477807864965       -0.25071119433067
F           -1.94632436485948       -7.65848379499850        1.67141771409492
S            4.22962510104834       -0.72867977073079        3.94734340501368
F            4.83288401495801       -0.02356730240053        2.64128834996095
F            4.72409910129613       -2.15491778842335        3.41466345038995
F            5.58681844335474       -0.51500532917299        4.73649039867217
F            3.69308721845901        0.68806730126344        4.46024603224024
F            3.54680027631713       -1.44029579626062        5.20402444219331
H           -3.43547209478576       -2.70167187093403       -2.87908630187325
H           -2.98026257444442       -1.01439410216297       -3.21754935259380
H           -4.48333374263831       -1.38311991157713       -2.30679428911350
H           -5.81456816853692       -1.20715153150464        1.35042926990292
H           -5.44173547971872       -2.77763229961799        2.06485030126649
H           -5.73247253137428       -2.65754965796495        0.31133039576978
C           -0.99889170084577        4.09352231140196        3.47557445410283
C           -1.19608258011902        2.78555761301499        3.89712172434933
C           -0.34165129681471        2.24847648944056        4.90142349078040
C            0.79537746809898        3.00718929522075        5.31464954460580
C            0.94160230591013        4.32912697581755        4.84851427031251
C            0.05125056191559        4.85656539974232        3.96183150537451
C           -0.49546398857453        0.95201157158965        5.47733224984880
C            0.61634202410785        0.41367977367636        6.13959625611704
C            1.71531666281095        1.25244667528741        6.47619016537802
N            1.76107182075398        2.53648667498109        6.11990783950760
C           -1.67035912330393        0.13907409178361        5.47096080162144
C           -1.49148535968525       -1.26432736448764        5.67355945010942
N           -0.35629331196900       -1.79796088216488        6.15237850079041
C            0.61931383913984       -0.95900371749092        6.51690650212318
C            1.69427077506768       -1.43693534907326        7.29030781134569
C            2.71983176420847       -0.60043518198827        7.67329626541443
C            2.75253095728088        0.71356785230211        7.26442073337028
C           -2.99729842267194        0.65644880192714        5.42574700528847
C           -4.04403695049906       -0.22981530439078        5.21539728070422
C           -3.82034147606057       -1.59701901994974        5.19027358045846
C           -2.59216892759615       -2.12192920398099        5.45763208325630
O           -3.19872694757710        1.98630826999315        5.69365260865123
O           -2.14894611752007        1.98552377356549        3.32333443731950
H            1.78538392826230        4.90336963153345        5.18493004747799
H           -1.64257225266198        4.52388893305647        2.73081829671051
H            3.57443252693961        1.35102164513633        7.53768100181350
H            1.69442608286776       -2.46926264519754        7.58961899907027
H           -2.46309248629039       -3.18620631697584        5.54914473349293
H           -5.04872415872761        0.12594838421098        5.06581052605783
C           -4.48308459954668        2.32917878452612        6.17321935968244
C           -3.25770981433533        2.65735223841283        2.75815383218698
S            0.27832424124473        6.62175471509358        3.35104750329732
F            1.60574038263419        6.74838952781545        4.23718382754203
F            1.14137280849802        6.04578074316715        2.12773586543473
F            0.47552315165856        8.11247866449144        2.84029255716257
F           -0.60095193708734        7.12331113464457        4.59640676536453
F           -1.05447334265264        6.49358285688840        2.47252631940723
S           -5.26096966905234       -2.73140431970181        4.81947107794180
F           -6.10396042074829       -2.02433257053935        5.98008800396141
F           -5.80012017282004       -1.63684803565633        3.78857782382778
F           -6.47317135198177       -3.67646856974549        4.44126341940542
F           -4.36881681320267       -3.38614571347202        3.66989550456339
F           -4.69026306084061       -3.79577967528868        5.86259308430662
S            4.07936667278132       -1.26322479642840        8.79493029318598
F            4.76726887419676        0.18350726292543        8.80361381535515
F            4.96707945115902       -1.68061249529409        7.52631612163266
F            5.20253703581931       -1.81041183459053        9.78006385286850
F            3.16947829043851       -0.83664195165796       10.04941013279989
F            3.38193924454019       -2.70536970715553        8.78207671132595
H           -4.03282584878540        1.91842256934630        2.55209283075582
H           -2.97734566177670        3.13385374922088        1.82500655684846
H           -3.63907097692739        3.40166999314762        3.45889040009495
H           -4.43172571613246        3.35029910320098        6.55413155317154
H           -4.76553305179094        1.65675388569772        6.98705279357115
H           -5.22388446168275        2.28462720727758        5.37208331086804
110
 energy: -292.144805479631 gnorm: 0.074687685313 xtb: 6.7.1 (edcfbbe)
C           -3.06968875849165        0.71688379276956       -1.19948026486635
C           -2.48260874938010       -0.45056309441894       -0.72973023221395
C           -1.54198518944563       -0.36514111085077        0.33002042678261
C           -0.95760582864585        0.91104881881872        0.62039356551740
C           -1.53720694140085        2.07844213281013        0.06299056783284
C           -2.61260351078093        1.95189314709791       -0.75351380282012
C           -1.06542055479802       -1.47476865585241        1.08737836767766
C            0.16467981529562       -1.30464368970844        1.74590620046756
C            0.73528161736625       -0.00245358540219        1.85539779514415
N            0.12402464650618        1.07366376414084        1.37950689162324
C           -1.71114086766869       -2.73727686966072        1.24357320265304
C           -0.89119874097180       -3.82339672691663        1.69886832542977
N            0.34326146074253       -3.66427503438194        2.17298720156230
C            0.83680080840780       -2.43869139603913        2.29170614680429
C            2.08864261515893       -2.24185447962882        2.92513948498088
C            2.59704452349629       -0.97046443986860        3.03455142914294
C            1.96530655584109        0.14305442013086        2.54181075490428
C           -3.09949623291344       -2.96697048151867        1.07872998678245
C           -3.57175883300152       -4.27341722727040        1.07889223351728
C           -2.71743910701225       -5.33174920279695        1.35827962522632
C           -1.41850113464817       -5.14011096739367        1.70047649258335
O           -3.92122162804721       -1.91020271333753        1.00416257241674
O           -2.70870704262568       -1.65150058121761       -1.28129723230282
H           -1.09761159663777        3.02833855308190        0.29366636929853
H           -3.88194606546588        0.68996562946606       -1.90005426660063
H            2.38724131182625        1.12344466022776        2.65178380841285
H            2.62009264581142       -3.09139376544140        3.30837901116281
H           -0.77773706895312       -5.94728393915445        1.99066152638354
H           -4.60592415960350       -4.47837147149267        0.89144174782301
C           -5.30951318498224       -2.16005383969709        1.16845912821976
C           -3.44978175820306       -1.68160428387329       -2.48776817385961
S           -3.48516428175345        3.48746337301302       -1.30081822877908
F           -4.02458895997135        3.73324719900895        0.22885207315285
F           -2.17727454081720        4.41257003307865       -0.97973788142038
F           -4.25673199820045        4.81839040934871       -1.73504724706779
F           -4.86118599998574        2.65508523474393       -1.61970140979389
F           -2.99172079477026        3.27658004386940       -2.84478269614101
S           -3.38686551076011       -7.05813540399149        1.31514807095979
F           -3.76209113574877       -7.00427576252613        2.90580518165911
F           -4.89762889147325       -6.55160554437506        0.93585142358925
F           -3.95285483002661       -8.55744738037309        1.25395501950788
F           -3.03513792866110       -7.16127392004453       -0.28479146361280
F           -1.92760327939235       -7.70151549177601        1.67565118269204
S            4.19545350958151       -0.73698327266104        3.92378653077456
F            4.86236674978593       -0.00377038070810        2.62091223115667
F            4.75831428792542       -2.18137114988321        3.40841127246670
F            5.56149597338510       -0.51957751601838        4.71959049865444
F            3.69998334786718        0.71864630395179        4.48776484102316
F            3.54946631747121       -1.45946869685987        5.24012676395127
H           -3.42690783450589       -2.70395873613512       -2.86289835878687
H           -2.98940790571553       -1.01554917796801       -3.22372062051468
H           -4.48735186782787       -1.38517100934587       -2.31443847426144
H           -5.79823787836813       -1.20207801421880        1.33600288280909
H           -5.46462051479348       -2.78464870776483        2.04031577553631
H           -5.73653253637554       -2.65201016634275        0.29502389326727
C           -1.00200924833771        4.09110256505253        3.46981656245490
C           -1.19567530640605        2.78418695129393        3.89304063130647
C           -0.34684058249463        2.24356727499356        4.88924164769001
C            0.79521315014542        3.00309622866688        5.31124133626716
C            0.95034052063879        4.33538957306935        4.85254647026535
C            0.05310367082876        4.84334084559404        3.97049732051174
C           -0.49835891496585        0.95157109293151        5.47523800356659
C            0.61392676216332        0.41316001204255        6.13932234880063
C            1.71485615601512        1.25550364070617        6.47404655019803
N            1.74638590404099        2.52911106224673        6.11620823549176
C           -1.67810481161244        0.14801909941740        5.47558678777477
C           -1.49127892435719       -1.25990802133835        5.67347733961863
N           -0.36081874519534       -1.78246275450292        6.14769981384562
C            0.61545386060284       -0.96066855568148        6.51871507860976
C            1.69372721616971       -1.44648457948451        7.29532161778589
C            2.70882852932146       -0.59484723637147        7.66605659101175
C            2.75927783272686        0.71867157320921        7.27023012876676
C           -2.99929059545865        0.65840921463383        5.43014210740505
C           -4.04822602581252       -0.22330309377018        5.22047527137019
C           -3.80356831175270       -1.59059106764946        5.19200720178867
C           -2.58989626142508       -2.13331917070387        5.45499136412492
O           -3.19530494319759        1.96277580051697        5.70005185491732
O           -2.14009596025931        1.99525868417311        3.34891178875770
H            1.79505401245015        4.89661333979580        5.19575116728065
H           -1.64499075771593        4.52257272939454        2.72892640895847
H            3.57395691793199        1.36235108310197        7.53572526997309
H            1.68680088484656       -2.47742478714378        7.58620455906541
H           -2.45396118427136       -3.19283085169262        5.55067526027595
H           -5.05356133850411        0.12510201011400        5.07541255376037
C           -4.48263455173198        2.32721198600335        6.17077857664402
C           -3.25367004414611        2.65527943610648        2.76387178319554
S            0.27393463280175        6.58033092722303        3.36401215913036
F            1.63697249673581        6.78305225123085        4.24422232341821
F            1.16083963794578        6.04924203576696        2.09481462649547
F            0.47006964850710        8.08515844848946        2.84896914822832
F           -0.61832677200855        7.15044229460509        4.61697297135658
F           -1.08045369752388        6.51812902031191        2.44642549821820
S           -5.22071765121296       -2.70529817191425        4.84087397161077
F           -6.13990455157090       -2.01923931867894        6.00912626301554
F           -5.83333476431441       -1.61494421768647        3.77715540114865
F           -6.44891290315853       -3.65734919903917        4.45211127817788
F           -4.35301231196847       -3.42114229006867        3.64904036500037
F           -4.69679744047590       -3.83456444479853        5.89008451228543
S            4.05306187291503       -1.24942732005079        8.76543045119311
F            4.80352690895667        0.20196190907113        8.82382838247126
F            4.99246146421055       -1.69162509990519        7.50962293085523
F            5.18308029121588       -1.80056754583504        9.76329009501089
F            3.16278182690602       -0.83406914625762       10.08155949766442
F            3.39160331109775       -2.74518142672624        8.80158511897516
H           -4.01834202329482        1.90708502296781        2.55901951180530
H           -2.97575731925195        3.13267727474297        1.83276218487049
H           -3.64597922030509        3.40282236361101        3.45585963175986
H           -4.41574797543178        3.34777240545940        6.54702590070532
H           -4.77730439572591        1.65985054913801        6.98551399973321
H           -5.22883251893081        2.28893996497448        5.37350199487821
110
 energy: -292.157244590158 gnorm: 0.025343772394 xtb: 6.7.1 (edcfbbe)
C           -3.06785816193315        0.72717607061021       -1.20417266066142
C           -2.48333501779376       -0.44349012033003       -0.73395143872219
C           -1.54580365989317       -0.36121384847588        0.33143474934570
C           -0.96409467307827        0.91485962606219        0.62749229895508
C           -1.53947312428891        2.08935116961056        0.07525936768219
C           -2.60933596158556        1.95607911099761       -0.74723196565063
C           -1.06818375725549       -1.47183414523429        1.08993490297427
C            0.16282362023992       -1.30154508797423        1.74976196597692
C            0.73230252425812        0.00071999831346        1.85919448767761
N            0.11367097603315        1.07407751907052        1.38880075226907
C           -1.71340327301034       -2.73620808386274        1.24416565083291
C           -0.89120983335304       -3.82187340709415        1.69749264483977
N            0.33903866275569       -3.65919502034716        2.17215887689766
C            0.83444321776341       -2.43650835610008        2.29493808892514
C            2.08735169000916       -2.24441130155752        2.92929571050173
C            2.58942320242102       -0.97083141978039        3.02971971170621
C            1.96567559096450        0.14879725212843        2.54188216092175
C           -3.10206911244760       -2.97020032156482        1.07801427648895
C           -3.56958648097844       -4.28057771196196        1.07250787298404
C           -2.70794122787827       -5.32969938676742        1.35448503797358
C           -1.40965587449377       -5.14352040009204        1.70050462151309
O           -3.91989559203425       -1.91909138447199        0.99923875725063
O           -2.70841297572079       -1.63905109829011       -1.28230047812370
H           -1.08636743657255        3.03452199323300        0.30679033593482
H           -3.87054363979787        0.70374205158509       -1.91652370003423
H            2.39104072193571        1.13051177666753        2.64256323898818
H            2.61656760416722       -3.09688101592482        3.31427195743788
H           -0.76165785805154       -5.94298300576932        2.00351554381125
H           -4.60451816212721       -4.48718558310595        0.88790479486486
C           -5.31763252140049       -2.16010852190140        1.12339545189269
C           -3.45368913603131       -1.68433941382162       -2.48766294203111
S           -3.47935181052513        3.47777511796093       -1.31549286397886
F           -4.05656971549771        3.76653198895062        0.21626302524118
F           -2.18002541925230        4.44456366439182       -0.99910198348364
F           -4.25596454661806        4.80782598176295       -1.76877214413947
F           -4.88145756638637        2.65611188147762       -1.64053552153255
F           -2.98817832702145        3.27312129606444       -2.87627872228064
S           -3.38329582627401       -7.04611040197655        1.31669715237771
F           -3.76823824271845       -7.01149382161340        2.91932204622227
F           -4.91794373638241       -6.56113700348331        0.93215961660460
F           -3.95720616917403       -8.54978644487788        1.25510788079106
F           -3.03952787433404       -7.17456488303927       -0.30033668928081
F           -1.92428016791512       -7.73185784242834        1.67569849148363
S            4.18688900493318       -0.74357485453884        3.91023842616955
F            4.87748528657997        0.01238265777365        2.61305494807416
F            4.78278649832893       -2.19114287434737        3.39473227407970
F            5.55582855363663       -0.52498690529292        4.71033772409955
F            3.70565030926795        0.72522956834435        4.50847950459958
F            3.55871260809610       -1.47939013662278        5.25032695147806
H           -3.41435773813538       -2.71388411775358       -2.83976966661661