116
 energy: -22.928061455056 gnorm: 0.329736929581 xtb: 6.6.1 (8d0f1dd)
C           -3.31122850772930        0.79849766164622       -0.92477639677520
C           -2.44380812530352       -0.12270372891954       -0.27661132624697
C           -1.41337090092821        0.39579727573559        0.56335275196199
C           -0.89266158675590        1.65801491088749        0.27377586709581
C           -1.72665675402493        2.51431363229076       -0.49448366572522
C           -2.95444148494349        2.13954154133227       -1.01494489940871
C           -0.74098268209890       -0.43411532818871        1.49825021926784
C            0.56872586496315        0.03782116815119        1.86248088067890
C            1.03782416582094        1.29402317993033        1.50887470833621
N            0.31238977034758        2.07067427098208        0.65193736800696
C           -1.29695700510141       -1.39996043042223        2.41574187746061
C           -0.38243517664656       -2.18060797534842        3.13232615520648
N            0.91308504082021       -1.90366887689689        3.30325166013478
C            1.37712470144904       -0.74872102533751        2.81811050966982
C            2.52149331701875       -0.17739833758153        3.39379298866852
C            2.95849061756259        1.02681208890480        2.95105897606587
C            2.24288949469137        1.78498308775960        2.03503020483770
C           -2.74860936222260       -1.74497937691422        2.38401158947411
C           -3.09416315450955       -2.91614440870436        3.00571134491758
C           -2.16786021984049       -3.77788778654213        3.63251872101904
C           -0.85708937311598       -3.40495313382985        3.68547234358092
O           -3.71994433332149       -0.94984598373544        1.67726658385724
O           -2.55702603277562       -1.47241711578389       -0.57241635275616
C           -3.84297843593025        3.13357444054366       -1.60938954875544
C           -2.68769581069131       -5.03867041417370        4.30484659386931
H           -1.39666850744143        3.51251503834900       -0.76806311868865
H           -4.27662633836220        0.55105838579656       -1.33106614114542
H            2.66329581305412        2.73912661909249        1.72562431984580
H            3.05775395548473       -0.69369546277216        4.16536137542516
H           -0.24710966264510       -4.12034095424229        4.22946223699121
H           -4.11477991332403       -3.04712728052358        3.03244694615357
O           -4.21824883374556        4.03433712717988       -0.87713382485991
O           -4.44510595673734        2.90643496899600       -2.81853501752979
C           -5.44216520282800        3.83300025693726       -3.02488532025093
C            4.23586651889298        1.50004220933226        3.59165660008449
O            5.05927614697201        0.66079890002952        3.91714215179376
O            4.47001334453535        2.86385149488593        3.72605651435371
C            5.79457498613219        3.08584475587818        4.15829123132174
O           -3.82227255313510       -5.27347675879771        4.16636005494405
O           -1.85023202017753       -5.79767454267276        5.06656077253571
C           -2.55119635829503       -6.86252441382958        5.62930343183426
C           -5.07197156564436       -1.42399175670916        1.58830531863830
C           -1.33089900128490       -2.23622472573986       -0.99264499351172
H           -2.54510546830388       -7.76426885143998        4.99136022291012
H           -3.57194749219491       -6.44405511486021        5.74196173723541
H           -2.09133598235598       -7.02043774843818        6.64022264233588
H            5.72707967266424        3.46798026205549        5.10135971236643
H            6.34060091246885        3.78468702308830        3.50069950143490
H            6.17933064298187        2.03010500085905        4.19342358084693
H           -0.91862729772622       -2.57650129080332       -0.01361370304871
H           -0.49769766914251       -1.60651221708571       -1.34094446550576
H           -1.52632419730509       -2.94569707152159       -1.75361447637286
H           -5.11788846557077       -2.41810833635233        1.17520213188926
H           -5.67929807973498       -0.69619639428435        1.04301666067831
H           -5.57598832326623       -1.42383358739762        2.57928294206544
H           -6.13050215934830        3.76035386975488       -2.23272855695873
H           -5.86615610071888        3.45938329385866       -4.02668959924245
H           -5.13479557532099        4.87790991548477       -2.98314551356402
C           -1.38192942069774        3.73616555005018        2.91232598411686
C           -1.84821468128685        2.59982427735607        3.49755545445181
C           -1.05946531454833        2.05730632010638        4.60922730982276
C            0.19893954712228        2.69376791964407        4.86302140881997
C            0.50425395911860        3.94630308659851        4.28768785650746
C           -0.26031777722226        4.46998310053134        3.25072669343212
C           -1.20488993561782        0.74454293276906        5.14851520323437
C           -0.06287609782692        0.02744069315890        5.60930570802864
C            1.19208754369866        0.71421540266195        5.78882868583885
N            1.19428660993148        2.06344359410476        5.62744624321596
C           -2.41361422770794        0.07928500213936        5.25249410304426
C           -2.45851584031083       -1.32662100968547        5.60237876023992
N           -1.29466212405906       -1.98318595734370        5.89916817085159
C           -0.14475655767527       -1.32117560077092        5.98824682881008
C            0.97209270935794       -1.98958449505532        6.53157704134458
C            2.21982707914082       -1.36973967291181        6.68703967237737
C            2.30561929262884       -0.09745313075593        6.26436900324455
C           -3.73018485967715        0.71367583494582        5.25810242262992
C           -4.89964478833448       -0.06184623426677        5.21204641615509
C           -4.82617965800088       -1.39228978090841        5.46901303780036
C           -3.67144193418464       -1.98914944386360        5.67265433266067
O           -3.75568638935321        2.07705011038914        5.52067969627343
O           -2.94192434743730        1.91263938797883        3.01658762327703
C            0.21273512614467        5.50086066357994        2.34765104514621
C           -6.06660304520411       -2.17604633098929        5.80641622556876
H            1.41756699010566        4.38133362238595        4.66974005703471
H           -1.82880610647429        4.11982501512100        2.06992133318584
H            3.26888037378556        0.32655662585251        6.31721410015598
H            0.87146188387207       -3.08471526305024        6.57830423410869
H           -3.67716811065157       -3.05999292755990        5.83019634570050
H           -5.77379677507622        0.43595144608221        4.71017130754348
O            1.34459852619901        5.82615848916894        2.44941456579099
O           -0.74718748219123        6.07961784856304        1.59848183464284
C           -0.21473095568964        7.24015934882472        1.05753806029483
C            3.53228080814219       -2.00967610361154        7.02506769044485
O            3.64093082622715       -3.14437803815732        7.50071391725347
O            4.56565258381079       -1.22937033368332        6.69086985080897
C            5.72579357310716       -1.80692399125161        7.22246151275881
O           -7.04801223588612       -1.95726935745904        5.14194115322235
O           -6.01514389321278       -2.93743591896022        6.94765316328794
C           -7.21292732384718       -3.62681918543340        7.15115816329978
C           -4.95459780685163        2.65960679932188        5.86868674392943
C           -3.68284113682406        2.59129188358641        2.05479246020704
H           -7.43119628931628       -4.22607794725959        6.20622607140901
H           -8.06548455146707       -2.91765848248592        7.29781126410398
H           -7.07314693247270       -4.33087306029711        7.91223421050944
H            6.57332189837178       -1.29353136199234        6.78341268688262
H            5.74663761932316       -2.84282155125561        6.88089468184451
H            5.69426191474290       -1.72781984964892        8.29460302186842
H           -4.10481209541493        3.44288266176275        2.60483747673152
H           -4.49244774344916        1.87419893016926        1.82433103764650
H           -3.18901540870812        2.85154642679373        1.06781919454921
H           -5.55414326821421        2.76698137191684        4.93950725322359
H           -4.78658370641210        3.62090640967288        6.25983200635257
H           -5.43485580473958        1.97242995129449        6.65265772412460
H            0.89164886030839        7.38838561720231        1.13776105146914
H           -0.62894889903848        8.04195665205089        1.64837664327952
H           -0.59282546386754        7.45699159724320        0.03719083132488
116
 energy: -22.632263602174 gnorm: 0.583589909042 xtb: 6.6.1 (8d0f1dd)
C           -2.88234957363538        0.59719796586641       -1.17412996718133
C           -2.17013421324325       -0.39036424544132       -0.59963882658905
C           -1.16659166743668        0.11631802221021        0.35021757589522
C           -0.64915156421527        1.50067690342094        0.28781856237883
C           -1.55541167719621        2.42032395973071       -0.35258884005607
C           -2.74433264218367        2.03923821579617       -0.95738064138896
C           -0.34261598567532       -0.75812908140146        1.18313059185281
C            0.83765001429311       -0.25390353273384        1.56641437552479
C            1.29771421934536        1.12449675817564        1.31599469764377
N            0.51213094792823        2.03608271235465        0.60955738887051
C           -0.79644721620149       -1.91416445442824        1.89573979077941
C            0.15987467781560       -2.82893897444931        2.52420672842281
N            1.41545154378351       -2.32224883098451        2.71727679022218
C            1.67081249346650       -1.04219863783512        2.33247883776191
C            2.88896998562784       -0.54384053574355        2.82096223883900
C            3.23398937458365        0.73708015393821        2.75650976514064
C            2.45332676116066        1.63338561989834        1.94807017421104
C           -2.11139368367881       -2.17775116764532        2.31043687905581
C           -2.43306209046317       -3.23655166498974        3.21641153634059
C           -1.45901990462513       -4.24161667645314        3.45464610910214
C           -0.15196086526635       -3.94082931433497        3.18044193874589
O           -3.18750189725784       -1.39095820049659        1.79157308021160
O           -2.22952952419646       -1.75064302773569       -0.88906983359030
C           -3.52285233687557        3.17021687200965       -1.23648424875272
C           -1.91793746287303       -5.63772562180991        4.03797781963218
H           -1.39899458267494        3.50221294176041       -0.48983531020711
H           -3.86353615395563        0.37346785282740       -1.66562316466006
H            2.70975791809690        2.56952745378331        1.81106351606455
H            3.57856921402707       -1.32171858270004        3.07557147935310
H            0.65046360250134       -4.69368646428163        3.29913219081988
H           -3.16039682339396       -3.38613459628898        3.91609573841586
O           -3.19678998465382        4.21616433275788       -0.61742087617635
O           -4.43152521175936        3.06062005489808       -2.18872761617272
C           -5.22496698132929        4.25866183756492       -2.23584871175366
C            4.63246630821920        0.99233765737989        3.50335122175358
O            5.55069957394730        0.46703525256415        2.99960923991289
O            4.55530395279642        1.74199538650236        4.69610808326430
C            5.74217926235377        1.40617283418779        5.52520252131793
O           -3.07807605591540       -5.99483775423016        4.16967727406050
O           -0.89898028593220       -6.39258761951301        4.60781319414648
C           -1.42930265887052       -7.58997298198838        5.20742505755602
C           -4.48720920645705       -1.82300214422865        2.28903450232140
C           -3.22622741554581       -2.16644728115371       -1.72127960414733
H           -2.21229580532144       -7.25911354648819        5.93116569634935
H           -0.68795248150996       -8.04552692997278        5.86646304873537
H           -1.97325183481225       -8.08821462434811        4.46654310198847
H            5.19687373949765        0.80024458930974        6.15438202197081
H            6.43648117561741        2.20719354007465        6.03972026330405
H            6.44989496345805        0.70590559611849        5.01895994460997
H           -4.12340644227910       -2.40248234265732       -1.02675859533210
H           -2.87305740143354       -3.07784435599867       -2.12610352335410
H           -3.71590325059597       -1.50837042790875       -2.43661628011210
H           -4.69186706848982       -2.75306031417028        1.86663373356924
H           -5.26793635978290       -1.19222440818852        1.98976594981795
H           -4.28801581863308       -1.86863657390128        3.33849350125238
H           -5.04926408015393        4.57673664406009       -3.21304968988488
H           -4.70858324402891        5.01380378139291       -1.45953685486759
H           -6.31917605478172        3.90948620114064       -1.92812493208597
C           -2.12651275606102        3.88093973387804        2.85561835330112
C           -2.38150816609931        2.72537584920524        3.57024283597826
C           -1.32761308468591        2.09081256490990        4.33711072155168
C           -0.03563061257161        2.57898703270472        4.10172721691658
C            0.24541220313669        3.87547454052033        3.66993614741975
C           -0.87383385136746        4.44410072921586        2.93019312146082
C           -1.52317830123545        1.08008612453927        5.37594491879596
C           -0.32120697215334        0.33867938686494        5.55801710363251
C            0.88579986986347        0.86401439668197        5.33738036105496
N            1.14564928532667        2.07644552419488        4.60617071966511
C           -2.80687845646246        0.72410636384781        5.92255665968706
C           -2.90228269835879       -0.71836577968892        6.25766037638890
N           -1.76851567303436       -1.45572700431238        6.47266716759723
C           -0.60566520781508       -0.79299541516265        6.38648916457867
C            0.47019823597955       -1.27095114375752        6.99296505003606
C            1.75774901819649       -0.87079348428604        6.92925915731627
C            1.90543769706905        0.16909806078403        5.99219882228789
C           -3.92282164295011        1.57727434292701        5.80238466921115
C           -5.03078784098415        0.80469331632247        5.57361826503673
C           -5.27814647660222       -0.53524693864485        5.87059034296594
C           -4.13297613855514       -1.28649792739496        6.21617341637470
O           -4.20346286395444        2.79647010395694        6.30272604965774
O           -3.57803655174629        2.01660494851158        3.25110648759252
C           -0.44044628486086        5.58349956083936        1.91557200966067
C           -6.45863393129533       -1.35838488365455        5.73129103651929
H            1.29566832489808        3.95960864445105        3.75176909396531
H           -2.89759757072642        4.50262125174393        2.58723230764633
H            2.87061708239976        0.65985977783844        5.86601759553075
H            0.20330271532505       -2.10738121866823        7.66468269678811
H           -4.20194642561454       -2.29584142668107        6.58884879262193
H           -5.81298976334383        1.52351691704458        5.28830106199753
O           -0.71912650831460        6.66399820217383        2.47346192655400
O            0.03098471966374        5.52804200071781        0.65395600298274
C           -0.17915249114017        6.57893580486352       -0.27871170582148
C            2.99297231696411       -1.32840359746523        7.56535340220666
O            2.91806775431295       -2.12888906824184        8.45887395661798
O            4.15963491621328       -1.04831051484909        7.02389320197465
C            5.30540695146875       -1.48469851955188        7.81730671446357
O           -7.48943945356398       -1.07273477186231        6.31018636822225
O           -6.29490946695673       -2.58733271125656        5.17010108713048
C           -7.50721135465972       -3.23392722677395        5.16220447302793
C           -3.22823800513875        3.34316277104335        7.26925171771061
C           -4.60107986650421        2.67478633900513        2.63826793921954
H           -7.75555687376418       -3.37892710379272        6.12348841690338
H           -7.59481725020149       -4.11774071061736        4.62819148154854
H           -8.17056422129409       -2.49530239405424        4.65472054657597
H            5.41288529184771       -2.59328976599908        7.97782163301886
H            5.23563204960692       -0.90046217150945        8.72349764303418
H            6.11301922754397       -0.94887788091478        7.19803136613889
H           -5.04138053627699        3.31630819543536        3.35785704177984
H           -5.14775395902851        1.73944906664583        2.48249559214581
H           -4.19289350486637        3.00791608636098        1.74268515454455
H           -2.27266108725831        2.94992929488874        7.64175587514384
H           -3.85004666576351        3.45559754289060        8.06034997970093
H           -3.12273205890413        4.36380781314879        6.94983201614192
H           -1.25203000317955        6.88326302394783       -0.78472340228617
H            0.53716170696382        6.39127599628519       -1.01590654188019
H            0.12884530381391        7.60133099652540        0.25265498246896
116
 energy: -22.592075254571 gnorm: 0.579837859361 xtb: 6.6.1 (8d0f1dd)
C           -2.34953037845102        0.12697658317598       -1.15189164759725
C           -1.64842611974800       -0.66817848063577       -0.18775037689296
C           -1.03617696813048        0.07538786311080        0.90483410459649
C           -0.75329144689975        1.45179455016428        0.73734845445268
C           -1.68332046977852        2.20195895597756        0.05677915337267
C           -2.45732471502004        1.57038398754704       -0.86518200189803
C           -0.31515216312412       -0.72640570057445        1.88583167118030
C            0.95319494493462       -0.22050809043525        2.25288766750715
C            1.27524154778717        1.12790850969443        2.05528383690482
N            0.37058984589764        2.05323197799590        1.45844028657554
C           -0.89126813255629       -1.93571010966171        2.37060309555956
C            0.15678006839312       -2.79634212653807        2.96747926066607
N            1.41053274037280       -2.47682519658141        3.26157043912920
C            1.77316404509084       -1.17373545180311        2.89655921206616
C            3.07244415144025       -0.65835097645138        3.20486445071531
C            3.44905699485551        0.67604961118080        3.10522344566322
C            2.52727567926823        1.53627844046283        2.43899154019823
C           -2.22189419396931       -2.40948093472610        2.73817849687036
C           -2.58054846027983       -3.70197943128226        3.06524195903197
C           -1.44087477565382       -4.47690526876831        3.68841909668934
C           -0.12333477390297       -3.92311116301114        3.79591783653191
O           -3.08028059146007       -1.36256743162933        2.54617580986629
O           -1.50288259365105       -2.05833364663644       -0.29023538517231
C           -3.37840881615254        2.62834650642510       -1.60004463652642
C           -1.59253255597052       -5.85502743174950        4.07859700873970
H           -1.60826308555631        3.26428268255357        0.06729476942096
H           -2.34302152064796       -0.33518081710523       -2.21987391869229
H            3.04266957154032        2.48647978477298        2.10720489570559
H            3.75698879198417       -1.25966463042610        3.65747633182689
H            0.80647550418886       -4.53434516345523        4.01600700264644
H           -3.52169130071641       -3.96481476398666        3.48487384361349
O           -3.00720634098353        3.72456607646741       -1.62683923781270
O           -4.60079395972906        2.22080855241799       -2.33345765056709
C           -5.05879941736086        3.39959600410471       -2.85869589849184
C            4.96218539881472        0.81091674786664        3.07754338801381
O            5.52137626604030        1.72020845777479        2.51418087834354
O            5.80399171426568       -0.06536932518530        3.67185889374274
C            7.18157528545522        0.23045256847009        3.67703760211199
O           -2.50662581918305       -6.31049591584215        4.80060855175554
O           -0.81579728136477       -6.76692203277980        3.54193681239468
C           -0.89460356802266       -8.09833946212717        4.00229315664315
C           -4.33723873979774       -1.47907327023016        3.35130139086346
C           -2.55372480043732       -3.09379353431824       -0.40411241441822
H           -0.72863995386404       -8.98106858081169        3.39692601747468
H           -1.97390876400164       -8.15771718410457        4.22935434694972
H           -0.51427050961033       -8.29595134802720        5.08495810211789
H            7.42171758669595        1.00135594953261        2.96797301839722
H            7.66468831519374       -0.74204806105534        3.46769173262534
H            7.68171082004996        0.51678939119499        4.77166168299475
H           -3.25051357347742       -2.73261661107047        0.29591022109182
H           -2.33393175896229       -4.19506152689702       -0.58968144028598
H           -2.87756043507804       -2.81993479369983       -1.41856489267082
H           -4.87725123480441       -0.53023601473848        3.28950748335167
H           -4.10617829448558       -1.54028218233358        4.41746642187814
H           -5.17265590839249       -2.31135675641624        3.09758810334422
H           -5.46448641686982        3.88040659611740       -1.87330909448484
H           -6.00866351669428        3.29692835283942       -3.43338545178933
H           -4.28222705793902        3.82586858229301       -3.42767739688606
C           -2.22988733502025        4.20146691536427        2.76678870884336
C           -2.39507260240242        2.93585358159745        3.31945424530099
C           -1.40020560393400        2.32171716735174        4.15918840143837
C           -0.19202002686412        2.97357724804072        4.31542554683224
C           -0.11630815231285        4.22724660176676        3.72798715145789
C           -1.09023524239650        5.04392934355258        3.16224415658711
C           -1.76561215766537        1.22735121760679        5.02108161944651
C           -0.62450576537034        0.53647675509069        5.52881896616908
C            0.60054796931040        1.16544371767375        5.39452808977726
N            0.87845383506860        2.47208184289258        4.92910466155965
C           -2.94958864155178        0.88507596313090        5.61241644652656
C           -3.11714477775146       -0.42967793540152        6.22939595744656
N           -2.05263908653126       -1.27205720931328        6.32570929447006
C           -0.80169766252358       -0.59031927000471        6.35115010693113
C            0.32001072776728       -1.19454859674787        6.90871569753400
C            1.50732218272387       -0.69019481969360        6.70413091683795
C            1.61176038035157        0.52460590806181        6.05012073996834
C           -4.20016219477037        1.53360293781335        5.50565106313011
C           -5.36760520952705        0.73332849972115        5.47426760372403
C           -5.54606906299164       -0.42343429211342        6.17767873986993
C           -4.37241304529245       -1.03503925246665        6.56759125447930
O           -4.59487725918342        2.96700501831465        5.51461345166375
O           -3.43904730946657        2.28464971276027        3.04642745377462
C           -0.98829275663457        6.31665303363621        2.26338925768611
C           -6.86844742695262       -1.13172272435573        6.08527288221337
H            0.86488999037154        4.61324679421151        4.11275395262820
H           -3.04618178920016        4.73464965919744        2.41620906564407
H            2.61200090383128        0.84460250398082        6.04620057783696
H            0.20078808552622       -2.34211495142595        7.04221366382834
H           -4.31264175008639       -2.03746624935299        6.93349696084527
H           -6.39045126209030        1.18210523351901        5.10114119803726
O           -1.61652383907668        7.31240218207592        2.41662978020729
O            0.00205735983451        6.16531111546844        1.23400618651168
C            0.14950585762241        7.21259128983925        0.42250919341247
C            2.86572718634782       -1.31321611108002        6.99168602483673
O            3.35927236745636       -2.02879813361141        6.15386627583824
O            3.45379039788533       -1.06472052614983        8.19536149431095
C            4.76663328359747       -1.44598746070205        7.89598825462706
O           -7.28255676140497       -2.08299862435708        6.81781401303274
O           -7.40951857663599       -0.93532371673740        4.85595394763282
C           -8.37596730871105       -1.94065320809412        4.64735532953347
C           -3.75451258358933        3.57784351177773        6.45998480118514
C           -4.57558148612165        2.94401726736918        2.37321960542515
H           -7.99436949473407       -2.88063968260738        4.44820212177885
H           -9.13985927188315       -1.63752786026678        3.97185319488854
H           -8.81314256950994       -2.30710703134159        5.66097550737734
H            5.20310966145577       -0.52841500752245        7.58910444358866
H            4.87340821538308       -2.48839663665316        7.32742236582674
H            5.24556367017714       -1.58563479128397        8.83557243374278
H           -4.69586579797042        3.97975619290283        2.71583460542106
H           -5.41594831062848        2.21247762883397        2.02912826109053
H           -4.11300550845732        3.16904770792020        1.38442163810450
H           -3.20816521626341        3.04395267869249        7.19696232238946
H           -4.54163180858027        3.95525614894878        7.12229371200944
H           -3.11823820691012        4.36848480279745        5.96580977572251
H           -0.56917736730034        7.23651684745427       -0.47907406850403
H            1.12997331703335        7.37299491798941        0.05521380410903
H            0.23109956366893        8.22973285847590        1.00597144946014
116
 energy: -22.593480544870 gnorm: 0.548466605067 xtb: 6.6.1 (8d0f1dd)
C           -2.92760382729450       -0.05176743233108       -0.73917433870812
C           -2.10593645195035       -0.89943402058003       -0.02753384202969
C           -1.02795072653048       -0.34722942341502        0.87085033887184
C           -0.69003588396931        1.10643695530094        0.85061459474726
C           -1.58733544940121        2.00613577416566        0.12887457654444
C           -2.62350739980362        1.41370096615377       -0.72772875696782
C           -0.26030131403572       -1.18177483502845        1.83856671300907
C            0.95082435277644       -0.61020649984818        2.21251026273676
C            1.30135009067970        0.73517038579795        1.97146288323373
N            0.44636464448965        1.60882326340734        1.39341531904530
C           -0.66980640392869       -2.46433865289874        2.41179799598174
C            0.37062896366904       -3.15455012470131        3.08255005611114
N            1.62200919374527       -2.67821401465605        3.23819619047844
C            1.89613745953576       -1.42952051699742        2.79537281799023
C            3.22417198331205       -0.93983024583746        3.23500130283571
C            3.44571044856686        0.53714246514574        3.20225054480407
C            2.40853668682392        1.29773219772659        2.57356483622904
C           -2.03833093532017       -2.79981025018079        2.71352171403370
C           -2.30380782763186       -4.16799620230146        3.03701896763270
C           -1.31907984081365       -5.09242157975163        3.29924509332039
C           -0.08500323306370       -4.43458700826049        3.51547090910598
O           -3.01948245547203       -1.79828331079644        2.59072946616422
O           -2.08602894738103       -2.29672290113730       -0.21069688318852
C           -3.69317418968925        2.28040634283190       -1.20469088323650
C           -1.55148040589036       -6.55948419470141        3.46800932259713
H           -1.67828798425778        2.99832819229612        0.42414178307046
H           -3.84379491361699       -0.48270925278231       -0.98797868224161
H            2.38598079001831        2.45810615375682        2.67103588862216
H            3.95392203372168       -1.53991140219048        3.65223854722808
H            0.54693908810211       -5.19209382611837        3.83760586099401
H           -3.26579089341765       -4.73138328276351        3.02467575826823
O           -4.58469042302874        2.77205024337391       -0.54375103062521