116
 energy: -22.928061455056 gnorm: 0.329736929581 xtb: 6.6.1 (8d0f1dd)
C           -3.31122850772930        0.79849766164622       -0.92477639677520
C           -2.44380812530352       -0.12270372891954       -0.27661132624697
C           -1.41337090092821        0.39579727573559        0.56335275196199
C           -0.89266158675590        1.65801491088749        0.27377586709581
C           -1.72665675402493        2.51431363229076       -0.49448366572522
C           -2.95444148494349        2.13954154133227       -1.01494489940871
C           -0.74098268209890       -0.43411532818871        1.49825021926784
C            0.56872586496315        0.03782116815119        1.86248088067890
C            1.03782416582094        1.29402317993033        1.50887470833621
N            0.31238977034758        2.07067427098208        0.65193736800696
C           -1.29695700510141       -1.39996043042223        2.41574187746061
C           -0.38243517664656       -2.18060797534842        3.13232615520648
N            0.91308504082021       -1.90366887689689        3.30325166013478
C            1.37712470144904       -0.74872102533751        2.81811050966982
C            2.52149331701875       -0.17739833758153        3.39379298866852
C            2.95849061756259        1.02681208890480        2.95105897606587
C            2.24288949469137        1.78498308775960        2.03503020483770
C           -2.74860936222260       -1.74497937691422        2.38401158947411
C           -3.09416315450955       -2.91614440870436        3.00571134491758
C           -2.16786021984049       -3.77788778654213        3.63251872101904
C           -0.85708937311598       -3.40495313382985        3.68547234358092
O           -3.71994433332149       -0.94984598373544        1.67726658385724
O           -2.55702603277562       -1.47241711578389       -0.57241635275616
C           -3.84297843593025        3.13357444054366       -1.60938954875544
C           -2.68769581069131       -5.03867041417370        4.30484659386931
H           -1.39666850744143        3.51251503834900       -0.76806311868865
H           -4.27662633836220        0.55105838579656       -1.33106614114542
H            2.66329581305412        2.73912661909249        1.72562431984580
H            3.05775395548473       -0.69369546277216        4.16536137542516
H           -0.24710966264510       -4.12034095424229        4.22946223699121
H           -4.11477991332403       -3.04712728052358        3.03244694615357
O           -4.21824883374556        4.03433712717988       -0.87713382485991
O           -4.44510595673734        2.90643496899600       -2.81853501752979
C           -5.44216520282800        3.83300025693726       -3.02488532025093
C            4.23586651889298        1.50004220933226        3.59165660008449
O            5.05927614697201        0.66079890002952        3.91714215179376
O            4.47001334453535        2.86385149488593        3.72605651435371
C            5.79457498613219        3.08584475587818        4.15829123132174
O           -3.82227255313510       -5.27347675879771        4.16636005494405
O           -1.85023202017753       -5.79767454267276        5.06656077253571
C           -2.55119635829503       -6.86252441382958        5.62930343183426
C           -5.07197156564436       -1.42399175670916        1.58830531863830
C           -1.33089900128490       -2.23622472573986       -0.99264499351172
H           -2.54510546830388       -7.76426885143998        4.99136022291012
H           -3.57194749219491       -6.44405511486021        5.74196173723541
H           -2.09133598235598       -7.02043774843818        6.64022264233588
H            5.72707967266424        3.46798026205549        5.10135971236643
H            6.34060091246885        3.78468702308830        3.50069950143490
H            6.17933064298187        2.03010500085905        4.19342358084693
H           -0.91862729772622       -2.57650129080332       -0.01361370304871
H           -0.49769766914251       -1.60651221708571       -1.34094446550576
H           -1.52632419730509       -2.94569707152159       -1.75361447637286
H           -5.11788846557077       -2.41810833635233        1.17520213188926
H           -5.67929807973498       -0.69619639428435        1.04301666067831
H           -5.57598832326623       -1.42383358739762        2.57928294206544
H           -6.13050215934830        3.76035386975488       -2.23272855695873
H           -5.86615610071888        3.45938329385866       -4.02668959924245
H           -5.13479557532099        4.87790991548477       -2.98314551356402
C           -1.38192942069774        3.73616555005018        2.91232598411686
C           -1.84821468128685        2.59982427735607        3.49755545445181
C           -1.05946531454833        2.05730632010638        4.60922730982276
C            0.19893954712228        2.69376791964407        4.86302140881997
C            0.50425395911860        3.94630308659851        4.28768785650746
C           -0.26031777722226        4.46998310053134        3.25072669343212
C           -1.20488993561782        0.74454293276906        5.14851520323437
C           -0.06287609782692        0.02744069315890        5.60930570802864
C            1.19208754369866        0.71421540266195        5.78882868583885
N            1.19428660993148        2.06344359410476        5.62744624321596
C           -2.41361422770794        0.07928500213936        5.25249410304426
C           -2.45851584031083       -1.32662100968547        5.60237876023992
N           -1.29466212405906       -1.98318595734370        5.89916817085159
C           -0.14475655767527       -1.32117560077092        5.98824682881008
C            0.97209270935794       -1.98958449505532        6.53157704134458
C            2.21982707914082       -1.36973967291181        6.68703967237737
C            2.30561929262884       -0.09745313075593        6.26436900324455
C           -3.73018485967715        0.71367583494582        5.25810242262992
C           -4.89964478833448       -0.06184623426677        5.21204641615509
C           -4.82617965800088       -1.39228978090841        5.46901303780036
C           -3.67144193418464       -1.98914944386360        5.67265433266067
O           -3.75568638935321        2.07705011038914        5.52067969627343
O           -2.94192434743730        1.91263938797883        3.01658762327703
C            0.21273512614467        5.50086066357994        2.34765104514621
C           -6.06660304520411       -2.17604633098929        5.80641622556876
H            1.41756699010566        4.38133362238595        4.66974005703471
H           -1.82880610647429        4.11982501512100        2.06992133318584
H            3.26888037378556        0.32655662585251        6.31721410015598
H            0.87146188387207       -3.08471526305024        6.57830423410869
H           -3.67716811065157       -3.05999292755990        5.83019634570050
H           -5.77379677507622        0.43595144608221        4.71017130754348
O            1.34459852619901        5.82615848916894        2.44941456579099
O           -0.74718748219123        6.07961784856304        1.59848183464284
C           -0.21473095568964        7.24015934882472        1.05753806029483
C            3.53228080814219       -2.00967610361154        7.02506769044485
O            3.64093082622715       -3.14437803815732        7.50071391725347
O            4.56565258381079       -1.22937033368332        6.69086985080897
C            5.72579357310716       -1.80692399125161        7.22246151275881
O           -7.04801223588612       -1.95726935745904        5.14194115322235
O           -6.01514389321278       -2.93743591896022        6.94765316328794
C           -7.21292732384718       -3.62681918543340        7.15115816329978
C           -4.95459780685163        2.65960679932188        5.86868674392943
C           -3.68284113682406        2.59129188358641        2.05479246020704
H           -7.43119628931628       -4.22607794725959        6.20622607140901
H           -8.06548455146707       -2.91765848248592        7.29781126410398
H           -7.07314693247270       -4.33087306029711        7.91223421050944
H            6.57332189837178       -1.29353136199234        6.78341268688262
H            5.74663761932316       -2.84282155125561        6.88089468184451
H            5.69426191474290       -1.72781984964892        8.29460302186842
H           -4.10481209541493        3.44288266176275        2.60483747673152
H           -4.49244774344916        1.87419893016926        1.82433103764650
H           -3.18901540870812        2.85154642679373        1.06781919454921
H           -5.55414326821421        2.76698137191684        4.93950725322359
H           -4.78658370641210        3.62090640967288        6.25983200635257
H           -5.43485580473958        1.97242995129449        6.65265772412460
H            0.89164886030839        7.38838561720231        1.13776105146914
H           -0.62894889903848        8.04195665205089        1.64837664327952
H           -0.59282546386754        7.45699159724320        0.03719083132488
116
 energy: -22.858220172286 gnorm: 0.388478467007 xtb: 6.6.1 (8d0f1dd)
C           -2.35353457475145        0.64554395789970       -1.03939892087516
C           -1.66336232928299       -0.30224786312897       -0.24369006357203
C           -0.76564895779483        0.23742488222531        0.69235422986746
C           -0.30565702571584        1.55532287726294        0.52636984592390
C           -1.02019713587884        2.49733279260528       -0.34310262595924
C           -2.02004804140845        2.01218388193759       -1.11945661946796
C           -0.04882964746154       -0.59930898613237        1.55886459857556
C            1.26200500080739       -0.24505259374382        1.85848314211819
C            1.66835432842514        1.11294031663843        1.71612391374406
N            0.90215845694954        1.99563633824272        1.02981305164204
C           -0.62783233271315       -1.72388186761787        2.17090607863847
C            0.24000937978294       -2.54517030446809        2.93878662691857
N            1.57301306105438       -2.30150188195900        2.93401422639001
C            2.07514778859638       -1.17986742496951        2.48734193401017
C            3.45514360087913       -0.83452987124070        2.67254268316182
C            3.83827442763581        0.55545509827628        2.67394700050020
C            2.88640711884825        1.51258581718276        2.26768714998824
C           -2.04494176981117       -1.98318520345841        2.25698462004029
C           -2.44277167232749       -3.11238253210982        2.97965536253935
C           -1.54078162140102       -3.84125293821765        3.67748317764712
C           -0.21706206529986       -3.56210346518553        3.73397097256401
O           -2.99420543223753       -1.09921438796182        1.94816074453968
O           -2.12947199997411       -1.65720857512971       -0.39486099175092
C           -2.83051854292547        2.92459670295807       -1.94652390952483
C           -2.18039453382458       -4.75502376067456        4.62583993538731
H           -0.94307186886058        3.56563389298048       -0.58641031752116
H           -3.23592092499859        0.29589119818917       -1.59213138806009
H            3.26781074419761        2.45861923793398        2.04800157481227
H            4.18483446500678       -1.59491670876038        2.82546403459006
H            0.34343704966292       -4.18010651766736        4.40873682646195
H           -3.49654216233669       -3.25425793194331        2.99354317466933
O           -2.30353227544898        3.90867863552821       -2.30694253088305
O           -4.19581081886758        2.64344760402247       -2.11664063126772
C           -4.63356744375070        3.59039904767073       -2.98027105532531
C            5.27034920949551        1.01174364114702        2.90896373385539
O            6.13264214040904        0.18883995131383        2.55935153164206
O            5.27561776687872        2.33094650890085        3.20641032530877
C            6.63573229213867        2.75085566950555        3.10153436914174
O           -3.40215533613235       -4.77588557570111        4.89213067517103
O           -1.16946747313344       -5.36132733235596        5.32780693782800
C           -1.58135395396098       -5.87060806217515        6.56538012527768
C           -4.01682241057700       -0.79706536970572        2.92041596674396
C           -1.20832889742886       -2.55895925554292       -0.91551038821070
H           -1.92172145970842       -6.85094649426114        6.42618407686372
H           -2.33286328916219       -5.22691825561586        6.90649458558494
H           -0.70768600919480       -5.75006070972116        7.28469701295490
H            7.04665036426098        2.40003876371723        4.05096813226717
H            6.64306265992848        3.82932042092126        3.06124444545276
H            7.20025790915670        2.35362855814172        2.34956908106943
H           -0.83937669464067       -3.34685653287248       -0.27562455330413
H           -0.41788550147468       -2.02190902617809       -1.27152294267737
H           -1.57573953880975       -2.90412708703624       -1.83439836202751
H           -4.58985317779484       -1.67418007812541        3.27248635664101
H           -4.84567901082833       -0.22933024850022        2.46506149005853
H           -3.59924266523538       -0.30628008043304        3.82560703404341
H           -5.72093414366935        3.87955114469029       -2.90730717800074
H           -4.37796523136766        3.07758599652332       -3.89336105000821
H           -4.01590333145993        4.53012879562858       -3.03453139736489
C           -2.62650514745278        4.08236574356007        3.68348996983399
C           -2.64234621719691        2.68869284084698        3.96730918566960
C           -1.61080466724234        2.01597333217388        4.67580103314574
C           -0.37373808438705        2.65931966312171        4.61885821182559
C           -0.28628845664636        3.90605040726185        4.12713626613043
C           -1.39719758089149        4.64058585052058        3.73319623860646
C           -1.75369794009663        0.76475727268215        5.37739308880018
C           -0.58491117262127        0.07860525597623        5.66399137785365
C            0.61171293762231        0.76306598299438        5.47171383995147
N            0.82195077848087        2.08880552265653        4.99792494591239
C           -3.05310048304556        0.24177821650681        5.78473621798053
C           -3.01851102610095       -1.13300962790408        6.06067424994312
N           -1.88561207470494       -1.79801562341567        6.37942637237797
C           -0.65812717707335       -1.23701816004217        6.14382364962828
C            0.54426918280729       -1.87685920108311        6.40770295061565
C            1.76004642438792       -1.26985232336618        6.17748877413670
C            1.78059516311003        0.02285204236170        5.66333202699303
C           -4.24529507170913        1.05034248666625        6.08918915017330
C           -5.41155658142120        0.31358893598755        6.05375587274463
C           -5.49836880833370       -1.09268284471478        5.97162111701510
C           -4.31774052054102       -1.76492393756345        6.11453004787065
O           -4.24444717727016        2.47764474395338        6.37428314156789
O           -3.82511935373174        2.03783285098249        3.58085107432175
C           -1.15299584547561        5.88586657753266        2.94132671131878
C           -6.85188340627067       -1.74437425735861        5.71904282257728
H            0.69681489023836        4.28189147489460        3.99657204096019
H           -3.50711094445581        4.63329988508711        3.12959711802192
H            2.71750435077083        0.37754401653937        5.42698161906617
H            0.73117245659090       -2.84328590269348        6.78578366173976
H           -4.25501739984273       -2.86320539499143        6.25802995918005
H           -6.39053725536967        0.89627598762480        6.24078346300427
O           -0.19672041700932        6.61040620060851        3.27848921175707
O           -2.02305037679721        6.12774151807699        1.89207239037964
C           -1.85738750724223        7.41688693300229        1.34583828429267
C            2.94676494809777       -2.13805469487271        6.35606897201065
O            2.79907972463625       -3.32530843163695        6.69455440801866
O            4.14953359184186       -1.56665871346137        6.11167115547179
C            5.06504813912318       -2.56987330911792        5.88221264697371
O           -7.85384878496845       -1.23681446862079        6.17260719564168
O           -6.72475407579728       -2.91243156847749        5.11573781896826
C           -8.02316232266391       -3.40455893945034        5.10659584064304
C           -5.40689377973261        2.95109469573197        6.90157085067556
C           -4.40339996110390        2.47290762568201        2.41541035190544
H           -8.22094559861888       -3.60919989569491        6.12853346680952
H           -8.02777084100163       -4.37988410345831        4.62829278532621
H           -8.79126580240322       -2.83033346113235        4.73677149381370
H            6.10938282870735       -2.14862984246657        5.84854023523198
H            4.67054238952875       -3.04669895638443        4.96548941082533
H            5.08171787058891       -3.23569718813047        6.77669509560490
H           -5.10858064661482        3.34602219304947        2.35775095242996
H           -4.94600290406897        1.62324451871744        1.90626570750379
H           -3.57638653773363        2.54413104799459        1.77321615276769
H           -6.11110703788311        2.97082079121854        6.06263270453323
H           -5.14331377395446        4.02816498541682        7.15032425958135
H           -5.72765076876517        2.31928512414077        7.70469920164784
H           -2.88178764238649        7.89705187372703        1.22871231279973
H           -1.57486658355418        7.19477176165309        0.32856372685549
H           -1.05133775969686        7.93389612801172        1.82378172584126
116
 energy: -22.885966626530 gnorm: 0.405240100942 xtb: 6.6.1 (8d0f1dd)
C           -2.47352037014587        0.67476678996037       -0.46925971240250
C           -1.59557264672283       -0.27607112596971        0.08622009406167
C           -0.52343654320873        0.23515646602627        0.91346170627105
C           -0.13452811454935        1.55561846338953        0.89346290754084
C           -0.99933413761478        2.41268455966761        0.29363618074858
C           -2.19159724326586        2.07240154356214       -0.38220392287279
C            0.22890709963929       -0.53608952966723        1.85834976567575
C            1.53293476732825       -0.14093327879695        2.19226439763929
C            1.99041086354539        1.16396266508832        1.77717696251299
N            1.09709211374161        2.03346251618987        1.24055427488911
C           -0.19550050066433       -1.78439908848187        2.49641500873290
C            0.72214422815109       -2.62299781954102        3.16999161190733
N            1.96076097043749       -2.27046604247416        3.35450364960560
C            2.35012191819685       -1.03744520112378        2.92749630795117
C            3.68876916985589       -0.69585106782244        3.01308751903070
C            4.18455795498339        0.48181722271968        2.50854817729927
C            3.34077275139210        1.44087132647768        1.91563814690652
C           -1.59823126275444       -2.04492252311226        2.63568679282761
C           -2.01005618571325       -3.24183874221983        3.23008695424122
C           -1.11361193492903       -4.14021403266360        3.76760552725905
C            0.24150379362785       -3.82662387314955        3.70940912585644
O           -2.54069273924366       -1.02644706988669        2.31468506730558
O           -1.88342766093298       -1.55905241796959       -0.35067238274928
C           -2.97491876296539        3.22144485236570       -0.85730528294834
C           -1.57898941035098       -5.33575582087976        4.54376211138410
H           -0.63133361167714        3.40489936815541        0.30927073184389
H           -3.30833320028115        0.39363274648835       -1.08253870809586
H            3.83384973649404        2.33295007755283        1.54480618985375
H            4.37003184716214       -1.38009118830492        3.37183296770973
H            1.04351268805548       -4.53638020425375        3.95129855304157
H           -3.01857710774623       -3.41808180363215        3.50180305691047
O           -3.22008050274285        4.27304085068682       -0.22558115525251
O           -3.55919111955494        2.85132535934255       -2.05171506282391
C           -4.36613008552695        3.92345033650521       -2.54986660472681
C            5.65256865543756        0.75908047853129        2.58479247484949
O            6.43018623808565        0.09361263883182        3.25094096959360
O            6.05686186291499        1.83129834806163        1.90028245674615
C            7.51860946450517        1.87811032454515        1.65555322119507
O           -2.81861261721494       -5.38993706020965        4.77629875856935
O           -0.57328673591044       -6.18721311669188        4.75901305032055
C           -1.08017643740359       -7.33082334923363        5.27880531836900
C           -3.92666220077397       -1.19613349480619        2.49159930863117
C           -0.71435443227755       -2.47371700389605       -0.26135633583107
H           -0.59268068793305       -7.42546548866058        6.30705106171182
H           -0.64703378227037       -8.13614279781685        4.68126524256654
H           -2.18116932656296       -7.25796414661667        5.41432143128612
H            7.70228052028756        2.89313852225555        1.31701149139614
H            7.88719091133313        1.31679502931316        0.73008998214446
H            8.16391070205511        1.74193646849105        2.62722942478165
H           -0.76096476892170       -2.96305964381474        0.65534970532242
H            0.16921959942556       -2.06801906080036       -0.53480052501848
H           -0.98549244259646       -3.29497760636249       -0.92587869225139
H           -4.44767931312143       -0.46368520217238        1.83573690387742
H           -4.06918569911732       -1.07503584825934        3.55960240413443
H           -4.19833667854904       -2.20227649617661        2.04044640423840
H           -5.46901272697573        3.63002241103542       -2.62068550019494
H           -4.11224772545446        4.05351775560445       -3.60493562786473
H           -4.16665561674833        4.80767411229530       -1.93283943838753
C           -2.75602755021593        3.79637695894227        2.49985976632824
C           -3.05950205515798        2.69159522605705        3.31547570123834
C           -2.03239053276039        2.14810188080348        4.21169247152671
C           -0.68796398202434        2.61076288289569        4.16599791183764
C           -0.54782637707197        3.78991607761837        3.40036767749778
C           -1.50291320056666        4.41649811809285        2.64745487161590
C           -2.18975508956968        1.02616382744776        5.00597395274530
C           -1.04026409605800        0.30183020392057        5.40674212383690
C            0.30760545656271        0.75886601237470        5.09963656981350
N            0.46025417138000        1.95258054336188        4.41670906206362
C           -3.42708892443133        0.48127792468179        5.51195427926597
C           -3.42284702165753       -0.92055090738348        5.94829798345696
N           -2.26337897264283       -1.56825104912473        6.19093596375053
C           -1.04745626153640       -1.01064672553051        6.01325872468665
C            0.09271042871720       -1.75110843154532        6.30118713447940
C            1.34160351044345       -1.15201615720768        6.28320225855398
C            1.43005039882438        0.09848122084981        5.63387599222333
C           -4.57025194889360        1.26218638455817        5.78807865393860
C           -5.78359137216408        0.61760233998325        6.04017137853871
C           -5.84905424973591       -0.76886781997256        6.19430130036737
C           -4.62095384248149       -1.49007588294062        6.19414767839631
O           -4.50510989780256        2.65442661801237        5.69226970889414
O           -4.23132751275648        2.00663747407197        3.18333309784510
C           -1.27415710870239        5.85064701494564        2.10782926255947
C           -7.16092961021524       -1.57656949181021        6.10633904997617
H            0.39662913694947        4.33415337289927        3.57137113211685
H           -3.46967204510134        4.24488261946330        1.98691519308670
H            2.33574975067633        0.44633230784538        5.32508159604651
H           -0.07931598176291       -2.76517710865962        6.65562042698739
H           -4.57767347396610       -2.61217698718721        6.29284604791719
H           -6.70188389844229        1.20675978420287        6.13610042873990
O           -0.33787080269529        6.05678807734590        1.38730786225819
O           -2.22087241002478        6.82455226915972        2.31915362546946
C           -1.81696954723738        8.04208945426710        1.92397159440951
C            2.53323772076689       -1.93584441426601        6.73050284692026
O            2.42947444497261       -3.11143473840090        7.08019168693190
O            3.75169210577581       -1.28189455089887        6.47221512199013
C            4.84793992175967       -2.11304177025046        6.88822096347048
O           -8.21123369000120       -1.01418190242357        5.65641535114577
O           -7.06293128269662       -2.92192365512882        6.24771239033649
C           -8.26425546372484       -3.57445061352232        5.63919237312702
C           -5.47006517309296        3.36710816111993        6.48737127656214
C           -5.37020506314173        2.85850376411498        2.93795303834500
H           -8.74462317675928       -4.23580142448960        6.30739738770310
H           -8.20614927174728       -3.89685043232353        4.64161203844142
H           -8.98079629304397       -2.72196982282166        5.66868264682419
H            5.73042440482496       -1.53657950690284        7.10067219845670
H            5.05644957003740       -2.97637208070241        6.22965593706351
H            4.60193487342477       -2.57504076220559        7.83813754307048
H           -5.13401510904638        3.65892658093601        3.64457682990688
H           -6.21791467508257        2.31880776219764        3.17887383995583
H           -5.45716405567620        3.34815658935191        1.91612561856373
H           -6.42887352292852        3.38759344089339        5.94280983851292
H           -5.13108091869489        4.46779840456805        6.48100368364422
H           -5.49175911658802        2.95188359081368        7.37626712358675
H           -2.75495724947702        8.58881685139263        2.05996195737105
H           -1.71932706900901        8.06678621638203        0.85001726963878
H           -0.94150557155757        8.45597641053293        2.49277624656969
116
 energy: -22.887022014928 gnorm: 0.373874668749 xtb: 6.6.1 (8d0f1dd)
C           -2.31936189005689        0.97348341860190       -0.52150664779079
C           -1.49554141709660       -0.04557812908819        0.03685361020751
C           -0.43591100217070        0.37743122001949        0.92052791590649
C           -0.04335107942016        1.79097553151476        0.93518214767889
C           -0.69314108929205        2.70521170109615        0.05185984931033
C           -1.92752567478421        2.32438103225391       -0.48902794540112
C            0.23812419362664       -0.46242380392415        1.80983783580933
C            1.52130696604077       -0.09167847169816        2.27361281470746
C            1.88469647176285        1.27661067615406        2.05724821147577
N            1.10403621275148        2.23468422034290        1.53976658522017
C           -0.20011738806330       -1.74563279556534        2.32607162881537
C            0.79183543510400       -2.62157991386420        2.85128692240344
N            2.05053972736710       -2.33343215610446        3.12057483374002
C            2.43333818184020       -1.05223003457284        2.91086520077290
C            3.76094748160583       -0.72064256211882        2.93096571498387
C            4.25795948867090        0.56332431722028        2.58787372154763
C            3.28218085983464        1.44798317401715        2.21664325342643
C           -1.53359589209796       -2.19512989897740        2.57302616347657
C           -1.82650655102987       -3.51811212347816        2.87001552476859
C           -0.88202907883188       -4.45293128116207        3.12722474373106
C            0.37171588959864       -3.93780397107059        3.24494254003767
O           -2.43232887923681       -1.13165523185946        2.43537106573941
O           -1.44262015560610       -1.32756222045706       -0.50744876661121
C           -2.59234302577745        3.30182677373255       -1.34766356084043
C           -1.23460463838418       -5.82781900451881        3.64229831629562
H           -0.38005113573385        3.74443553523622        0.07580513413516
H           -3.10801371713441        0.67684421581859       -1.16426987290549
H            3.62336629399228        2.41433758934132        1.84957741927280
H            4.42370783648379       -1.45062218849588        3.33795602510321
H            1.18197310546230       -4.52246693722437        3.63584290055639
H           -2.86619380717456       -3.74969095894427        2.85177480116041
O           -2.04423759931496        4.29812076469491       -1.74185280067368