116
 energy: -22.928061455056 gnorm: 0.329736929581 xtb: 6.6.1 (8d0f1dd)
C           -3.31122850772930        0.79849766164622       -0.92477639677520
C           -2.44380812530352       -0.12270372891954       -0.27661132624697
C           -1.41337090092821        0.39579727573559        0.56335275196199
C           -0.89266158675590        1.65801491088749        0.27377586709581
C           -1.72665675402493        2.51431363229076       -0.49448366572522
C           -2.95444148494349        2.13954154133227       -1.01494489940871
C           -0.74098268209890       -0.43411532818871        1.49825021926784
C            0.56872586496315        0.03782116815119        1.86248088067890
C            1.03782416582094        1.29402317993033        1.50887470833621
N            0.31238977034758        2.07067427098208        0.65193736800696
C           -1.29695700510141       -1.39996043042223        2.41574187746061
C           -0.38243517664656       -2.18060797534842        3.13232615520648
N            0.91308504082021       -1.90366887689689        3.30325166013478
C            1.37712470144904       -0.74872102533751        2.81811050966982
C            2.52149331701875       -0.17739833758153        3.39379298866852
C            2.95849061756259        1.02681208890480        2.95105897606587
C            2.24288949469137        1.78498308775960        2.03503020483770
C           -2.74860936222260       -1.74497937691422        2.38401158947411
C           -3.09416315450955       -2.91614440870436        3.00571134491758
C           -2.16786021984049       -3.77788778654213        3.63251872101904
C           -0.85708937311598       -3.40495313382985        3.68547234358092
O           -3.71994433332149       -0.94984598373544        1.67726658385724
O           -2.55702603277562       -1.47241711578389       -0.57241635275616
C           -3.84297843593025        3.13357444054366       -1.60938954875544
C           -2.68769581069131       -5.03867041417370        4.30484659386931
H           -1.39666850744143        3.51251503834900       -0.76806311868865
H           -4.27662633836220        0.55105838579656       -1.33106614114542
H            2.66329581305412        2.73912661909249        1.72562431984580
H            3.05775395548473       -0.69369546277216        4.16536137542516
H           -0.24710966264510       -4.12034095424229        4.22946223699121
H           -4.11477991332403       -3.04712728052358        3.03244694615357
O           -4.21824883374556        4.03433712717988       -0.87713382485991
O           -4.44510595673734        2.90643496899600       -2.81853501752979
C           -5.44216520282800        3.83300025693726       -3.02488532025093
C            4.23586651889298        1.50004220933226        3.59165660008449
O            5.05927614697201        0.66079890002952        3.91714215179376
O            4.47001334453535        2.86385149488593        3.72605651435371
C            5.79457498613219        3.08584475587818        4.15829123132174
O           -3.82227255313510       -5.27347675879771        4.16636005494405
O           -1.85023202017753       -5.79767454267276        5.06656077253571
C           -2.55119635829503       -6.86252441382958        5.62930343183426
C           -5.07197156564436       -1.42399175670916        1.58830531863830
C           -1.33089900128490       -2.23622472573986       -0.99264499351172
H           -2.54510546830388       -7.76426885143998        4.99136022291012
H           -3.57194749219491       -6.44405511486021        5.74196173723541
H           -2.09133598235598       -7.02043774843818        6.64022264233588
H            5.72707967266424        3.46798026205549        5.10135971236643
H            6.34060091246885        3.78468702308830        3.50069950143490
H            6.17933064298187        2.03010500085905        4.19342358084693
H           -0.91862729772622       -2.57650129080332       -0.01361370304871
H           -0.49769766914251       -1.60651221708571       -1.34094446550576
H           -1.52632419730509       -2.94569707152159       -1.75361447637286
H           -5.11788846557077       -2.41810833635233        1.17520213188926
H           -5.67929807973498       -0.69619639428435        1.04301666067831
H           -5.57598832326623       -1.42383358739762        2.57928294206544
H           -6.13050215934830        3.76035386975488       -2.23272855695873
H           -5.86615610071888        3.45938329385866       -4.02668959924245
H           -5.13479557532099        4.87790991548477       -2.98314551356402
C           -1.38192942069774        3.73616555005018        2.91232598411686
C           -1.84821468128685        2.59982427735607        3.49755545445181
C           -1.05946531454833        2.05730632010638        4.60922730982276
C            0.19893954712228        2.69376791964407        4.86302140881997
C            0.50425395911860        3.94630308659851        4.28768785650746
C           -0.26031777722226        4.46998310053134        3.25072669343212
C           -1.20488993561782        0.74454293276906        5.14851520323437
C           -0.06287609782692        0.02744069315890        5.60930570802864
C            1.19208754369866        0.71421540266195        5.78882868583885
N            1.19428660993148        2.06344359410476        5.62744624321596
C           -2.41361422770794        0.07928500213936        5.25249410304426
C           -2.45851584031083       -1.32662100968547        5.60237876023992
N           -1.29466212405906       -1.98318595734370        5.89916817085159
C           -0.14475655767527       -1.32117560077092        5.98824682881008
C            0.97209270935794       -1.98958449505532        6.53157704134458
C            2.21982707914082       -1.36973967291181        6.68703967237737
C            2.30561929262884       -0.09745313075593        6.26436900324455
C           -3.73018485967715        0.71367583494582        5.25810242262992
C           -4.89964478833448       -0.06184623426677        5.21204641615509
C           -4.82617965800088       -1.39228978090841        5.46901303780036
C           -3.67144193418464       -1.98914944386360        5.67265433266067
O           -3.75568638935321        2.07705011038914        5.52067969627343
O           -2.94192434743730        1.91263938797883        3.01658762327703
C            0.21273512614467        5.50086066357994        2.34765104514621
C           -6.06660304520411       -2.17604633098929        5.80641622556876
H            1.41756699010566        4.38133362238595        4.66974005703471
H           -1.82880610647429        4.11982501512100        2.06992133318584
H            3.26888037378556        0.32655662585251        6.31721410015598
H            0.87146188387207       -3.08471526305024        6.57830423410869
H           -3.67716811065157       -3.05999292755990        5.83019634570050
H           -5.77379677507622        0.43595144608221        4.71017130754348
O            1.34459852619901        5.82615848916894        2.44941456579099
O           -0.74718748219123        6.07961784856304        1.59848183464284
C           -0.21473095568964        7.24015934882472        1.05753806029483
C            3.53228080814219       -2.00967610361154        7.02506769044485
O            3.64093082622715       -3.14437803815732        7.50071391725347
O            4.56565258381079       -1.22937033368332        6.69086985080897
C            5.72579357310716       -1.80692399125161        7.22246151275881
O           -7.04801223588612       -1.95726935745904        5.14194115322235
O           -6.01514389321278       -2.93743591896022        6.94765316328794
C           -7.21292732384718       -3.62681918543340        7.15115816329978
C           -4.95459780685163        2.65960679932188        5.86868674392943
C           -3.68284113682406        2.59129188358641        2.05479246020704
H           -7.43119628931628       -4.22607794725959        6.20622607140901
H           -8.06548455146707       -2.91765848248592        7.29781126410398
H           -7.07314693247270       -4.33087306029711        7.91223421050944
H            6.57332189837178       -1.29353136199234        6.78341268688262
H            5.74663761932316       -2.84282155125561        6.88089468184451
H            5.69426191474290       -1.72781984964892        8.29460302186842
H           -4.10481209541493        3.44288266176275        2.60483747673152
H           -4.49244774344916        1.87419893016926        1.82433103764650
H           -3.18901540870812        2.85154642679373        1.06781919454921
H           -5.55414326821421        2.76698137191684        4.93950725322359
H           -4.78658370641210        3.62090640967288        6.25983200635257
H           -5.43485580473958        1.97242995129449        6.65265772412460
H            0.89164886030839        7.38838561720231        1.13776105146914
H           -0.62894889903848        8.04195665205089        1.64837664327952
H           -0.59282546386754        7.45699159724320        0.03719083132488
116
 energy: -22.800198858001 gnorm: 0.439952469094 xtb: 6.6.1 (8d0f1dd)
C           -2.77760546401542        1.07740082708581       -1.12375452580053
C           -2.08964733361621        0.10529240767018       -0.37261011514576
C           -1.16564135459201        0.41060633606625        0.65324085418232
C           -0.61583047735987        1.75749598696155        0.63134313720247
C           -1.37771696725682        2.74581784736065       -0.09288807921771
C           -2.44842585577028        2.44812601273698       -0.90420993352405
C           -0.44803146585251       -0.55888178060127        1.53880151733016
C            0.86238508918555       -0.21670414895191        1.79924179688247
C            1.31758945418899        1.11775463008272        1.57996538256005
N            0.66656876586744        2.16197576296255        0.97764514439337
C           -0.97329887993599       -1.57333922630335        2.40133762793661
C           -0.07092009449651       -2.44070913684231        3.13604025585239
N            1.23127379140980       -2.14817010051297        3.34439116592561
C            1.65837726777917       -0.99885630759421        2.78785414463815
C            3.00192335794438       -0.58480417452452        3.10290846929672
C            3.36260872620902        0.68100780725184        2.67508538522994
C            2.54707060430428        1.58386528126264        1.96916843462130
C           -2.26955131528951       -2.04764843091856        2.19995751752843
C           -2.65221488052107       -3.30996846015524        2.65980264651711
C           -1.82505327013077       -4.11009409732910        3.40283706564757
C           -0.54573310134412       -3.62427601572262        3.63277517252945
O           -3.21350008003886       -1.08068749466169        1.70205721121980
O           -2.30318345950569       -1.20640984815313       -0.84955559457178
C           -3.37014085506955        3.39344220845544       -1.56766280480866
C           -2.31531813742536       -5.30066826467722        4.07590035043953
H           -1.23534506924827        3.80452158126189       -0.11675687014868
H           -3.59269699326570        0.96981953252029       -1.86926233709497
H            2.91198509443988        2.57027213015940        1.81736683682142
H            3.71282509255549       -0.74723903928862        4.04552907747012
H            0.12648497458359       -4.31208498187949        4.15070747262965
H           -3.57273902826139       -3.66554052262416        2.38001349581679
O           -3.17042383054094        4.60015122713935       -1.69432435085790
O           -4.62897561216986        2.80448442038257       -2.00030970173650
C           -5.56847494815029        3.71562961808160       -2.51703103232113
C            4.70026287891948        1.11416606894379        3.30051317931367
O            5.39880099271488        0.40567167255854        4.07431670137579
O            5.15931344732526        2.31017351096114        2.92314769348637
C            6.31682083650569        2.58828678835309        3.57237591610678
O           -3.41066571712053       -5.86933528508210        3.71945459179853
O           -1.61968601560042       -5.72569576082694        5.11602177910787
C           -2.30990474371289       -6.46346874986960        6.07995051277642
C           -4.49497514204493       -1.32791151487630        2.11757408642070
C           -1.24264980228800       -1.82786018937733       -1.61678747106412
H           -2.34764619509558       -7.52211485182546        5.93542283239775
H           -3.40354472764578       -6.36529613567085        6.01184982457939
H           -1.65494225710137       -6.26029477422436        6.95967389286974
H            6.37185745719645        2.03079168826237        4.59031450556751
H            6.19671515076206        3.63573099558092        3.97757180086080
H            7.19289310567738        2.65856588380692        3.06211637418844
H           -0.40114616676588       -1.77443960001346       -1.00695109450280
H           -1.12165198964903       -1.03675349944861       -2.52468127576495
H           -1.50928306123907       -2.79047343262415       -1.93679355197528
H           -4.90734849796395       -2.25517193223129        1.67936785493693
H           -5.18570912797563       -0.68448337710237        1.60599287827822
H           -4.41168308016667       -1.31029311990829        3.17086249304733
H           -5.91804688488656        4.39686127792534       -1.68321364686964
H           -6.38329767346757        3.26497686424739       -3.05835623907358
H           -5.09359719489292        4.51871946738524       -3.06584604331934
C           -2.12073467001955        3.70755034457232        2.92140222231501
C           -2.29695970405440        2.48410910464448        3.67336739175267
C           -1.32029167129324        2.13409617248778        4.59186061062513
C           -0.08213557470595        2.74690798745274        4.58421083248096
C            0.09712302285177        3.92441137229787        3.81850634123188
C           -0.90101080789893        4.32218252268865        2.96012309800388
C           -1.54417027697144        0.92615715818895        5.36267809966124
C           -0.33246331352249        0.19987584250016        5.61020156399481
C            0.90991483122278        0.80827498130953        5.39941636420996
N            1.08887127220873        2.08115234796936        5.04951707899610
C           -2.72555350725379        0.27296496978955        5.84716296121335
C           -2.67026034079700       -1.10072660791297        6.00142878216622
N           -1.53095722224794       -1.81371188155064        6.02009168485790
C           -0.38875626827488       -1.14107407641910        6.03693035322520
C            0.80087124723280       -1.79102544915589        6.28788380107148
C            1.96005007838418       -1.12926139209275        6.35805453342492
C            2.04560473164138        0.13149763872070        5.81306999448355
C           -3.93856731111460        1.04897604060241        6.17461175664319
C           -5.11918717094184        0.33415606751050        6.00402555190438
C           -5.08910329332452       -1.07424012237362        5.87358455338360
C           -3.89191487478917       -1.75135519142817        5.90946759535346
O           -3.86523405600286        2.37157048779226        6.48445551843812
O           -3.39195849763027        1.71933951297256        3.52085448505607
C           -0.78696673128985        5.63928225552661        2.15576960559965
C           -6.31583529789999       -1.78662707382948        6.09542947081064
H            1.04226729667133        4.41665260049381        3.85119983162839
H           -2.87578211339066        4.13984538996809        2.40626789200036
H            3.03329905885022        0.50367408244415        5.79121973742077
H            0.89876650962319       -2.75916013418783        6.57216302991873
H           -3.79955188297272       -2.78151230172198        5.68891563715499
H           -6.07012298242188        0.74692673797989        5.84403560315732
O           -1.10717776241897        6.58560570327585        2.84308455262160
O           -0.12123507599655        5.52935804939042        0.87683809670468
C           -0.28692776603419        6.75321459837834        0.18440846883598
C            3.12675678342291       -1.84420745938618        6.88637279383779
O            3.02408121489940       -3.03567015379964        7.12847443380971
O            4.36217189410853       -1.20414699108661        7.00494302812296
C            5.23078556590945       -2.11765287333103        7.51111559302613
O           -7.24419862431305       -1.17588954160116        6.62878651888019
O           -6.24245813630965       -3.13798233297218        5.86152275594636
C           -7.51357047538700       -3.70234543570920        6.11423828529822
C           -5.02118402252501        3.01294405276656        6.97576200177227
C           -4.17702250503655        1.95738440269494        2.40477543639190
H           -8.21310342560648       -2.99990390814265        6.48462560134653
H           -7.28642932440713       -4.63763794283518        6.66052206520449
H           -7.91437011097310       -4.03304113104240        5.06801447122751
H            6.28761621089956       -1.77393074084243        7.14753428759433
H            4.95346978588359       -3.11015972603894        7.14867173030534
H            5.02475780156585       -2.11959145514830        8.65852663955060
H           -5.29583587783190        1.88518850651080        2.53733512441063
H           -4.05529460619077        1.04880854158222        1.86121052046900
H           -3.79454986231592        2.61387267252849        1.72988286850384
H           -5.93050064862349        2.59088564010274        6.52000257418004
H           -5.07817861692037        4.08862455187099        6.56586049796214
H           -4.88519447143105        2.97534536524952        8.07916598192606
H            0.44775434377556        7.50537258613357        0.58700582565302
H           -1.32328218959715        7.14541150044353        0.34309987682183
H           -0.19797060260290        6.58249456497518       -0.86181549556910
116
 energy: -22.847796499801 gnorm: 0.423174481401 xtb: 6.6.1 (8d0f1dd)
C           -2.86190894264854        0.58148026403329       -0.56994239626386
C           -2.15704256829818       -0.34782646744553        0.11819085514225
C           -1.14414854314434        0.14693078939245        1.05318194345583
C           -0.81451354574847        1.50634130452857        1.07961356026597
C           -1.56371182450167        2.39928864331410        0.29669941196864
C           -2.57883030388447        1.93979412757460       -0.44102009681831
C           -0.39954048420063       -0.79914609865171        1.84468758265895
C            0.93553834756207       -0.38687264492525        2.01985407643874
C            1.25229384518756        1.03032867340135        2.09413341168429
N            0.36427327193158        1.93777286759843        1.56723107120186
C           -0.83449236423800       -2.03514149899148        2.47289712691654
C            0.21272874543000       -2.95604422231014        2.92908846727212
N            1.47539048885474       -2.51876866372535        3.00438365541875
C            1.82096315959849       -1.31569552199968        2.58092994099025
C            3.07092180002841       -0.80102151601052        2.82642720270457
C            3.47448454982130        0.49261279398041        2.76845470678145
C            2.55825219614651        1.44857575019066        2.30397888523285
C           -2.23282560595323       -2.34745043167107        2.86416027689740
C           -2.55314062944249       -3.66931319215445        3.24304731569416
C           -1.53423233221853       -4.57598899305481        3.54143154070779
C           -0.20098567409616       -4.29094692551513        3.28624465599798
O           -3.09156800417562       -1.26440811404488        2.59201302232396
O           -2.24377696674297       -1.65404103270424       -0.36152929390412
C           -3.50089884234944        2.90089444016699       -1.07112682194490
C           -1.78583810410566       -5.82294824054436        4.51449598691002
H           -1.30637325715395        3.45215417011278        0.09211198785521
H           -3.36377288156205        0.18124103957070       -1.44097184339373
H            2.85309429156471        2.42223829880143        2.30416855085544
H            3.76566292515277       -1.48745856470526        3.28410240252424
H            0.49394089437451       -4.98368874223483        3.76952974992132
H           -3.55681307118149       -3.74729080082321        3.61006069799316
O           -3.37653302573162        4.07395592464461       -0.86972244218895
O           -4.42937524171588        2.37701614618149       -1.92765220876392
C           -5.10433657717111        3.34422877896319       -2.71898052265597
C            4.94564668005536        0.79480511233771        3.18064839454519
O            5.70682009233725       -0.15410209219013        3.45431767361626
O            5.31720831747371        2.08060440462966        2.84593619151793
C            6.73163133523220        2.27972096677068        2.60582437407298
O           -2.71075581519828       -5.66861456260154        5.13782653789904
O           -0.92638184155405       -6.82898577499772        4.63227606259361
C           -1.62911390258312       -8.01029250644580        5.05334105740856
C           -4.51820725133031       -1.49675142684480        2.68366905153794
C           -1.08019946945005       -1.95161931756710       -1.17884836847003
H           -2.69682205604945       -7.77258712310224        5.08799817778816
H           -1.27610367767065       -8.31194737082264        6.04706360673590
H           -1.51296130065314       -8.86085595198426        4.36898444212011
H            7.06683037646240        3.07972469643393        3.17463201074958
H            6.82460243318403        2.39347528231611        1.60839000360117
H            7.21273378207350        1.34575960278707        2.97015034734616
H           -1.03177690540284       -1.25190047389244       -2.12942737809098
H           -1.38554192629823       -2.93694869465876       -1.51160447043404
H           -0.11184393845597       -1.94494459964528       -0.83981371612728
H           -4.84474734016181       -1.96004960597422        1.78775307135843
H           -4.97070652479466       -0.51762126212176        3.03136721215025
H           -4.61224757653330       -2.26575883896563        3.45541501582782
H           -5.30162174159846        4.27869412906797       -2.16453436468562
H           -5.89241321237235        2.75880395653316       -3.27608197738290
H           -4.33400780488153        3.73979951837999       -3.36008027379135
C           -2.24194061665719        4.46163751783424        3.42800391545892
C           -2.45048081546758        3.18455995401485        3.89033966100268
C           -1.49015276893881        2.51973220022776        4.77378083132164
C           -0.17228180290994        3.06139218415465        4.78470742416307
C            0.09422440269275        4.29759497849787        4.08430281823969
C           -0.93162682998230        5.00984032624513        3.44221660980999
C           -1.69137463585106        1.29745073779960        5.39323908478981
C           -0.57270808351604        0.71440247330363        5.96809136625729
C            0.73221303981403        1.33338105470995        5.84932416996150
N            0.94651852010434        2.57402460078012        5.25225805882797
C           -2.96493251205630        0.65464654589948        5.63996261812769
C           -2.90811272522818       -0.75077388167090        5.91376103652165
N           -1.71960036293879       -1.41279142470864        6.01701630982032
C           -0.65493921937443       -0.66408948043869        6.28536778727000
C            0.57722083632385       -1.32416007959637        6.44626202161764
C            1.80063175366732       -0.71122237275387        6.52202502682559
C            1.90012525954277        0.63415312719369        6.20122681428157
C           -4.23453803270335        1.26988451837734        5.94279114908124
C           -5.37259519873592        0.45520009404658        5.89973661359141
C           -5.28610413464028       -0.95358871809295        5.79129445246062
C           -4.03074606637717       -1.54569043581302        5.87039829609961
O           -4.27375024830900        2.62839373343813        6.31605638275172
O           -3.59384755439389        2.53739574676382        3.49068852963468
C           -0.47363272616987        5.99500733946280        2.43428735142746
C           -6.55267832024998       -1.71109023067588        5.39138735801737
H            1.07477960205149        4.43643771058438        3.73517509271765
H           -3.02913246599420        5.02735393763659        2.98056187088956
H            2.84585645373723        1.06636139144518        6.34016433498265
H            0.48756337476352       -2.31438662542185        6.27964573970336
H           -3.88790746389076       -2.56692807949805        5.92606619260875
H           -6.27513078887225        0.95410839864710        5.89633232890292
O            0.71413668244326        6.36382708055194        2.55038243959377
O           -1.33113263705687        6.45249512859075        1.43252454855730
C           -0.60320182535702        7.07018843612305        0.43229263644091
C            2.97107386971728       -1.58788819228547        6.70655786139493
O            2.93976572469998       -2.69066859668709        7.20322628698558
O            4.00245681173958       -0.95142934144899        6.15991760201670
C            5.14457625793279       -1.70572740171706        6.01240548687525
O           -7.62003233992036       -1.34127089776949        5.87525899085947
O           -6.35469102451318       -2.74778858223268        4.47337555896048
C           -7.61510296603609       -3.42586403275564        4.33566412927608
C           -5.55429278448353        3.18767326780118        6.69073598928427
C           -4.63987617885962        3.41722325034143        2.99797925343602
H           -8.09098007536820       -3.54191559994716        5.36958247442363
H           -7.58610973369385       -4.47218782927085        3.88052190497824
H           -8.38331125593898       -2.82097444735366        3.82307440483716
H            5.30320597036791       -1.96287969214577        4.93426136497107
H            5.15392500120930       -2.58934178355971        6.67644900174958
H            5.90155784631850       -0.97809121890518        6.15576354164129
H           -5.57281100980033        2.92371920985477        2.75041821163374
H           -4.26589992576853        3.71014041200807        2.04181836910094
H           -4.69982549126073        4.15629149959367        3.78691119396381
H           -6.25758465316661        2.97615909519061        5.84377341628691
H           -5.41090459786575        4.19157145889158        6.92376625369992
H           -5.89542603174313        2.73725081786044        7.65854550905932
H           -1.14125173241931        7.58596824702978       -0.38957252762613
H           -0.11061605099402        6.21645642241517       -0.10697477208734
H            0.21984543834175        7.70343791224677        0.69401453331948
116
 energy: -22.814969167705 gnorm: 0.415145336303 xtb: 6.6.1 (8d0f1dd)
C           -3.21224109730105        0.42570412384546       -0.55614186821698
C           -2.35394815459787       -0.47704900243010        0.14507391615225
C           -1.36630348612659        0.04867714674025        1.05615031141998
C           -0.88466776131766        1.32133596133498        0.69770948326800
C           -1.60016164909623        2.11609330223469       -0.15605642268917
C           -2.80716371683781        1.74027995461552       -0.65316009054820
C           -0.50518696453012       -0.68497627149687        1.91895404177642
C            0.85531756099517       -0.26186639904706        1.99912429698027
C            1.24074276116062        0.91496140310733        1.52530197691998
N            0.33727255867904        1.79100035551225        1.06074488309508
C           -0.81839797204310       -1.86988942737834        2.71839213475641
C            0.24470553373836       -2.85513753761714        2.87720865260838
N            1.52487951751050       -2.44751126510281        2.91919260206378
C            1.76637633406253       -1.17933458550085        2.66333582354583
C            3.05167829911483       -0.78384626697795        2.94955738479485
C            3.47901624735803        0.46340486683701        2.55365833630815
C            2.62674117860495        1.30188747966973        1.73778641714691
C           -2.15502645777371       -2.28014071562999        2.76653416610893
C           -2.40598276537096       -3.63982896510426        3.04245337539115
C           -1.35389957343107       -4.51137239312679        3.49531914370443
C           -0.10067538058812       -4.09065984689252        3.37984671910943
O           -3.11570433505494       -1.30373126415599        2.55881761735834
O           -2.49463179100874       -1.93733466821406       -0.10190653616243
C           -3.63224859309125        2.72015772744291       -1.45328060882911
C           -1.61903730136637       -5.83321490489683        3.89281615341818
H           -1.19255036760594        3.16287094111981       -0.20256033339346
H           -4.25885354836832        0.19264071079598       -0.83445068050269
H            2.83386365896085        2.20096841646723        1.22906914766751
H            3.60663516211475       -1.48318185949372        3.58472712859727
H            0.65101820812005       -4.76998219773942        3.66039527115746
H           -3.33702554082203       -4.04354477460340        2.68380638612883
O           -3.03963244852156        3.76876262900270       -1.69861600832057