116
 energy: -22.928061455056 gnorm: 0.329736929581 xtb: 6.6.1 (8d0f1dd)
C           -3.31122850772930        0.79849766164622       -0.92477639677520
C           -2.44380812530352       -0.12270372891954       -0.27661132624697
C           -1.41337090092821        0.39579727573559        0.56335275196199
C           -0.89266158675590        1.65801491088749        0.27377586709581
C           -1.72665675402493        2.51431363229076       -0.49448366572522
C           -2.95444148494349        2.13954154133227       -1.01494489940871
C           -0.74098268209890       -0.43411532818871        1.49825021926784
C            0.56872586496315        0.03782116815119        1.86248088067890
C            1.03782416582094        1.29402317993033        1.50887470833621
N            0.31238977034758        2.07067427098208        0.65193736800696
C           -1.29695700510141       -1.39996043042223        2.41574187746061
C           -0.38243517664656       -2.18060797534842        3.13232615520648
N            0.91308504082021       -1.90366887689689        3.30325166013478
C            1.37712470144904       -0.74872102533751        2.81811050966982
C            2.52149331701875       -0.17739833758153        3.39379298866852
C            2.95849061756259        1.02681208890480        2.95105897606587
C            2.24288949469137        1.78498308775960        2.03503020483770
C           -2.74860936222260       -1.74497937691422        2.38401158947411
C           -3.09416315450955       -2.91614440870436        3.00571134491758
C           -2.16786021984049       -3.77788778654213        3.63251872101904
C           -0.85708937311598       -3.40495313382985        3.68547234358092
O           -3.71994433332149       -0.94984598373544        1.67726658385724
O           -2.55702603277562       -1.47241711578389       -0.57241635275616
C           -3.84297843593025        3.13357444054366       -1.60938954875544
C           -2.68769581069131       -5.03867041417370        4.30484659386931
H           -1.39666850744143        3.51251503834900       -0.76806311868865
H           -4.27662633836220        0.55105838579656       -1.33106614114542
H            2.66329581305412        2.73912661909249        1.72562431984580
H            3.05775395548473       -0.69369546277216        4.16536137542516
H           -0.24710966264510       -4.12034095424229        4.22946223699121
H           -4.11477991332403       -3.04712728052358        3.03244694615357
O           -4.21824883374556        4.03433712717988       -0.87713382485991
O           -4.44510595673734        2.90643496899600       -2.81853501752979
C           -5.44216520282800        3.83300025693726       -3.02488532025093
C            4.23586651889298        1.50004220933226        3.59165660008449
O            5.05927614697201        0.66079890002952        3.91714215179376
O            4.47001334453535        2.86385149488593        3.72605651435371
C            5.79457498613219        3.08584475587818        4.15829123132174
O           -3.82227255313510       -5.27347675879771        4.16636005494405
O           -1.85023202017753       -5.79767454267276        5.06656077253571
C           -2.55119635829503       -6.86252441382958        5.62930343183426
C           -5.07197156564436       -1.42399175670916        1.58830531863830
C           -1.33089900128490       -2.23622472573986       -0.99264499351172
H           -2.54510546830388       -7.76426885143998        4.99136022291012
H           -3.57194749219491       -6.44405511486021        5.74196173723541
H           -2.09133598235598       -7.02043774843818        6.64022264233588
H            5.72707967266424        3.46798026205549        5.10135971236643
H            6.34060091246885        3.78468702308830        3.50069950143490
H            6.17933064298187        2.03010500085905        4.19342358084693
H           -0.91862729772622       -2.57650129080332       -0.01361370304871
H           -0.49769766914251       -1.60651221708571       -1.34094446550576
H           -1.52632419730509       -2.94569707152159       -1.75361447637286
H           -5.11788846557077       -2.41810833635233        1.17520213188926
H           -5.67929807973498       -0.69619639428435        1.04301666067831
H           -5.57598832326623       -1.42383358739762        2.57928294206544
H           -6.13050215934830        3.76035386975488       -2.23272855695873
H           -5.86615610071888        3.45938329385866       -4.02668959924245
H           -5.13479557532099        4.87790991548477       -2.98314551356402
C           -1.38192942069774        3.73616555005018        2.91232598411686
C           -1.84821468128685        2.59982427735607        3.49755545445181
C           -1.05946531454833        2.05730632010638        4.60922730982276
C            0.19893954712228        2.69376791964407        4.86302140881997
C            0.50425395911860        3.94630308659851        4.28768785650746
C           -0.26031777722226        4.46998310053134        3.25072669343212
C           -1.20488993561782        0.74454293276906        5.14851520323437
C           -0.06287609782692        0.02744069315890        5.60930570802864
C            1.19208754369866        0.71421540266195        5.78882868583885
N            1.19428660993148        2.06344359410476        5.62744624321596
C           -2.41361422770794        0.07928500213936        5.25249410304426
C           -2.45851584031083       -1.32662100968547        5.60237876023992
N           -1.29466212405906       -1.98318595734370        5.89916817085159
C           -0.14475655767527       -1.32117560077092        5.98824682881008
C            0.97209270935794       -1.98958449505532        6.53157704134458
C            2.21982707914082       -1.36973967291181        6.68703967237737
C            2.30561929262884       -0.09745313075593        6.26436900324455
C           -3.73018485967715        0.71367583494582        5.25810242262992
C           -4.89964478833448       -0.06184623426677        5.21204641615509
C           -4.82617965800088       -1.39228978090841        5.46901303780036
C           -3.67144193418464       -1.98914944386360        5.67265433266067
O           -3.75568638935321        2.07705011038914        5.52067969627343
O           -2.94192434743730        1.91263938797883        3.01658762327703
C            0.21273512614467        5.50086066357994        2.34765104514621
C           -6.06660304520411       -2.17604633098929        5.80641622556876
H            1.41756699010566        4.38133362238595        4.66974005703471
H           -1.82880610647429        4.11982501512100        2.06992133318584
H            3.26888037378556        0.32655662585251        6.31721410015598
H            0.87146188387207       -3.08471526305024        6.57830423410869
H           -3.67716811065157       -3.05999292755990        5.83019634570050
H           -5.77379677507622        0.43595144608221        4.71017130754348
O            1.34459852619901        5.82615848916894        2.44941456579099
O           -0.74718748219123        6.07961784856304        1.59848183464284
C           -0.21473095568964        7.24015934882472        1.05753806029483
C            3.53228080814219       -2.00967610361154        7.02506769044485
O            3.64093082622715       -3.14437803815732        7.50071391725347
O            4.56565258381079       -1.22937033368332        6.69086985080897
C            5.72579357310716       -1.80692399125161        7.22246151275881
O           -7.04801223588612       -1.95726935745904        5.14194115322235
O           -6.01514389321278       -2.93743591896022        6.94765316328794
C           -7.21292732384718       -3.62681918543340        7.15115816329978
C           -4.95459780685163        2.65960679932188        5.86868674392943
C           -3.68284113682406        2.59129188358641        2.05479246020704
H           -7.43119628931628       -4.22607794725959        6.20622607140901
H           -8.06548455146707       -2.91765848248592        7.29781126410398
H           -7.07314693247270       -4.33087306029711        7.91223421050944
H            6.57332189837178       -1.29353136199234        6.78341268688262
H            5.74663761932316       -2.84282155125561        6.88089468184451
H            5.69426191474290       -1.72781984964892        8.29460302186842
H           -4.10481209541493        3.44288266176275        2.60483747673152
H           -4.49244774344916        1.87419893016926        1.82433103764650
H           -3.18901540870812        2.85154642679373        1.06781919454921
H           -5.55414326821421        2.76698137191684        4.93950725322359
H           -4.78658370641210        3.62090640967288        6.25983200635257
H           -5.43485580473958        1.97242995129449        6.65265772412460
H            0.89164886030839        7.38838561720231        1.13776105146914
H           -0.62894889903848        8.04195665205089        1.64837664327952
H           -0.59282546386754        7.45699159724320        0.03719083132488
116
 energy: -22.463019401949 gnorm: 0.608920821724 xtb: 6.6.1 (8d0f1dd)
C           -3.26309661385936       -0.26851484951347       -2.12290903226278
C           -2.62809302386302       -0.80549841805887       -0.94473182106547
C           -1.80345674936678       -0.13065248286156       -0.06151168879222
C           -1.42774640442296        1.27781856678681       -0.50093870539785
C           -1.70585489425149        1.56905793987397       -1.84776178557265
C           -2.70891637429700        0.89562900025871       -2.59970025891519
C           -1.29621790243723       -0.66326138121452        1.22931952115047
C           -0.12204869684955       -0.01480519419197        1.55720566809933
C            0.33486731164110        1.23020104551434        0.98236192634074
N           -0.35580468665502        1.83488140708147       -0.04238936118017
C           -1.74420941813339       -1.69056788348756        2.19758044018529
C           -0.66370963568814       -2.29123933196222        2.87723299215747
N            0.76040393434038       -1.92763065201708        2.85976555655083
C            0.90092174853030       -0.66263685967780        2.45555988221547
C            2.05479169479565        0.14224704592256        2.75139271234593
C            2.31222001441911        1.53113404108409        2.53731687104188
C            1.38490715279138        1.93067475035735        1.62247008376150
C           -2.96486677522990       -2.17629155136268        2.20111717815766
C           -3.24337172548853       -3.47066867353267        2.66854621258224
C           -2.19437270034162       -4.04586867835823        3.58273762028762
C           -0.95454308882287       -3.49966591591628        3.33926279185254
O           -4.02959434756440       -1.46111459294861        1.70430746257064
O           -2.68580418007013       -2.25372928584103       -0.71318139281466
C           -3.28032422025062        1.90647487179683       -3.61849620297532
C           -1.99726036735443       -5.44666236286083        4.22034870165815
H           -1.32958780889682        2.55719560567511       -2.46848180506837
H           -4.01766856279366       -0.74290402636534       -2.71384630848639
H            1.57850445862250        2.89457005662002        1.30881424253401
H            2.91512771301228       -0.22261548853115        3.27656760703935
H           -0.08446947463097       -3.95548508816431        3.89180598199947
H           -4.21961110314751       -3.79217860727913        2.71878352862031
O           -2.81753226546823        1.88223360795477       -4.71974269486690
O           -4.16927774935330        2.71725807522621       -3.14988052411338
C           -4.44241749720016        3.74359172870673       -3.99868469520386
C            3.35861615309613        2.40855800042442        3.29336198870215
O            3.77098304910544        2.16850694494816        4.45399310742040
O            4.09434197310176        3.19934388368370        2.31522913682834
C            5.35349771422252        3.51006166709317        2.68216115782559
O           -2.60415144563123       -6.42281744737880        3.86400308151310
O           -0.91760379146343       -5.39995417613130        5.01345727834824
C           -1.01425484387760       -6.61529679929658        5.89679766868061
C           -4.96634379479454       -2.28906878944811        1.12678306745122
C           -1.63656309971063       -3.40827033234581       -0.76644953683905
H           -1.99172614592813       -6.89878706676599        6.27783316546146
H           -0.27129842631344       -6.32580882849836        6.73731345083704
H           -0.73438135462674       -7.45800361638612        5.21972946556510
H            5.84120837299869        3.77212428765855        1.62154919965980
H            5.99355350703364        2.51891387109689        2.50667325525225
H            5.69174063900976        4.21229022318964        3.53977590354961
H           -1.26324875540855       -3.50034176110634       -1.87503825834805
H           -2.08115926057342       -4.32950165447858       -0.47412352980588
H           -0.78387320472672       -3.27627800235865       -0.20403614926103
H           -4.50346849553263       -2.54612670917167        0.17010992701802
H           -5.82733061864726       -1.58600500390885        0.90481269037606
H           -5.15166811634434       -2.99103434217857        1.96386504355723
H           -4.34923927536515        4.60500916117094       -3.43453500945125
H           -5.59636912812060        3.72196946323599       -4.37677326973303
H           -3.89954395121866        3.82728872372279       -4.99825104783489
C           -1.53882185038637        4.14100082079955        4.45603004561617
C           -1.90774710695048        2.81214730557887        4.87446540874677
C           -0.89877584475853        2.29481721998786        5.64708518563795
C            0.43279522222563        2.86831451138031        5.78562767795953
C            0.67923140998720        4.17518530127987        5.32552594204379
C           -0.36215000768675        4.85975232743241        4.62126102913924
C           -1.04269624554619        1.02491110510035        6.21560773545348
C            0.05587390682686        0.15352667537153        6.37087989115171
C            1.32114671378042        0.80439126525099        6.36403861971900
N            1.36128480367062        2.12466171243927        6.53977308947002
C           -2.33142063964983        0.39276681911971        6.42523614303203
C           -2.52388377013848       -1.00440595599752        6.08314245214893
N           -1.36096973821244       -1.69966480255740        5.96597514965488
C           -0.19191403446784       -1.23267589996503        6.46003955466634
C            0.97910891807221       -2.02204970046217        6.42279573533826
C            2.19692516415358       -1.51022652495127        6.72583377262050
C            2.38373618817538       -0.06289032609974        6.76389990514590
C           -3.44176138773026        1.32960883372652        6.77258215099653
C           -4.68541378189129        0.71857943550977        6.65308286211503
C           -4.81212884991141       -0.60857179059035        6.17177009370959
C           -3.80090396752470       -1.53452095417286        5.76818016097761
O           -3.11359949367309        2.69779294837436        7.04468101972640
O           -3.12547218828154        2.32942075545307        4.32772366330258
C           -0.05348213140447        5.98841051173721        3.83746233644939
C           -6.17820106007845       -0.82857877168050        5.59994646239698
H            1.44297068624559        4.79887871839650        5.47011630517685
H           -2.12361805616355        4.55218994035488        3.58404151635440
H            3.35276031141904        0.18214687108644        6.73212335323741
H            0.88842935444421       -2.98081597567625        5.91604838446669
H           -4.01743388239970       -2.55840348131600        5.45781671425112
H           -5.61921538525051        1.16643884502109        7.10139339371330
O            1.05898935730525        6.01841636682819        3.32252574743331
O           -0.94332943894680        6.89321804036599        3.53016612684828
C           -0.50581358369887        7.82667754361360        2.51436036851831
C            3.41100294814775       -2.36480604818385        6.82984959572141
O            3.60336671952620       -3.35030245262623        7.51777695367287
O            4.68779865793647       -2.11091014534625        6.18855763206898
C            5.67366329599425       -2.91791501284992        6.44755407678250
O           -6.80576371955001        0.24345658244644        5.58455452895846
O           -6.69375830687187       -2.03310319430540        5.05773351686929
C           -8.15205225039522       -1.81423415244905        4.81935814031750
C           -4.08579610095965        3.42457343591047        7.88894016766650
C           -3.15196716409229        1.16128850641692        3.75766623734023
H           -8.88573023770902       -2.58122056670417        4.87896711516575
H           -8.09747540500642       -1.18127665114576        3.98227107071145
H           -8.19962246790586       -1.23770061760540        5.81150709634211
H            6.14482421000593       -2.67442762157557        7.36680088973888
H            6.44571658924881       -2.63837281376492        5.66435203552051
H            5.12532307312534       -3.93793287296301        6.37653762162299
H           -2.40133690305714        1.31699964663099        2.82339479782667
H           -4.14954043462497        1.12205217111341        3.16606840840465
H           -2.87826113155823        0.39494380938241        4.54944713749521
H           -3.54776085241797        4.25409560089695        8.69754345066980
H           -4.64513227165362        2.60303796932178        8.47411162941187
H           -4.88683587321476        3.53750338342046        6.97558981120120
H           -0.98171335988264        7.48849099275500        1.63327615934037
H            0.41275206241611        7.55074814670119        2.31838515302261
H           -0.27163653406370        8.84674697981408        3.03675008932121
116
 energy: -22.469117793513 gnorm: 0.570771751708 xtb: 6.6.1 (8d0f1dd)
C           -3.18973112568976       -0.45775068646760       -1.76423893905968
C           -2.33161903913724       -0.88241246128456       -0.73015711602718
C           -1.30808237572393       -0.07705299664841       -0.28257949015063
C           -1.12083534155181        1.22779495403130       -1.11348669827209
C           -1.89114236366332        1.57917183206966       -2.13137944469910
C           -3.03617245594488        0.75720144869365       -2.40264625254977
C           -0.83698666797514       -0.23269298776215        1.10636215471885
C            0.37462441708726        0.48674269401140        1.34875854752527
C            0.59335874315725        1.68799602526214        0.46044448859912
N           -0.20492238433208        2.13450858170263       -0.60694204808088
C           -1.24032160316514       -1.03216479569175        2.31669541413356
C           -0.20449059298682       -1.47139234077167        3.13244336660313
N            1.07428490831408       -1.03433453660462        3.25502229636334
C            1.32400105575407        0.05403273058423        2.40297077130111
C            2.56556301499197        0.60534348639181        2.44490926091777
C            2.65610751134807        1.92321170680371        1.82671820527078
C            1.61575654624794        2.48974060565223        0.98891900488168
C           -2.62345876275091       -1.57043637493228        2.56976290450877
C           -2.83986803263869       -2.75523034793113        3.23755108613192
C           -1.65508765649370       -3.26751229767283        3.82277030146026
C           -0.43084695009266       -2.75611225182675        3.73483409114988
O           -3.62440953666237       -1.01546732002276        1.86003492391612
O           -2.50154151139654       -2.32953330183694       -0.49855918851698
C           -3.80544516166032        0.81256484966568       -3.62600850415702
C           -1.66488981183329       -4.70326056840757        4.29436660864508
H           -1.20996325043852        2.07647556249645       -2.95700100228902
H           -3.94103214060272       -1.22083085728526       -2.05615232904194
H            1.80884981736825        3.32075526236286        0.39017857335364
H            3.51840182173216        0.26573023031675        2.95453205985615
H            0.39769756752903       -3.63244685105709        3.68225724182099
H           -3.52022402549922       -3.57759010955429        3.03644496757533
O           -3.84580209313926        1.73319284293031       -4.38725855187548
O           -4.71037878762888       -0.23039966310004       -3.94387269346735
C           -5.14123323636427        0.02696447071877       -5.32832095070531
C            3.40650566778622        2.91909999685628        2.61483805584896
O            4.37206994680785        2.48589310509672        3.27858492158375
O            3.05065483934951        4.21174189883801        2.55244195689305
C            4.07648207083823        5.03203284558477        1.96818221721551
O           -2.44334527134894       -4.99517344627652        5.27735111096392
O           -0.95158456354941       -5.54897579578959        3.49059578003641
C           -0.94651277001617       -6.76168922112630        4.10554167097782
C           -4.89179698969517       -0.51477122505523        2.54428431610605
C           -1.54520542131113       -2.94838987479129        0.44269721203884
H           -1.85472042767886       -7.41173891873198        3.68416723392185
H           -0.61022598665369       -6.36483623508869        5.16655454556326
H           -0.04758679860513       -7.09639167156333        3.69072925815712
H            4.01265699148044        5.83137074995847        2.64118100672285
H            3.91389865953097        5.23742982832766        0.92002859448316
H            5.04851390963491        4.64220091274323        2.02070571757105
H           -1.89352212437191       -3.18659558836693        1.56546390363581
H           -0.59059089557775       -2.51083587747397        0.41104851397450
H           -1.37468659112199       -3.96780723626234        0.14356833812977
H           -5.60784028059562       -0.20217426616994        1.78327186831337
H           -4.58305674853986        0.29537500259040        3.07989550902656
H           -5.23688343554188       -1.31904640850105        3.22617903038011
H           -5.70956123896240        0.97666419372670       -5.20252048270360
H           -5.73548424570348       -0.77962611137423       -5.68354349586662
H           -4.14786753961760        0.36426797842434       -5.88102993436286
C           -1.08176776179627        4.24770817513416        4.35732030894229
C           -1.37645825814311        2.85268285503514        4.20539110884584
C           -0.54092411165431        1.71903302250785        4.94729300968664
C            0.80864012426786        2.28993496013563        5.43278123447671
C            1.00101827862698        3.69855754930181        5.69751397299770
C            0.09822111862832        4.60678178190205        5.16069548779005
C           -1.19268517545948        0.55011437599111        5.47110450935411
C           -0.33612651216864       -0.13008186062102        6.33836823503405
C            0.98097646253616        0.33767997418519        6.70676309717714
N            1.49387667477786        1.57915548885612        6.36745490745480
C           -2.62644182346262        0.25302876509301        5.68166855541580
C           -2.86584534277268       -1.05515890133497        6.10292948226730
N           -1.93504719044115       -1.93404403103547        6.62867055577379
C           -0.70111927380706       -1.45144871625391        6.85005341341620
C            0.31105569499952       -2.36410862272594        7.20855289503507
C            1.60134483708302       -1.92244870047966        7.15728772966261
C            1.95172653815550       -0.57388160320172        7.03876755927726
C           -3.64652527126657        1.24197675198158        5.54072217079332
C           -4.91303081681604        0.66599256221046        5.38934075782786
C           -5.16467843900698       -0.76127587448114        5.68370789931616
C           -4.14772990434202       -1.71451066746171        5.96860741559289
O           -3.42282952600147        2.65999354376079        5.79310587214717
O           -2.26180899145226        2.53114539475465        3.26038386552138
C            0.54176217049947        5.97600214326820        5.48453928893066
C           -6.54547746019561       -1.30321321600683        5.81989237532435
H            1.47966727136764        4.16777527027027        6.51465214948805
H           -1.47731646261496        5.15688782483983        3.72518777191530
H            2.93432911926129       -0.38211674944921        7.13662897175510
H            0.28031309876562       -3.48380651416960        7.14659877051796
H           -4.38151503760280       -2.70466094751692        6.17061435456283
H           -5.64711657542282        1.35823606473479        5.61587511732919
O            1.64980012353982        6.17586179094949        6.09466360942407
O           -0.27459367344605        6.89490694205956        4.79591612269841
C            0.52790927699911        7.93549112114083        4.47766671975771
C            2.55228956113552       -2.96214612172894        6.74405433726631
O            2.26007331766001       -4.11946121528456        6.24256841116273
O            3.77747291484731       -2.74827910318574        7.18644405919246
C            4.62490751393600       -3.81579933111241        7.35221438683691
O           -6.90150621978359       -1.88303275948552        6.88718767991365
O           -7.39352835164371       -1.51226085044792        4.71829160040324
C           -8.50059207726197       -2.11173239944434        5.01728327639310
C           -2.78324019929894        2.91248728408406        7.13170500351483
C           -2.56265520525751        3.47620378554283        2.31118580820814
H           -9.34423833147098       -1.52197941544295        5.12318693560883
H           -8.60669260212807       -2.55187667262533        6.08374976917684
H           -8.51120385603521       -2.67611693473716        4.13568031316230
H            4.19401404425544       -4.46205230470937        8.27942644012978
H            5.63344189400357       -3.41422939229823        7.25606920802803
H            4.48497930714207       -4.45872121838052        6.49021854189072
H           -1.76887633437656        4.21533135952013        2.26543639313160
H           -3.57954626710533        3.94278014228339        2.68140365954255
H           -2.28610536894182        2.93223262716204        1.25252657873601
H           -3.26072002171791        3.54056171033142        7.98113642625827
H           -2.17003421334436        3.79036363232377        6.65223603002019
H           -2.10305331698091        2.26115199792328        7.68619068717903
H            0.40555969394714        8.31620473338414        3.47336386415794
H            1.43497126953227        7.72770776142424        5.10498333012332
H            0.27173284363191        8.71043485461463        5.34111168146475
116
 energy: -22.568477130669 gnorm: 0.567297129713 xtb: 6.6.1 (8d0f1dd)
C           -2.67606402553072       -0.41051282504645       -2.85172538041764
C           -1.84497473090057       -0.82931863513476       -1.76493378475812
C           -1.72907187481807        0.09956234426350       -0.55489604728934
C           -1.81067371418995        1.56080909735476       -0.91536609015735
C           -2.85987727595486        1.81421606019256       -1.84884483974400
C           -3.18896037500262        0.92667166772992       -2.91928408339099
C           -1.15350242174636       -0.25445499522951        0.58091573390307
C           -0.32814569859232        0.72672525885150        1.15126949032470
C           -0.44663047821654        2.08727180968966        0.76965346200866
N           -1.28455265891384        2.54597763071255       -0.21598691988996
C           -1.07964867868861       -1.57009416215520        1.38663911115884
C            0.12837387959177       -1.77036251392545        2.32623706457662
N            1.08133771814419       -0.87151858485218        2.44989551142363
C            0.72755356756436        0.42356701910257        2.18770955350213
C            1.51914872445546        1.52653850869721        2.58224833329987
C            1.43580372244586        2.82299637646301        2.15023300146821
C            0.38968219380405        3.03202855923348        1.32873654442539
C           -2.07389660977927       -2.62518095188215        1.15760395925319
C           -1.77270280015106       -3.84376544165913        1.86704902941511
C           -0.92142542629477       -3.79036777498069        3.01307782466340
C            0.07969802857468       -2.88247419299457        3.14440300316754
O           -3.05946065062952       -2.07173575769807        0.29839843910560
O           -1.06205536969148       -1.95939209292241       -2.01208479486473
C           -4.38180100905763        1.08135529187486       -3.67882170472845
C           -1.08018257590037       -4.73998885168047        4.11530974990161
H           -3.69327527873556        2.46781749645070       -1.58007999100556
H           -3.01346133564097       -0.99438920573888       -3.69168929805014
H            0.16992477429378        3.94746893118650        0.73478615699965
H            2.61999028547034        1.23171312228257        2.97901058826656
H            0.78464763713085       -2.80838168418049        4.05507799080773
H           -2.54859773918106       -4.60636756497102        1.85576032289061
O           -5.26382909465058        1.83932758071755       -3.25811776676262