116
 energy: -22.928061455056 gnorm: 0.329736929581 xtb: 6.6.1 (8d0f1dd)
C           -3.31122850772930        0.79849766164622       -0.92477639677520
C           -2.44380812530352       -0.12270372891954       -0.27661132624697
C           -1.41337090092821        0.39579727573559        0.56335275196199
C           -0.89266158675590        1.65801491088749        0.27377586709581
C           -1.72665675402493        2.51431363229076       -0.49448366572522
C           -2.95444148494349        2.13954154133227       -1.01494489940871
C           -0.74098268209890       -0.43411532818871        1.49825021926784
C            0.56872586496315        0.03782116815119        1.86248088067890
C            1.03782416582094        1.29402317993033        1.50887470833621
N            0.31238977034758        2.07067427098208        0.65193736800696
C           -1.29695700510141       -1.39996043042223        2.41574187746061
C           -0.38243517664656       -2.18060797534842        3.13232615520648
N            0.91308504082021       -1.90366887689689        3.30325166013478
C            1.37712470144904       -0.74872102533751        2.81811050966982
C            2.52149331701875       -0.17739833758153        3.39379298866852
C            2.95849061756259        1.02681208890480        2.95105897606587
C            2.24288949469137        1.78498308775960        2.03503020483770
C           -2.74860936222260       -1.74497937691422        2.38401158947411
C           -3.09416315450955       -2.91614440870436        3.00571134491758
C           -2.16786021984049       -3.77788778654213        3.63251872101904
C           -0.85708937311598       -3.40495313382985        3.68547234358092
O           -3.71994433332149       -0.94984598373544        1.67726658385724
O           -2.55702603277562       -1.47241711578389       -0.57241635275616
C           -3.84297843593025        3.13357444054366       -1.60938954875544
C           -2.68769581069131       -5.03867041417370        4.30484659386931
H           -1.39666850744143        3.51251503834900       -0.76806311868865
H           -4.27662633836220        0.55105838579656       -1.33106614114542
H            2.66329581305412        2.73912661909249        1.72562431984580
H            3.05775395548473       -0.69369546277216        4.16536137542516
H           -0.24710966264510       -4.12034095424229        4.22946223699121
H           -4.11477991332403       -3.04712728052358        3.03244694615357
O           -4.21824883374556        4.03433712717988       -0.87713382485991
O           -4.44510595673734        2.90643496899600       -2.81853501752979
C           -5.44216520282800        3.83300025693726       -3.02488532025093
C            4.23586651889298        1.50004220933226        3.59165660008449
O            5.05927614697201        0.66079890002952        3.91714215179376
O            4.47001334453535        2.86385149488593        3.72605651435371
C            5.79457498613219        3.08584475587818        4.15829123132174
O           -3.82227255313510       -5.27347675879771        4.16636005494405
O           -1.85023202017753       -5.79767454267276        5.06656077253571
C           -2.55119635829503       -6.86252441382958        5.62930343183426
C           -5.07197156564436       -1.42399175670916        1.58830531863830
C           -1.33089900128490       -2.23622472573986       -0.99264499351172
H           -2.54510546830388       -7.76426885143998        4.99136022291012
H           -3.57194749219491       -6.44405511486021        5.74196173723541
H           -2.09133598235598       -7.02043774843818        6.64022264233588
H            5.72707967266424        3.46798026205549        5.10135971236643
H            6.34060091246885        3.78468702308830        3.50069950143490
H            6.17933064298187        2.03010500085905        4.19342358084693
H           -0.91862729772622       -2.57650129080332       -0.01361370304871
H           -0.49769766914251       -1.60651221708571       -1.34094446550576
H           -1.52632419730509       -2.94569707152159       -1.75361447637286
H           -5.11788846557077       -2.41810833635233        1.17520213188926
H           -5.67929807973498       -0.69619639428435        1.04301666067831
H           -5.57598832326623       -1.42383358739762        2.57928294206544
H           -6.13050215934830        3.76035386975488       -2.23272855695873
H           -5.86615610071888        3.45938329385866       -4.02668959924245
H           -5.13479557532099        4.87790991548477       -2.98314551356402
C           -1.38192942069774        3.73616555005018        2.91232598411686
C           -1.84821468128685        2.59982427735607        3.49755545445181
C           -1.05946531454833        2.05730632010638        4.60922730982276
C            0.19893954712228        2.69376791964407        4.86302140881997
C            0.50425395911860        3.94630308659851        4.28768785650746
C           -0.26031777722226        4.46998310053134        3.25072669343212
C           -1.20488993561782        0.74454293276906        5.14851520323437
C           -0.06287609782692        0.02744069315890        5.60930570802864
C            1.19208754369866        0.71421540266195        5.78882868583885
N            1.19428660993148        2.06344359410476        5.62744624321596
C           -2.41361422770794        0.07928500213936        5.25249410304426
C           -2.45851584031083       -1.32662100968547        5.60237876023992
N           -1.29466212405906       -1.98318595734370        5.89916817085159
C           -0.14475655767527       -1.32117560077092        5.98824682881008
C            0.97209270935794       -1.98958449505532        6.53157704134458
C            2.21982707914082       -1.36973967291181        6.68703967237737
C            2.30561929262884       -0.09745313075593        6.26436900324455
C           -3.73018485967715        0.71367583494582        5.25810242262992
C           -4.89964478833448       -0.06184623426677        5.21204641615509
C           -4.82617965800088       -1.39228978090841        5.46901303780036
C           -3.67144193418464       -1.98914944386360        5.67265433266067
O           -3.75568638935321        2.07705011038914        5.52067969627343
O           -2.94192434743730        1.91263938797883        3.01658762327703
C            0.21273512614467        5.50086066357994        2.34765104514621
C           -6.06660304520411       -2.17604633098929        5.80641622556876
H            1.41756699010566        4.38133362238595        4.66974005703471
H           -1.82880610647429        4.11982501512100        2.06992133318584
H            3.26888037378556        0.32655662585251        6.31721410015598
H            0.87146188387207       -3.08471526305024        6.57830423410869
H           -3.67716811065157       -3.05999292755990        5.83019634570050
H           -5.77379677507622        0.43595144608221        4.71017130754348
O            1.34459852619901        5.82615848916894        2.44941456579099
O           -0.74718748219123        6.07961784856304        1.59848183464284
C           -0.21473095568964        7.24015934882472        1.05753806029483
C            3.53228080814219       -2.00967610361154        7.02506769044485
O            3.64093082622715       -3.14437803815732        7.50071391725347
O            4.56565258381079       -1.22937033368332        6.69086985080897
C            5.72579357310716       -1.80692399125161        7.22246151275881
O           -7.04801223588612       -1.95726935745904        5.14194115322235
O           -6.01514389321278       -2.93743591896022        6.94765316328794
C           -7.21292732384718       -3.62681918543340        7.15115816329978
C           -4.95459780685163        2.65960679932188        5.86868674392943
C           -3.68284113682406        2.59129188358641        2.05479246020704
H           -7.43119628931628       -4.22607794725959        6.20622607140901
H           -8.06548455146707       -2.91765848248592        7.29781126410398
H           -7.07314693247270       -4.33087306029711        7.91223421050944
H            6.57332189837178       -1.29353136199234        6.78341268688262
H            5.74663761932316       -2.84282155125561        6.88089468184451
H            5.69426191474290       -1.72781984964892        8.29460302186842
H           -4.10481209541493        3.44288266176275        2.60483747673152
H           -4.49244774344916        1.87419893016926        1.82433103764650
H           -3.18901540870812        2.85154642679373        1.06781919454921
H           -5.55414326821421        2.76698137191684        4.93950725322359
H           -4.78658370641210        3.62090640967288        6.25983200635257
H           -5.43485580473958        1.97242995129449        6.65265772412460
H            0.89164886030839        7.38838561720231        1.13776105146914
H           -0.62894889903848        8.04195665205089        1.64837664327952
H           -0.59282546386754        7.45699159724320        0.03719083132488
116
 energy: -22.732252805444 gnorm: 0.465871185220 xtb: 6.6.1 (8d0f1dd)
C           -3.00239199541936        0.27986294919072       -1.40348441470269
C           -2.25104579385485       -0.61417673542622       -0.60282309085325
C           -1.15659621503914       -0.12973780047251        0.28269064749144
C           -0.81096864554124        1.26317731932617        0.04059003082213
C           -1.65170932787312        2.12431090475330       -0.76112476180103
C           -2.55919616777915        1.57377270735541       -1.59126171343601
C           -0.38383837522611       -0.88643665964643        1.21602203061229
C            0.77951828229422       -0.32635119592064        1.66202110673837
C            1.02034264131388        1.04201550867083        1.33722338963512
N            0.12743024109453        1.86406994560315        0.71429472241074
C           -0.94530701155665       -2.00240002573418        1.88502355519169
C           -0.08966284287950       -2.83281575555988        2.60212380838040
N            1.12858102107893       -2.35824407154635        2.98918184868275
C            1.52221677408214       -1.10705454975665        2.61440204312463
C            2.59883662705802       -0.51144670357844        3.25649994226606
C            2.96555619157057        0.77309936268702        2.83217367624291
C            2.08858956663156        1.56496920701013        2.04173499639900
C           -2.41537665560960       -2.16127973959424        2.10029604823593
C           -2.94479409009626       -3.41524919480490        2.60586529842606
C           -2.05759490196828       -4.23051587791326        3.27879860909481
C           -0.67680314276689       -3.98823165705495        3.21818402892022
O           -3.27750975781630       -1.13293050893584        1.82405896090541
O           -2.71209150630398       -1.95355562681330       -0.52911188952095
C           -3.52025047712637        2.69943575428206       -1.88258955251111
C           -2.46769148185831       -5.45732049567709        3.96589460618195
H           -1.46553958295444        3.18006773821877       -0.80254852748395
H           -3.93134493642378       -0.11831965549024       -1.77188491672976
H            2.69419081359471        2.42608691854491        1.66937985254306
H            3.26587881762203       -0.95850121729857        3.97952439416271
H           -0.13466692793171       -4.85463770247665        3.35000139591235
H           -3.97375064905149       -3.80207011584163        2.37585502621503
O           -3.02735930595376        3.69057006750719       -2.25920290521217
O           -4.85611167347858        2.38420428821527       -1.94667727371323
C           -5.68200424597320        3.48760968811672       -2.32676802901520
C            4.16465650937804        1.35646916569662        3.42156477365204
O            4.49220892375119        0.92732898851449        4.52771915973113
O            4.80006505582262        2.49394414053870        2.81369525740342
C            5.43714357492498        3.38559021641931        3.69691074000316
O           -3.61212017904745       -5.44095986609732        4.49287991746447
O           -1.63785128202582       -6.55320388830778        4.06483877430485
C           -2.21514019051802       -7.79588287643568        4.11819551024753
C           -4.61407972344544       -1.15239687896730        2.01706407492998
C           -1.70303391287165       -2.83390172317264       -0.82072178658618
H           -3.00855293728884       -7.86215584161650        3.32519685352632
H           -2.90355125661198       -7.66092895634566        5.07849008836171
H           -1.51957246838333       -8.76739795407525        4.24653615443801
H            5.06497010071307        3.06954190849920        4.80045517307616
H            5.56859145731670        4.38121623904486        3.04508463887614
H            6.51787316023680        3.05012475603288        3.63268990860042
H           -0.78001835226962       -2.78867175577230       -0.14565156985609
H           -1.55010774441578       -2.63013969064064       -1.88938461710283
H           -2.05812772068358       -3.77033923158516       -0.50425586989624
H           -5.03304571672555       -2.15470259476141        1.84242074821052
H           -5.23313130549594       -0.38648342987398        1.67483756928883
H           -4.79191403805225       -0.88983553692550        3.04739204852596
H           -6.61783707268648        3.26153461521266       -2.81322617630473
H           -5.16412372134373        4.18490182261631       -3.01055495301829
H           -5.99257665762665        3.95087395262090       -1.30102700558348
C           -1.73316355146260        4.17737970809607        3.44265651326003
C           -2.09274888762008        3.14442442099043        4.31627678264013
C           -1.05097859030466        2.55261563210378        5.16421985511067
C            0.29461124999947        3.09127897017885        5.10525739496803
C            0.60142995720289        4.13045130015667        4.18736795698165
C           -0.40767179539665        4.63886342458918        3.34624794507233
C           -1.25071338752199        1.31986798161901        5.85306141890965
C           -0.08441749411518        0.53929830022516        6.17917580188754
C            1.16597932587838        1.12188734456295        6.04978612963352
N            1.27380230165562        2.49362962138317        5.89308817486110
C           -2.50628386259834        0.58762029859717        6.08045679621705
C           -2.45189344944454       -0.88089843652600        6.09366383420684
N           -1.35352077969348       -1.63507924719986        6.34759799086846
C           -0.25028882780892       -0.86364722928533        6.48060701053534
C            0.96308974926930       -1.46099335715150        6.76417635237844
C            2.18874256586300       -0.90515225266268        6.76750101211962
C            2.29980241090458        0.40403695119616        6.41624315322236
C           -3.69044456093211        1.29217100902355        6.54283049073114
C           -4.91949557250001        0.63849057959104        6.27809498262766
C           -4.94529359992224       -0.63779335692275        5.75377739792369
C           -3.75052097701981       -1.43706590698817        5.66649778346942
O           -3.50635244219127        2.50008666577442        7.26629598158125
O           -3.43137248100578        2.86486493879498        4.17120667639495
C           -0.10527739696929        5.57111845420315        2.28081615108535
C           -6.45506213461661       -1.07744362200753        5.41203024488759
H            1.55985505296592        4.60534283846688        4.06088153551816
H           -2.29671132314080        4.61407090286495        2.74477797761260
H            3.23727036628416        0.89298774125860        6.44997411147961
H            0.96053817783186       -2.54601784402834        6.89271269049647
H           -3.86971565872172       -2.54212204298098        5.63077998604403
H           -5.89046827996635        1.04109017511867        6.44037767768062
O            0.79864907024425        6.48461062165623        2.40263871474378
O           -0.80386950815178        5.45618133737398        1.16663384281996
C           -0.41188426200505        6.32649680249418        0.15514881690453
C            3.32840904275704       -1.71026989466851        7.29148924966864
O            3.36857633713684       -2.88552741300315        7.33723546832511
O            4.59061553059386       -1.14877124684555        7.61499702225950
C            5.67490201333891       -1.76283677623972        6.99665564357161
O           -7.34054600028755       -0.70547603820796        6.19651067563692
O           -6.41874379844877       -1.80046276201910        4.28063971447806
C           -7.62385435565571       -2.60840555479652        4.19451863817259
C           -4.64218948125770        2.98202279283694        7.95542218419132
C           -3.71721530550047        1.71538026744797        3.39365350420737
H           -8.40708971781332       -1.96907806125696        4.17351596008199
H           -7.64186245645688       -3.09151742111855        5.20822199271909
H           -7.54887448307773       -3.27797729675481        3.35650481222821
H            5.42094501597390       -2.74500080973998        7.08943077494088
H            6.56319931328732       -1.36146164964586        7.63851303908488
H            5.68607810359608       -1.29706464973019        5.95882918760876
H           -4.59622403617657        1.19484163803331        3.80849926536225
H           -2.89987411318624        1.06599478202551        3.39466258692187
H           -4.16269886045281        1.92238911432788        2.43976882553919
H           -5.53201808690294        2.44431003471260        7.71410072317072
H           -4.61523439485421        4.05215204883828        8.00688755384738
H           -4.42166387236226        2.61203759410057        8.96735593424755
H           -0.00913139816923        7.29468875365113        0.61803830781540
H           -1.13695885429322        6.77088387950356       -0.61102042291474
H            0.25655124461166        5.78348823033544       -0.57488926408944
116
 energy: -22.718359492627 gnorm: 0.481807939858 xtb: 6.6.1 (8d0f1dd)
C           -3.44061020398292        0.63968620476858       -0.94778744103812
C           -2.60283761078794       -0.28437409351854       -0.15220373028454
C           -1.62045684130689        0.32547040766181        0.76060951996930
C           -0.98128709246573        1.58219912793436        0.38663531607778
C           -1.69994937545915        2.29501663331672       -0.47826906106130
C           -2.89290788555723        1.86319220376157       -1.04186819186986
C           -0.92329984885641       -0.46405823338723        1.78021989988781
C            0.42919260369506       -0.07669875080116        1.93444955930854
C            0.95512369492820        1.26961363648098        1.52789118792812
N            0.21413951364234        2.03564033638309        0.80398361436618
C           -1.26724499141517       -1.62081957472903        2.43041441346725
C           -0.21809089723770       -2.42007250386086        3.15457692943496
N            1.09179171902875       -2.16202850304705        3.02254181241456
C            1.45274606726878       -0.90882559912923        2.66647584033103
C            2.79363710284409       -0.43930677928529        2.86878135892363
C            3.18385651966525        0.83497993752187        2.45321032277366
C            2.21666810346879        1.75350457988543        1.97270702298151
C           -2.56077405427298       -2.14577618479573        2.47033412820024
C           -2.80931962376204       -3.52335417287444        2.81782082425226
C           -1.75115659368741       -4.20922081672192        3.40146106728303
C           -0.47756407068633       -3.75731899321235        3.54398005264765
O           -3.47600045881981       -1.11672950132820        2.18512358119623
O           -2.62845726025047       -1.80338571513908       -0.20964911312751
C           -3.75128901242341        2.80671175810857       -1.94701206825636
C           -1.97802316590100       -5.45925842275214        4.02044590001033
H           -1.46031011026853        3.30993784086016       -0.54415973763340
H           -4.29178939693041        0.36648060235769       -1.57606877286560
H            2.46428637568155        2.79849641463535        1.95189446104732
H            3.47449594724513       -1.07959721848819        3.33440729525052
H            0.29477540427902       -4.21852923793636        3.94941954181299
H           -3.75212244993243       -3.99903816632030        2.93112673739650
O           -4.11214169752155        3.80650520040808       -1.30076782601773
O           -3.73456393262050        2.68206169155081       -3.26945991064353
C           -4.67050877061029        3.49842991580917       -4.04402922111946
C            4.58865873089096        1.33470114718920        2.55723192218996
O            5.50550115188945        0.87440064055885        1.94359977545296
O            4.56778465215663        2.38173238556076        3.48188894897864
C            5.94606392734620        2.78070445909239        3.83931393523457
O           -3.05392632775122       -5.81581524165021        4.45522485874391
O           -0.96213163444736       -6.34314308388551        3.80175736546262
C           -1.14020029854398       -7.68031102826188        4.43392939217863
C           -4.77954255910037       -1.49034315883047        2.59336969730904
C           -1.46667701345977       -2.35993960744716       -0.82868404976790
H           -1.89550906958534       -8.16491117334084        3.81330964640245
H           -1.70713873971100       -7.53266408638388        5.27330314494138
H           -0.19097804966698       -8.12608205850513        4.63757141141263
H            5.85884533583740        3.86373166175162        3.70868325175788
H            6.52579047831913        2.55699064312424        3.00985387870598
H            6.24473612366183        2.05953889692128        4.68428292669172
H           -1.61329433935011       -3.51860780854649       -0.80500380860229
H           -0.63030753013099       -2.30320362900703       -0.10440499255625
H           -1.39695609421054       -2.16907987560466       -1.90191379253976
H           -5.31415311193030       -2.15587001291483        1.95093649904839
H           -5.33660743490539       -0.49816607815711        2.62733117676869
H           -4.78328317070956       -1.87649836619205        3.61683761453794
H           -5.71193154148387        3.11655899349282       -3.90164583019129
H           -4.37360660226212        3.73951664774487       -5.02045829631746
H           -4.54675615454178        4.52213636573508       -3.58796897219614
C           -1.23904842079519        3.91039332036641        2.72524708923271
C           -1.76020782236731        2.84697042058235        3.40973300944555
C           -0.98813410235085        2.15379322116243        4.41951323549735
C            0.32674890483925        2.66819945429710        4.76598047169874
C            0.87646855335400        3.74478909475672        4.04725177162405
C            0.04073005276879        4.41780335711350        3.10660191542796
C           -1.40989814977738        1.01773352275996        5.25386936359186
C           -0.33170023468674        0.20033368781486        5.83617266811688
C            0.93016336849998        0.77104028543363        5.93983607043167
N            1.27227873734012        2.00285569026863        5.53762661825614
C           -2.64648619466907        0.47937085219632        5.63828792411559
C           -2.79096319228883       -0.91170180168929        5.92151290568737
N           -1.79900324386886       -1.68856120089998        6.44859018668690
C           -0.54666413905507       -1.11529198409441        6.47387444636516
C            0.50239750279792       -1.90654916601822        6.84975748494963
C            1.80213141751472       -1.28429633203092        6.74094728001031
C            2.03555031646272        0.06358885078699        6.47645540115864
C           -3.81858698958020        1.27246899644829        5.57158693660024
C           -5.11916464145954        0.70244925038737        5.62893288695215
C           -5.25339233294221       -0.62474372348303        5.91372669953892
C           -4.11423770412953       -1.32880184843226        6.10966110047667
O           -3.69732118211964        2.64184995028270        5.68015952971180
O           -3.06363820128224        2.42522912027058        2.87856533586891
C            0.09934438669263        5.87245926524191        2.57770297349160
C           -6.52236333896492       -1.41338288849950        6.11940377152877
H            1.83565437845101        4.18048108183050        4.05736034827198
H           -1.88113465452169        4.46068199375578        2.22312882138601
H            2.97338246898798        0.57829754863587        6.36261506629194
H            0.28525677047985       -2.96941822791472        7.05922145758291
H           -4.23226736931892       -2.31917895220810        6.52349512671492
H           -5.97282196599951        1.21311521384966        5.32407669993096
O            0.89088361475228        6.67806822658001        3.01776886766463
O           -0.98102772716164        6.27941453339443        1.70803951704759
C           -0.75288085426861        7.47970473000612        0.89748898657006
C            2.87115440059335       -2.21705494180233        7.27991486098110
O            2.69417650368854       -3.42814962712499        7.57491276648253
O            4.15836698762481       -1.79713992799172        7.30225578918080
C            5.21070198152413       -2.66525120299696        7.89782544520742
O           -7.56993097883870       -0.80598791632424        6.10378635320307
O           -6.35170917671919       -2.80048150646755        6.37583149585031
C           -7.54772999124837       -3.42633697901046        6.17352329445976
C           -4.71124092263613        3.15315112735936        6.58771162429269
C           -3.96070439652101        3.41592346568974        3.10639938381225
H           -8.38289069899939       -2.74037253935562        5.89250367605227
H           -7.99965983809055       -3.60968282687646        7.06115296040830
H           -7.52519985079536       -4.16255420008690        5.35275476534185
H            5.18460774479728       -2.86532739132431        8.98193840225060
H            6.19785526891869       -2.19910336973567        7.58022222411963
H            5.38109293044396       -3.64342277226708        7.39094250824199
H           -3.39458994652102        4.23649194443328        3.45796817261853
H           -4.61832578838639        3.10077355593147        3.89574024348208
H           -4.47162174016651        3.55193124585075        2.17938879134060
H           -5.29268447964626        4.04254615108669        6.19007234054876
H           -4.25275700569589        3.35676850111484        7.61129143342479
H           -5.44144784745451        2.39320694043177        6.90943666511799
H           -0.18546492676062        8.20526536687355        1.53568743248292
H           -1.66349976242935        7.84964401827090        0.65969159464509
H           -0.01225009549624        7.59756929200874        0.16829908011599
116
 energy: -22.752931649873 gnorm: 0.452000940706 xtb: 6.6.1 (8d0f1dd)
C           -3.09477481483791        0.53566368633450       -0.97279435664497
C           -2.26293853492874       -0.36894581862676       -0.29865700832912
C           -1.17924365133906        0.25490333990619        0.44868561185790
C           -0.78772593241674        1.67507546862594        0.29215579109612
C           -1.62345424492880        2.42820984865830       -0.53234148756652
C           -2.75360010251854        1.91950041487010       -1.01400312268434
C           -0.63250881355011       -0.45988645239645        1.63066966509528
C            0.74939832049800       -0.00777056813360        1.96754867590963
C            1.16812799954993        1.33010242279789        1.52037958986306
N            0.23605504128291        2.23629744593506        0.94029708676345
C           -1.06020617165778       -1.65246176725993        2.29554349296176
C           -0.02601161495152       -2.35063553685704        3.00749338400034
N            1.36605155086041       -2.02060709240797        3.06581019094961
C            1.69551570500823       -0.82226912442810        2.62645099357754
C            2.98071658294418       -0.37166149744330        2.99029922931324
C            3.31846345175151        0.98321123658396        2.84114761332779
C            2.41537904826803        1.74443883686973        2.01732938936401
C           -2.40132742436402       -2.22482857582381        2.23700781459290
C           -2.67450097688470       -3.50584566257544        2.79070147857150
C           -1.72038421905344       -4.04149899300316        3.66138402017100
C           -0.39981425730935       -3.61497275504844        3.64407355666065
O           -3.41012874833727       -1.27697369425044        1.85819644050254
O           -2.21783624293834       -1.64527433333434       -0.69311956726506
C           -3.74426554971995        2.96704423980088       -1.49768148892383
C           -2.12923663597469       -5.11438945066160        4.48004152210844
H           -1.24898121658293        3.48292914860581       -0.54992658162438
H           -4.04652502358452        0.14306347106910       -1.34958465719627
H            2.56712317823647        2.76334044487259        1.89828204791605
H            3.71004864360774       -1.01594297403107        3.37095899939971
H            0.27408331075741       -4.03969765573459        4.23814172719694
H           -3.42569320369960       -4.21760253826724        2.66576315426637
O           -3.74796562088783        4.09862054914735       -1.06449287762386