116
 energy: -22.928061455056 gnorm: 0.329736929581 xtb: 6.6.1 (8d0f1dd)
C           -3.31122850772930        0.79849766164622       -0.92477639677520
C           -2.44380812530352       -0.12270372891954       -0.27661132624697
C           -1.41337090092821        0.39579727573559        0.56335275196199
C           -0.89266158675590        1.65801491088749        0.27377586709581
C           -1.72665675402493        2.51431363229076       -0.49448366572522
C           -2.95444148494349        2.13954154133227       -1.01494489940871
C           -0.74098268209890       -0.43411532818871        1.49825021926784
C            0.56872586496315        0.03782116815119        1.86248088067890
C            1.03782416582094        1.29402317993033        1.50887470833621
N            0.31238977034758        2.07067427098208        0.65193736800696
C           -1.29695700510141       -1.39996043042223        2.41574187746061
C           -0.38243517664656       -2.18060797534842        3.13232615520648
N            0.91308504082021       -1.90366887689689        3.30325166013478
C            1.37712470144904       -0.74872102533751        2.81811050966982
C            2.52149331701875       -0.17739833758153        3.39379298866852
C            2.95849061756259        1.02681208890480        2.95105897606587
C            2.24288949469137        1.78498308775960        2.03503020483770
C           -2.74860936222260       -1.74497937691422        2.38401158947411
C           -3.09416315450955       -2.91614440870436        3.00571134491758
C           -2.16786021984049       -3.77788778654213        3.63251872101904
C           -0.85708937311598       -3.40495313382985        3.68547234358092
O           -3.71994433332149       -0.94984598373544        1.67726658385724
O           -2.55702603277562       -1.47241711578389       -0.57241635275616
C           -3.84297843593025        3.13357444054366       -1.60938954875544
C           -2.68769581069131       -5.03867041417370        4.30484659386931
H           -1.39666850744143        3.51251503834900       -0.76806311868865
H           -4.27662633836220        0.55105838579656       -1.33106614114542
H            2.66329581305412        2.73912661909249        1.72562431984580
H            3.05775395548473       -0.69369546277216        4.16536137542516
H           -0.24710966264510       -4.12034095424229        4.22946223699121
H           -4.11477991332403       -3.04712728052358        3.03244694615357
O           -4.21824883374556        4.03433712717988       -0.87713382485991
O           -4.44510595673734        2.90643496899600       -2.81853501752979
C           -5.44216520282800        3.83300025693726       -3.02488532025093
C            4.23586651889298        1.50004220933226        3.59165660008449
O            5.05927614697201        0.66079890002952        3.91714215179376
O            4.47001334453535        2.86385149488593        3.72605651435371
C            5.79457498613219        3.08584475587818        4.15829123132174
O           -3.82227255313510       -5.27347675879771        4.16636005494405
O           -1.85023202017753       -5.79767454267276        5.06656077253571
C           -2.55119635829503       -6.86252441382958        5.62930343183426
C           -5.07197156564436       -1.42399175670916        1.58830531863830
C           -1.33089900128490       -2.23622472573986       -0.99264499351172
H           -2.54510546830388       -7.76426885143998        4.99136022291012
H           -3.57194749219491       -6.44405511486021        5.74196173723541
H           -2.09133598235598       -7.02043774843818        6.64022264233588
H            5.72707967266424        3.46798026205549        5.10135971236643
H            6.34060091246885        3.78468702308830        3.50069950143490
H            6.17933064298187        2.03010500085905        4.19342358084693
H           -0.91862729772622       -2.57650129080332       -0.01361370304871
H           -0.49769766914251       -1.60651221708571       -1.34094446550576
H           -1.52632419730509       -2.94569707152159       -1.75361447637286
H           -5.11788846557077       -2.41810833635233        1.17520213188926
H           -5.67929807973498       -0.69619639428435        1.04301666067831
H           -5.57598832326623       -1.42383358739762        2.57928294206544
H           -6.13050215934830        3.76035386975488       -2.23272855695873
H           -5.86615610071888        3.45938329385866       -4.02668959924245
H           -5.13479557532099        4.87790991548477       -2.98314551356402
C           -1.38192942069774        3.73616555005018        2.91232598411686
C           -1.84821468128685        2.59982427735607        3.49755545445181
C           -1.05946531454833        2.05730632010638        4.60922730982276
C            0.19893954712228        2.69376791964407        4.86302140881997
C            0.50425395911860        3.94630308659851        4.28768785650746
C           -0.26031777722226        4.46998310053134        3.25072669343212
C           -1.20488993561782        0.74454293276906        5.14851520323437
C           -0.06287609782692        0.02744069315890        5.60930570802864
C            1.19208754369866        0.71421540266195        5.78882868583885
N            1.19428660993148        2.06344359410476        5.62744624321596
C           -2.41361422770794        0.07928500213936        5.25249410304426
C           -2.45851584031083       -1.32662100968547        5.60237876023992
N           -1.29466212405906       -1.98318595734370        5.89916817085159
C           -0.14475655767527       -1.32117560077092        5.98824682881008
C            0.97209270935794       -1.98958449505532        6.53157704134458
C            2.21982707914082       -1.36973967291181        6.68703967237737
C            2.30561929262884       -0.09745313075593        6.26436900324455
C           -3.73018485967715        0.71367583494582        5.25810242262992
C           -4.89964478833448       -0.06184623426677        5.21204641615509
C           -4.82617965800088       -1.39228978090841        5.46901303780036
C           -3.67144193418464       -1.98914944386360        5.67265433266067
O           -3.75568638935321        2.07705011038914        5.52067969627343
O           -2.94192434743730        1.91263938797883        3.01658762327703
C            0.21273512614467        5.50086066357994        2.34765104514621
C           -6.06660304520411       -2.17604633098929        5.80641622556876
H            1.41756699010566        4.38133362238595        4.66974005703471
H           -1.82880610647429        4.11982501512100        2.06992133318584
H            3.26888037378556        0.32655662585251        6.31721410015598
H            0.87146188387207       -3.08471526305024        6.57830423410869
H           -3.67716811065157       -3.05999292755990        5.83019634570050
H           -5.77379677507622        0.43595144608221        4.71017130754348
O            1.34459852619901        5.82615848916894        2.44941456579099
O           -0.74718748219123        6.07961784856304        1.59848183464284
C           -0.21473095568964        7.24015934882472        1.05753806029483
C            3.53228080814219       -2.00967610361154        7.02506769044485
O            3.64093082622715       -3.14437803815732        7.50071391725347
O            4.56565258381079       -1.22937033368332        6.69086985080897
C            5.72579357310716       -1.80692399125161        7.22246151275881
O           -7.04801223588612       -1.95726935745904        5.14194115322235
O           -6.01514389321278       -2.93743591896022        6.94765316328794
C           -7.21292732384718       -3.62681918543340        7.15115816329978
C           -4.95459780685163        2.65960679932188        5.86868674392943
C           -3.68284113682406        2.59129188358641        2.05479246020704
H           -7.43119628931628       -4.22607794725959        6.20622607140901
H           -8.06548455146707       -2.91765848248592        7.29781126410398
H           -7.07314693247270       -4.33087306029711        7.91223421050944
H            6.57332189837178       -1.29353136199234        6.78341268688262
H            5.74663761932316       -2.84282155125561        6.88089468184451
H            5.69426191474290       -1.72781984964892        8.29460302186842
H           -4.10481209541493        3.44288266176275        2.60483747673152
H           -4.49244774344916        1.87419893016926        1.82433103764650
H           -3.18901540870812        2.85154642679373        1.06781919454921
H           -5.55414326821421        2.76698137191684        4.93950725322359
H           -4.78658370641210        3.62090640967288        6.25983200635257
H           -5.43485580473958        1.97242995129449        6.65265772412460
H            0.89164886030839        7.38838561720231        1.13776105146914
H           -0.62894889903848        8.04195665205089        1.64837664327952
H           -0.59282546386754        7.45699159724320        0.03719083132488
116
 energy: -22.501622431691 gnorm: 0.573311957049 xtb: 6.6.1 (8d0f1dd)
C           -2.38519501823150        0.08865047726480       -2.18548649748114
C           -2.07663457840571       -0.62265517730498       -1.05026368037552
C           -1.50626233810576        0.09138388662684        0.02395125531346
C           -0.96996153644525        1.42135648345179       -0.25275583589108
C           -1.47903224570716        2.04406575504640       -1.42217018666220
C           -2.26131661307295        1.41857395635734       -2.29967066440160
C           -0.94557091963351       -0.72821546268486        1.06067128679624
C            0.28390056851719       -0.15390215879151        1.58014304662389
C            0.76145445016593        1.08208810518641        1.22677762098436
N            0.04071997380919        1.86972937577269        0.50910651138097
C           -1.56386213796256       -1.80429646537910        1.72822553317314
C           -0.73863694990879       -2.49805783397966        2.55135537547371
N            0.56299425016683       -2.08093601602341        2.70355432281350
C            1.07065322079032       -0.92673598556183        2.42536527333649
C            2.34143288568601       -0.64015715628320        2.74098956059942
C            2.85980097301234        0.69319411401059        2.47177145070804
C            2.01440631269646        1.45468712141799        1.76567658245660
C           -2.96608606229284       -1.77414409988428        1.98307136057480
C           -3.50743163057468       -2.79933421641698        2.90796988193670
C           -2.52840291538578       -3.71836615877164        3.40132044747098
C           -1.13325604417034       -3.52228601227332        3.33783819808487
O           -3.85529059849884       -0.84625897817980        1.34534721210819
O           -2.42563391871448       -2.07141573371358       -1.08974109244918
C           -3.21178915680730        2.20669599047805       -3.26122408965562
C           -2.95958497304659       -4.81118286349911        4.26543036184143
H           -1.16312359936838        3.13062470427669       -1.60843194466855
H           -2.96066651437097       -0.37924624183120       -2.97176519561156
H            2.15291775648468        2.54112880230062        1.90866067569413
H            2.69722045748358       -1.34254755862255        3.52083455340392
H           -0.19975644641566       -3.94025108249390        3.88434958970957
H           -4.45293415695674       -3.15227418739122        3.08207530597786
O           -4.05667663012255        2.87960881832849       -2.67833343244033
O           -3.24217915417398        2.22436358495688       -4.63188716733665
C           -4.50486444032445        2.29501552278825       -5.18752131171967
C            4.35388639619335        1.15729517398162        2.72457423302016
O            5.14524038288483        0.48320901834809        3.30206599135340
O            4.79506637127316        2.44541204199795        2.68229111405921
C            6.09215100988318        2.68435795222575        3.02734579691380
O           -3.75382667633974       -5.58185900713168        3.75457495293563
O           -2.32495836378305       -4.82039313308741        5.50754416999643
C           -2.78565617348216       -5.91402379007511        6.27003314828100
C           -5.08739529865397       -1.40587997005202        1.07305808935535
C           -1.28138669131176       -3.01278934175828       -1.18154391849612
H           -3.59532352901644       -5.57747360225367        7.10926548837256
H           -1.95884898761845       -6.64575007794669        6.50904702788470
H           -3.42704127175069       -6.52665724461734        5.73081375609578
H            5.95767820813876        3.46955417585437        3.69911639914198
H            6.65284661388218        2.87985673957447        2.20284135727832
H            6.35421482447936        1.99238869776035        3.92760271334156
H           -1.55020196047739       -3.80212683768800       -0.62734872902058
H           -0.25928477463116       -2.69779930073554       -0.61685632872126
H           -0.98430109306760       -2.87180291206057       -2.36511445934392
H           -4.97441990152557       -2.50048887898084        0.73011172385314
H           -5.97624923752813       -0.65303072580021        0.66979333154473
H           -5.57759225272279       -1.32849564850001        2.02308560456650
H           -4.41834721278490        1.80212025450626       -6.19165460470396
H           -4.59965983975893        3.32553244357924       -5.81090045425837
H           -5.15509186037510        1.70460316037725       -4.31258253085504
C           -1.71640519535108        4.29753154154608        3.65987521459784
C           -2.00622498268961        3.17158676822422        4.41691389099880
C           -0.95716613624156        2.41774824404990        5.02826097303830
C            0.38419391136612        2.86344823738704        4.86710169786706
C            0.53486569100131        4.14416807196385        4.13459881741707
C           -0.46564927734858        4.90760452564589        3.58745644176956
C           -1.16684789773563        1.33594261859759        5.97158158151872
C            0.04338532425489        0.50942841618851        6.17055706617847
C            1.37913061560492        0.98960015039528        5.78248164257939
N            1.53745695120472        2.04901636575559        5.02833803559706
C           -2.36007164792833        0.51355244766688        6.46924096001493
C           -2.31343919307864       -0.89298829232971        6.30929881179124
N           -1.18472435461469       -1.57949880068133        6.59456356050368
C           -0.01062660068653       -0.89524119123105        6.54571815260989
C            1.16452652296023       -1.51038690687740        6.86533233768653
C            2.33580482317450       -1.09084906871320        6.50178092291370
C            2.44197007401595        0.12620678376364        5.87159950841970
C           -3.71233870064407        0.91744109073020        7.01581600128693
C           -4.84044794659272        0.05722421522560        6.83427776669965
C           -4.82704390597258       -1.20744345292334        6.20853391688090
C           -3.49839356001770       -1.76576870003488        6.08108996329107
O           -4.14633997355189        2.03445004362360        7.86859600923069
O           -3.29946671362846        2.52891548292954        4.36332422612767
C           -0.55116816823170        6.23609736213079        2.99958095228372
C           -5.96422651010194       -2.11361971782889        5.80226658793725
H            1.51811180122301        4.53107794119612        4.33852140652409
H           -2.55383690628417        4.78296031012193        3.10657364550994
H            3.45883585124226        0.36564902902920        5.49878695235881
H            1.18759240578458       -2.54339955236383        7.33802865284699
H           -3.61018810420468       -2.76879091187900        5.67318985587913
H           -5.80138189713416        0.55803544423471        6.75452701436585
O           -0.37986206561133        6.45658876793230        1.85191498108109
O           -0.94236512632908        7.08520161732573        4.02125111715945
C           -1.09505154206645        8.35651652899174        3.42116657037355
C            3.48315940743114       -1.91111286166368        7.02151244752475
O            3.56630473182296       -3.03997517720829        6.84850524295771
O            4.48515479890066       -1.32644549032119        7.69614315191521
C            5.61244638732469       -2.08279386349973        8.05926851983242
O           -7.06234586326546       -1.87787950048940        6.23370074321874
O           -5.81029182461538       -2.92504526327718        4.73933171949538
C           -7.04226861406772       -3.76506433042022        4.52507149967382
C           -3.11164647889779        3.02461746100410        8.08234111488933
C           -4.55636610468013        3.05836619335307        4.83807290511325
H           -6.73694082734859       -4.70303173285749        3.94384227890421
H           -7.93692084625984       -3.42941747839236        4.09215008867581
H           -7.44837873139054       -4.23406143525889        5.37963193630856
H            5.17473203184917       -2.82193102436865        8.95983043079365
H            6.42601184012829       -1.29669955844255        8.03909136466696
H            5.93944879475486       -3.06815441408004        7.39365744326639
H           -5.60836100263288        2.53804067054404        5.25957221646667
H           -4.85813606215554        3.71556786525327        4.02581653186661
H           -4.47337137695075        3.68551529531184        5.66747894022773
H           -2.15022625476353        2.67917591630838        7.80423763963500
H           -3.05927240118651        3.20353829277662        9.20594761428796
H           -3.45069720493730        3.91423875275732        7.46244775663733
H           -0.59731580060453        9.22014205970446        3.92373083957271
H           -2.13334888451621        8.46121571280302        3.22749284547168
H           -0.95022576249881        8.31452469751114        2.34396824807218
116
 energy: -22.573912199200 gnorm: 0.515928754077 xtb: 6.6.1 (8d0f1dd)
C           -2.63472900480770       -0.63487981406704       -2.73824955972894
C           -2.32198785118280       -0.87511094728433       -1.46444312777456
C           -1.63706175777619        0.00073694052466       -0.49100231834638
C           -0.81235225646363        0.94431047320261       -1.03613507746022
C           -0.88163708636026        1.07884234467184       -2.41295501072475
C           -1.80441853995944        0.44756954140478       -3.16200608397103
C           -1.26598417289290       -0.42874452585771        0.84890525122034
C           -0.11052178944502        0.09751085300188        1.53271014707009
C            0.59182361782282        1.08112937930012        0.75800997610541
N            0.27149465107903        1.39078839864870       -0.46071799677362
C           -1.60645321376898       -1.65822938788320        1.53590511892522
C           -0.85459881821982       -2.05107424917191        2.70271453035579
N            0.06606224463081       -1.40424252076241        3.41021238939041
C            0.53973012760603       -0.34998508373348        2.72710738439205
C            1.82345781518993        0.08148358396509        3.08692170181868
C            2.53326118552638        1.04977631280218        2.42542561825526
C            1.97733103778139        1.64666724708113        1.31408216821874
C           -3.09781774905742       -2.00141217924426        1.52375702475238
C           -3.47796284431470       -3.13793219123312        2.18058803192560
C           -2.54635029311613       -3.91068598173360        2.93669967943466
C           -1.37995612448452       -3.19113165290117        3.37845031230964
O           -4.09992497279756       -1.40057145581339        0.76288216295127
O           -2.74485545158338       -2.21757125642739       -0.93184323076038
C           -2.12228360439611        1.07372574704129       -4.39134430722954
C           -2.72798858016255       -5.31502953177121        3.13853713170451
H           -0.06752186276235        1.73730819337267       -2.78835487862475
H           -3.15704219011440       -1.39284825787893       -3.24953889011888
H            2.38703421292588        2.54664767121938        0.79550527579607
H            2.55633824968388       -0.25551396230140        3.76423925802048
H           -0.66498539522692       -3.88282251566505        3.91891792849478
H           -4.49050665493181       -3.47394285326580        2.04574605489230
O           -1.16908891165051        1.74312170328839       -4.91232387257308
O           -3.45219439040837        1.24627915866306       -4.83263205346835
C           -3.41083532069879        2.19757840819853       -5.79779428042011
C            3.75101872346847        1.56215864361481        2.94164139014815
O            4.24452916037544        1.34126384866410        4.04402619783903
O            4.31552547934254        2.79166120189930        2.46038820352515
C            5.69013650528723        2.66630646295601        2.78219430354787
O           -3.79418808082278       -5.74316260180619        3.59207944372284
O           -1.63567281715670       -6.12676387090964        3.05768201200282
C           -1.95785886608430       -7.33365664003365        3.59375802938953
C           -5.19788811369263       -1.05714460449560        1.52328201214916
C           -1.94193731673511       -3.34102913974811       -1.34235316015329
H           -2.84802074913459       -7.69770203643319        3.04039868878866
H           -1.89187636616309       -7.12541779183882        4.70727481412184
H           -1.03408480010584       -7.93415135756900        3.41935034932620
H            6.34007292933712        1.90502638146044        2.25861954201954
H            5.84585045979250        2.48657901047032        3.90907269669832
H            6.18972657686169        3.72798261101205        2.37666116221678
H           -1.36888494619024       -3.87540306664980       -0.40887576652948
H           -1.03514152851407       -2.89872714618125       -1.85269422813215
H           -2.44453414450060       -3.98625083912786       -2.05261208644398
H           -6.07469020045562       -1.37137884717687        0.83035260408000
H           -4.98023030573084       -0.00436297754448        1.96252665499450
H           -5.43884349893220       -1.70877923124227        2.41842534761592
H           -2.75155746860854        2.05777704715229       -6.72569626420812
H           -3.73517286017468        3.22974034786446       -5.45957054508554
H           -4.45425553931451        1.99007103254199       -6.25839237841743
C           -2.12121288753048        4.31623340094379        4.47229778734365
C           -2.08822419639646        2.97178676384971        4.56212214269827
C           -1.10368607281026        2.33715395690081        5.42499675879064
C            0.09367730183768        3.03705329374133        5.95084724979161
C           -0.00162671567972        4.42329119929438        5.73102357372430
C           -1.05298540688252        4.99170875411751        4.95925438568376
C           -1.18040834681354        1.00443598451354        5.85621769935408
C            0.04157777132910        0.37755124623097        6.05984760828418
C            1.25512862737000        1.20457083569170        6.17590015344513
N            1.27570255639598        2.54843784788614        6.34041478205692
C           -2.43398437481776        0.55682055699827        6.29970108018399
C           -2.49047715378171       -0.92894749271079        6.36037298869186
N           -1.24026748129252       -1.66584416916384        6.56249937191180
C           -0.01709029354788       -1.00302897851298        6.34426290681279
C            1.17554026054215       -1.77566739856117        6.33140225491309
C            2.36538123129413       -1.04246486097617        6.28660836300784
C            2.42452519030487        0.42460183081799        6.33747983976974
C           -3.42963502899125        1.44169944250852        6.90290832134767
C           -4.52522964182505        0.86053650849736        7.44471565972873
C           -4.75312879780350       -0.56104995298769        7.44451454738698
C           -3.70008994699415       -1.43143177456554        6.91615759928183
O           -2.99739715875381        2.76681022822610        7.37541361165058
O           -3.22457655850501        2.43755936069741        3.93718856600766
C           -0.93199432301313        6.46373593561937        4.58112625018220
C           -6.07543743592528       -1.08248157539621        8.04712461067171
H            0.71898568028304        5.10096580876468        6.08549594023892
H           -2.74216228757293        4.56232150336305        3.60278181905508
H            3.28178075266999        0.94385479086224        6.02041059300332
H            1.05555284317330       -2.88527841293018        6.11040319672273
H           -4.02568717470920       -2.39160670799615        6.74639114502818
H           -5.24308487892990        1.67451706668410        7.65812927953628
O           -0.35683059858914        7.38491186009293        5.19350486898565
O           -1.70691564079870        6.83061517261023        3.48886445328840
C           -1.69335447170710        8.28655253452640        3.43970515985592
C            3.59930077248078       -1.84216472169795        6.32118518152057
O            3.64982301007456       -2.92410770835573        5.70740783808204
O            4.39474871659111       -1.48589347609148        7.43481909691929
C            5.62696840696573       -2.25285568623333        7.35893886980965
O           -5.95621804095233       -1.82390807050069        8.99082113690898
O           -7.20242106437622       -0.99870488048962        7.30586400619766
C           -8.15135673644644       -1.93248690511178        7.71726056179171
C           -3.02903641869627        2.83890492334271        8.78288528207446
C           -2.80380969407040        1.85721781716363        2.69289598938369
H           -7.88570754080180       -2.55277563915639        8.59312286827809
H           -8.48290819232797       -2.39992879529003        6.73135459315908
H           -9.01668975294283       -1.15431100856893        7.99782795925824
H            5.37731705055788       -2.78518020494002        8.29638377122372
H            6.59224408788195       -1.70993788712357        7.24687496756633
H            5.89169655161980       -3.00787247641401        6.54705765773653
H           -3.73771281978081        1.76541327094447        2.11235607737442
H           -2.28256095203409        0.94951174561273        2.69561349652194
H           -2.17735042040459        2.61686262635816        2.13678193819732
H           -2.27744773949355        3.48858872734030        9.27940005703033
H           -3.16395233817654        1.80064676858622        9.00520749748098
H           -3.99045288740473        3.31673065120419        8.93063435229529
H           -2.77137003458645        8.46498238326753        3.11201850905028
H           -0.96640628105866        8.64142205259110        2.72680557882538
H           -1.51163372073131        8.63003083132138        4.34490582838679
116
 energy: -22.568923574038 gnorm: 0.561533944196 xtb: 6.6.1 (8d0f1dd)
C           -2.27444647962955       -0.84405220787928       -2.91279829159753
C           -1.59707958812283       -1.25048979261338       -1.70735961086356
C           -1.01414445290034       -0.38581424109574       -0.79107099251768
C           -0.51933470661710        0.78570535284538       -1.37505257642884
C           -1.21668631968411        1.34410425846100       -2.46329918134126
C           -1.98903354976260        0.50826935444341       -3.26666757260233
C           -0.52055053215389       -0.96553814901604        0.49158539035012
C            0.39022191151052       -0.16859424076716        1.02380946492012
C            0.73750719190861        1.14225901511111        0.48246571790988
N            0.39871274301779        1.52306565778552       -0.84937909858212
C           -1.02475363968697       -2.02641941507638        1.20295708560001
C           -0.37118932252659       -2.49561950719447        2.21306302386278
N            0.84633225840973       -1.97023325136878        2.63869641312096
C            1.03312488973688       -0.71966549440890        2.16039416325932
C            1.82526280659123        0.12875306975068        3.00124887497470
C            1.95262302173929        1.42105717415791        2.58036497610197
C            1.57428117673224        1.92487674002500        1.33544848829083
C           -2.40999464219174       -2.29925616392876        1.20499959711193
C           -2.94676692117795       -3.44842904139233        1.64615232808534
C           -2.16979716855890       -4.11684854947210        2.60364851998394
C           -1.00556494009519       -3.47280385709265        2.99763803430510
O           -3.15068046314463       -1.42307680318048        0.54888077805137
O           -1.47076646782788       -2.66371118441147       -1.51443030077498
C           -2.77464561939213        1.08551510698551       -4.39305505214565
C           -2.83302534771792       -5.29047641607961        3.08459708138912
H           -0.77072618254913        2.19126098263794       -2.90204111399321
H           -2.75484704982346       -1.27102834760062       -3.77312601391027
H            2.04098775117574        2.91825180679476        1.01967024465681
H            2.09840616678563       -0.33134183346516        4.02472035024164
H           -0.51567156708950       -4.06600558595032        3.69058387816079
H           -3.82110176968778       -3.85947122120068        1.10149198476238
O           -3.92736182900015        0.61713748375021       -4.81668522266186