Optimization of monomers started
      -----------------------------------------------------------      
     |                   =====================                   |     
     |                           x T B                           |     
     |                   =====================                   |     
     |                         S. Grimme                         |     
     |          Mulliken Center for Theoretical Chemistry        |     
     |                    University of Bonn                     |     
      -----------------------------------------------------------      

   * xtb version 6.7.1 (edcfbbe) compiled by 'runner@Mac-1732539442253.local' on 2024-11-25

   xtb is free software: you can redistribute it and/or modify it under
   the terms of the GNU Lesser General Public License as published by
   the Free Software Foundation, either version 3 of the License, or
   (at your option) any later version.
   
   xtb is distributed in the hope that it will be useful,
   but WITHOUT ANY WARRANTY; without even the implied warranty of
   MERCHANTABILITY or FITNESS FOR A PARTICULAR PURPOSE.  See the
   GNU Lesser General Public License for more details.
   
   Cite this work as:
   * C. Bannwarth, E. Caldeweyher, S. Ehlert, A. Hansen, P. Pracht,
     J. Seibert, S. Spicher, S. Grimme, WIREs Comput. Mol. Sci., 2020, 11,
     e01493. DOI: 10.1002/wcms.1493
   
   for GFN2-xTB:
   * C. Bannwarth, S. Ehlert and S. Grimme., J. Chem. Theory Comput., 2019,
     15, 1652-1671. DOI: 10.1021/acs.jctc.8b01176
   for GFN1-xTB:
   * S. Grimme, C. Bannwarth, P. Shushkov, J. Chem. Theory Comput., 2017,
     13, 1989-2009. DOI: 10.1021/acs.jctc.7b00118
   for GFN0-xTB:
   * P. Pracht, E. Caldeweyher, S. Ehlert, S. Grimme, ChemRxiv, 2019, preprint.
     DOI: 10.26434/chemrxiv.8326202.v1
   for GFN-FF:
   * S. Spicher and S. Grimme, Angew. Chem. Int. Ed., 2020, 59, 15665-15673.
     DOI: 10.1002/anie.202004239
   
   for ALPB and GBSA implicit solvation:
   * S. Ehlert, M. Stahn, S. Spicher, S. Grimme, J. Chem. Theory Comput.,
     2021, 17, 4250-4261. DOI: 10.1021/acs.jctc.1c00471
   
   for ddCOSMO and CPCM-X implicit solvation:
   * M. Stahn, S. Ehlert, S. Grimme, J. Phys. Chem. A,
     2023, XX, XXXX-XXXX. DOI: 10.1021/acs.jpca.3c04382
   
   for DFT-D4:
   * E. Caldeweyher, C. Bannwarth and S. Grimme, J. Chem. Phys., 2017,
     147, 034112. DOI: 10.1063/1.4993215
   * E. Caldeweyher, S. Ehlert, A. Hansen, H. Neugebauer, S. Spicher,
     C. Bannwarth and S. Grimme, J. Chem. Phys., 2019, 150, 154122.
     DOI: 10.1063/1.5090222
   * E. Caldeweyher, J.-M. Mewes, S. Ehlert and S. Grimme, Phys. Chem. Chem. Phys.
     2020, 22, 8499-8512. DOI: 10.1039/D0CP00502A
   
   for sTDA-xTB:
   * S. Grimme and C. Bannwarth, J. Chem. Phys., 2016, 145, 054103.
     DOI: 10.1063/1.4959605
   
   in the mass-spec context:
   * V. Asgeirsson, C. Bauer and S. Grimme, Chem. Sci., 2017, 8, 4879.
     DOI: 10.1039/c7sc00601b
   * J. Koopman and S. Grimme, ACS Omega 2019, 4, 12, 15120-15133.
     DOI: 10.1021/acsomega.9b02011
   
   for metadynamics refer to:
   * S. Grimme, J. Chem. Theory Comput., 2019, 155, 2847-2862
     DOI: 10.1021/acs.jctc.9b00143
   
   for SPH calculations refer to:
   * S. Spicher and S. Grimme, J. Chem. Theory Comput., 2021, 17, 1701-1714
     DOI: 10.1021/acs.jctc.0c01306
   
   for ONIOM refer to:
   * C. Plett, A. Katbashev, S. Ehlert, S. Grimme, M. Bursch,
     Phys. Chem. Chem. Phys., 2023, 25, 17860-17868. DOI: 10.1039/D3CP02178E
   
   for DIPRO refer to:
   * J. Kohn, N. Gildemeister, S. Grimme, D. Fazzi, A. Hansen,
     J. Chem. Phys., 2023, just accepted.
   
   for PTB refer to:
   * S. Grimme, M. Mueller, A. Hansen, J. Chem. Phys., 2023, 158, 124111.
     DOI: 10.1063/5.0137838
   
   with help from (in alphabetical order)
   P. Atkinson, C. Bannwarth, F. Bohle, G. Brandenburg, E. Caldeweyher
   M. Checinski, S. Dohm, S. Ehlert, S. Ehrlich, I. Gerasimov, C. Hölzer
   A. Katbashev, J. Kohn, J. Koopman, C. Lavigne, S. Lehtola, F. März, M. Müller,
   F. Musil, H. Neugebauer, J. Pisarek, C. Plett, P. Pracht, F. Pultar,
   J. Seibert, P. Shushkov, S. Spicher, M. Stahn, M. Steiner, T. Strunk,
   J. Stückrath, T. Rose, and J. Unsleber
   
 * started run on 2025/03/17 at 16:25:31.471     
   ID    Z sym.   atoms
    1    6 C      1-9, 11, 12, 14-21, 24-35, 37, 38, 40-47, 50-52, 56, 58,
                  62, 65, 68, 71
    2    7 N      10, 13, 36, 39
    3    8 O      22, 23, 48, 49, 54, 55, 57, 59-61, 63, 64, 66, 67, 69, 70
    4    5 B      53
    5    1 H      72-101

           -------------------------------------------------
          |                Calculation Setup                |
           -------------------------------------------------

          program call               : xtb Base1CO2Me.mol --opt --chrg 0 --uhf 1 --tight --spinpol --tblite
          coordinate file            : Base1CO2Me.mol
          omp threads                :                     8


molecular fragmentation (1/2 indicates fragments):
111111111111111111111111112222222222222222222222222211111112222222221112
22222111222111111222222112211
# atoms in fragment 1/2:    49    52
 fragment masses (1/2) :      480.19      473.41
CMA distance (Bohr)    :  14.961
constraining FC (au)   :  0.0500
########################################################################
[WARNING] Please study the warnings concerning your input carefully
-1- prog_main_parseArguments: Unknown option '--tight' provided
########################################################################
repulsion energy          1.2846587426175E+00 Eh
dispersion energy         1.0937607898115E-03 Eh
interaction energy        0.0000000000000E+00 Eh
number of electrons       3.4900000000000E+02 e
integral cutoff           1.9311100799991E+01 bohr

------------------------------------------------------------
  cycle        total energy    energy error   density error
------------------------------------------------------------
      1     -195.3412273239  -1.9662698E+02   1.8101000E-01
      2     -196.2557251047  -9.1449778E-01   1.0702279E-01
      3     -194.6038409086   1.6518842E+00   8.6330469E-02
      4     -162.2029155467   3.2400925E+01   1.5035789E-01
      5     -194.0635728651  -3.1860657E+01   7.4560442E-02
      6     -196.7207502001  -2.6571773E+00   4.5925489E-02
      7     -198.0737979908  -1.3530478E+00   3.3742520E-02
      8     -198.4841556126  -4.1035762E-01   2.1387562E-02
      9     -198.4485303100   3.5625303E-02   1.8922364E-02
     10     -198.5395918630  -9.1061553E-02   1.6857649E-02
     11     -198.5686230303  -2.9031167E-02   1.2144750E-02
     12     -198.6112749249  -4.2651895E-02   6.7905966E-03
     13     -198.6182945581  -7.0196332E-03   1.1256689E-02
     14     -198.6142473544   4.0472037E-03   1.2163097E-02
     15     -198.6105016919   3.7456626E-03   1.2252889E-02
     16     -198.6302116858  -1.9709994E-02   3.7596567E-03
     17     -198.6305558030  -3.4411716E-04   1.4184200E-03
     18     -198.6305891168  -3.3313822E-05   2.2451989E-03
     19     -198.6312243506  -6.3523377E-04   9.5719335E-04
     20     -198.6307299439   4.9440673E-04   1.6304430E-03
     21     -198.6313267398  -5.9679590E-04   3.6736949E-04
     22     -198.6312642676   6.2472178E-05   6.4368530E-04
     23     -198.6312531960   1.1071534E-05   6.0891573E-04
     24     -198.6313159545  -6.2758478E-05   3.1673002E-04
     25     -198.6313445711  -2.8616548E-05   5.7558031E-05
     26     -198.6313448011  -2.2998378E-07   5.1553292E-05
     27     -198.6313446540   1.4708141E-07   5.6383773E-05
     28     -198.6313439763   6.7765674E-07   7.1141945E-05
     29     -198.6313450815  -1.1052298E-06   3.3011601E-05
     30     -198.6313452884  -2.0687227E-07   1.6755959E-05
------------------------------------------------------------

electronic energy        -1.9991709779182E+02 Eh
total energy             -1.9863134528842E+02 Eh

 total:                                  46.680 sec
 - repulsion                              0.001 sec (  0%)
 - dispersion                             0.036 sec (  0%)
 - coulomb                                0.017 sec (  0%)
 - hamiltonian                            0.068 sec (  0%)
 - scc                                   46.558 sec ( 99%)

      ----------------------------------------------------------- 
     |                   =====================                   |
     |                        A N C O P T                        |
     |                   =====================                   |
     |               Approximate Normal Coordinate               |
     |                Rational Function Optimizer                |
      ----------------------------------------------------------- 
      ----------------------------------------------------------- 
     |                   =====================                   |
     |                        A N C O P T                        |
     |                   =====================                   |
     |               Approximate Normal Coordinate               |
     |                Rational Function Optimizer                |
      ----------------------------------------------------------- 

          ...................................................
          :                      SETUP                      :
          :.................................................:
          :   optimization level            normal          :
          :   max. optcycles                   303          :
          :   ANC micro-cycles                  20          :
          :   degrees of freedom               297          :
          :.................................................:
          :   RF solver                   davidson          :
          :   write xtbopt.log                true          :
          :   linear?                        false          :
          :   energy convergence         0.5000000E-05 Eh   :
          :   grad. convergence          0.1000000E-02 Eh/α :
          :   maxmium RF displ.          1.0000000          :
          :   Hlow (freq-cutoff)         0.1000000E-01      :
          :   Hmax (freq-cutoff)         5.0000000          :
          :   S6 in model hess.         20.0000000          :
          ...................................................

generating ANC from exact Hessian ...
Using Lindh-Hessian (1995)
 Shifting diagonal of input Hessian by    1.1480404221780132E-002
 Lowest  eigenvalues of input Hessian
    0.010000    0.011419    0.000000    0.000000    0.011466    0.000000
    0.000000    0.000000    0.000000    0.011496    0.011512    0.011540
    0.011567    0.011626    0.011646    0.011700    0.011735    0.011787
 Highest eigenvalues
    1.425202    1.457812    1.467823    1.468141    1.473108    1.474134


........................................................................
.............................. CYCLE    1 ..............................
........................................................................
------------------------------------------------------------
  cycle        total energy    energy error   density error
------------------------------------------------------------
      1     -198.6312494252  -1.9991700E+02   5.1096441E-04
      2     -198.6168807230   1.4368702E-02   6.2535480E-03
      3     -198.6313450656  -1.4464343E-02   2.7082548E-05
      4     -198.6313446918   3.7382790E-07   4.0902982E-05
      5     -198.6313453347  -6.4298163E-07   1.0395990E-05
------------------------------------------------------------

 total:                                   7.361 sec
 * total energy  :  -198.6313453 Eh     change       -0.4632042E-07 Eh
   gradient norm :     0.7365772 Eh/α   predicted     0.0000000E+00 (-100.00%)
   displ. norm   :     0.7880175 α      lambda       -0.5243785E+00
   maximum displ.:     0.1904743 α      in ANC's #143, #158, #126, ...

........................................................................
.............................. CYCLE    2 ..............................
........................................................................
------------------------------------------------------------
  cycle        total energy    energy error   density error
------------------------------------------------------------
      1     -199.0960907298  -2.0048660E+02   9.8176786E-03
      2     -199.0900668731   6.0238566E-03   8.7132209E-03
      3     -199.0253896683   6.4677205E-02   1.3837349E-02
      4     -199.0689222564  -4.3532588E-02   1.0267557E-02
      5     -199.0982305775  -2.9308321E-02   4.6354430E-03
      6     -199.1041948986  -5.9643211E-03   2.3676295E-03
      7     -199.1018249253   2.3699733E-03   4.0267745E-03
      8     -199.1018985124  -7.3587054E-05   3.9095679E-03
      9     -199.1029234970  -1.0249846E-03   3.4085177E-03
     10     -199.1062473313  -3.3238343E-03   6.9801182E-04
     11     -199.1062136976   3.3633697E-05   7.2951086E-04
     12     -199.1063557492  -1.4205157E-04   2.0026486E-04
     13     -199.1063541764   1.5727295E-06   2.2782219E-04
     14     -199.1063679656  -1.3789201E-05   5.4024603E-05
     15     -199.1063663918   1.5738380E-06   9.1286223E-05
     16     -199.1063664958  -1.0397076E-07   8.2055506E-05
     17     -199.1063677443  -1.2485576E-06   4.8200988E-05
     18     -199.1063684381  -6.9372251E-07   8.0820076E-06
------------------------------------------------------------

 total:                                  27.305 sec
 * total energy  :  -199.1063684 Eh     change       -0.4750231E+00 Eh
   gradient norm :     0.5689415 Eh/α   predicted    -0.4250095E+00 ( -10.53%)
   displ. norm   :     0.8582667 α      lambda       -0.4656156E+00
   maximum displ.:     0.1882154 α      in ANC's #143, #126, #289, ...

........................................................................
.............................. CYCLE    3 ..............................
........................................................................
------------------------------------------------------------
  cycle        total energy    energy error   density error
------------------------------------------------------------
      1     -199.4562869589  -2.0105896E+02   1.0961023E-02
      2     -199.4582134195  -1.9264606E-03   9.0531309E-03
      3     -199.3326700317   1.2554339E-01   1.6477107E-02
      4     -199.4295118424  -9.6841811E-02   1.0499254E-02
      5     -199.4657021320  -3.6190290E-02   5.0502662E-03
      6     -199.4630802075   2.6219245E-03   4.9536750E-03
      7     -199.4728692580  -9.7890505E-03   2.1723665E-03
      8     -199.4734849086  -6.1565060E-04   2.6513569E-03
      9     -199.4735999938  -1.1508520E-04   2.5705780E-03
     10     -199.4735536186   4.6375198E-05   2.9442420E-03
     11     -199.4736834223  -1.2980365E-04   1.0960426E-03
     12     -199.4738914993  -2.0807699E-04   8.8837139E-04
     13     -199.4741021146  -2.1061536E-04   3.5832970E-04
     14     -199.4741404320  -3.8317387E-05   2.3240639E-04
     15     -199.4741242892   1.6142782E-05   4.0402082E-04
     16     -199.4741303580  -6.0687633E-06   3.0256553E-04
     17     -199.4741433813  -1.3023288E-05   1.4471290E-04
     18     -199.4741420126   1.3687023E-06   1.5121025E-04
     19     -199.4741447428  -2.7302671E-06   8.5148281E-05
     20     -199.4741465361  -1.7932806E-06   1.0787772E-05
     21     -199.4741465583  -2.2216597E-08   4.8232263E-06
------------------------------------------------------------

 total:                                  31.475 sec
 * total energy  :  -199.4741466 Eh     change       -0.3677781E+00 Eh
   gradient norm :     0.3511514 Eh/α   predicted    -0.4043522E+00 (   9.94%)
   displ. norm   :     0.8739620 α      lambda       -0.2936446E+00
   maximum displ.:     0.2272208 α      in ANC's #143, #126, #122, ...

........................................................................
.............................. CYCLE    4 ..............................
........................................................................
------------------------------------------------------------
  cycle        total energy    energy error   density error
------------------------------------------------------------
      1     -199.7350797550  -2.0145579E+02   8.7281672E-03
      2     -199.7297056462   5.3741088E-03   6.8391923E-03
      3     -199.5065972689   2.2310838E-01   2.0705782E-02
      4     -199.7161067453  -2.0950948E-01   7.8289216E-03
      5     -199.7288609321  -1.2754187E-02   6.4044614E-03
      6     -199.7356509024  -6.7899703E-03   2.7218427E-03
      7     -199.7379523419  -2.3014394E-03   1.4701493E-03
      8     -199.7385488464  -5.9650454E-04   1.2239036E-03
      9     -199.7387391300  -1.9028364E-04   1.1897154E-03
     10     -199.7387772615  -3.8131412E-05   1.2977983E-03
     11     -199.7387689579   8.3035705E-06   1.2662827E-03
     12     -199.7387501417   1.8816152E-05   1.2455889E-03
     13     -199.7387546249  -4.4831906E-06   1.1997126E-03
     14     -199.7388749604  -1.2033549E-04   4.9329291E-04
     15     -199.7388797595  -4.7990586E-06   3.7984157E-04
     16     -199.7388842943  -4.5347797E-06   3.1796355E-04
     17     -199.7388879226  -3.6283741E-06   1.5981106E-04
     18     -199.7388890721  -1.1494975E-06   7.6879360E-05
     19     -199.7388885952   4.7693402E-07   6.2861220E-05
     20     -199.7388896362  -1.0409927E-06   1.4413494E-05
     21     -199.7388896285   7.7198763E-09   8.4586608E-06
------------------------------------------------------------

 total:                                  29.153 sec
 * total energy  :  -199.7388896 Eh     change       -0.2647431E+00 Eh
   gradient norm :     0.2817320 Eh/α   predicted    -0.2589669E+00 (  -2.18%)
   displ. norm   :     0.8928495 α      lambda       -0.2410961E+00
   maximum displ.:     0.2152789 α      in ANC's #126, #122, #143, ...

........................................................................
.............................. CYCLE    5 ..............................
........................................................................
------------------------------------------------------------
  cycle        total energy    energy error   density error
------------------------------------------------------------
      1     -199.9414479998  -2.0177082E+02   8.6976954E-03
      2     -199.9399076500   1.5403498E-03   5.9505541E-03
      3     -199.9282891945   1.1618456E-02   7.3663405E-03
      4     -199.6253679360   3.0292126E-01   2.4028020E-02
      5     -199.9326515424  -3.0728361E-01   6.5903199E-03
      6     -199.9448652773  -1.2213735E-02   2.0763073E-03
      7     -199.9458216082  -9.5633088E-04   1.1281583E-03
      8     -199.9455606201   2.6098809E-04   1.1994616E-03
      9     -199.9458180004  -2.5738033E-04   9.0784020E-04
     10     -199.9458801283  -6.2127829E-05   7.5784696E-04
     11     -199.9460778693  -1.9774107E-04   4.0278688E-04
     12     -199.9461619686  -8.4099281E-05   2.9725552E-04
     13     -199.9461619438   2.4852937E-08   2.8809037E-04
     14     -199.9461635835  -1.6397011E-06   2.9793875E-04
     15     -199.9461650439  -1.4603981E-06   2.3753938E-04
     16     -199.9461656559  -6.1208235E-07   2.2067027E-04
     17     -199.9461656636  -7.6464630E-09   2.2006499E-04
     18     -199.9461667587  -1.0951465E-06   1.5786496E-04
     19     -199.9461672275  -4.6874104E-07   1.2691744E-04
     20     -199.9461679023  -6.7486735E-07   5.3215953E-05
     21     -199.9461679362  -3.3808760E-08   3.1944412E-05
     22     -199.9461680428  -1.0663098E-07   5.5439324E-06
------------------------------------------------------------

 total:                                  30.950 sec
 * total energy  :  -199.9461680 Eh     change       -0.2072784E+00 Eh
   gradient norm :     0.1971070 Eh/α   predicted    -0.2166470E+00 (   4.52%)
   displ. norm   :     0.8640801 α      lambda       -0.1651243E+00
   maximum displ.:     0.2480526 α      in ANC's #74, #78, #77, ...

........................................................................
.............................. CYCLE    6 ..............................
........................................................................
------------------------------------------------------------
  cycle        total energy    energy error   density error
------------------------------------------------------------
      1     -200.0825074094  -2.0205262E+02   7.9074972E-03
      2     -200.0780236181   4.4837913E-03   6.0355953E-03
      3     -200.0457997746   3.2223844E-02   9.7131090E-03
      4     -199.7442549508   3.0154482E-01   2.4937476E-02
      5     -200.0613656817  -3.1711073E-01   8.5463898E-03
      6     -200.0839317142  -2.2566032E-02   2.5483282E-03
      7     -200.0855373339  -1.6056197E-03   1.5465315E-03
      8     -200.0859716046  -4.3427072E-04   1.1343728E-03
      9     -200.0860455000  -7.3895329E-05   1.0230057E-03
     10     -200.0861412185  -9.5718489E-05   7.9292530E-04
     11     -200.0860944221   4.6796324E-05   7.4811510E-04
     12     -200.0863375453  -2.4312317E-04   3.4952570E-04
     13     -200.0863380373  -4.9194057E-07   2.8328355E-04
     14     -200.0863315634   6.4738625E-06   2.3957980E-04
     15     -200.0863432071  -1.1643701E-05   2.3796037E-04
     16     -200.0863432393  -3.2165730E-08   2.3773143E-04
     17     -200.0863427971   4.4214883E-07   2.3703656E-04
     18     -200.0863440754  -1.2782756E-06   1.9567510E-04
     19     -200.0863447303  -6.5488683E-07   1.6840852E-04
     20     -200.0863449559  -2.2567539E-07   1.5358862E-04
     21     -200.0863458166  -8.6065168E-07   9.6468740E-05
     22     -200.0863461008  -2.8418219E-07   5.8983975E-05
     23     -200.0863463015  -2.0073054E-07   2.2368843E-05
     24     -200.0863463282  -2.6667209E-08   1.0497906E-05
------------------------------------------------------------

 total:                                  33.643 sec
 * total energy  :  -200.0863463 Eh     change       -0.1401783E+00 Eh
   gradient norm :     0.1430801 Eh/α   predicted    -0.1442058E+00 (   2.87%)
   displ. norm   :     0.8680985 α      lambda       -0.1177414E+00
   maximum displ.:     0.3068586 α      in ANC's #74, #78, #77, ...

........................................................................
.............................. CYCLE    7 ..............................
........................................................................
------------------------------------------------------------
  cycle        total energy    energy error   density error
------------------------------------------------------------
      1     -200.1794501536  -2.0227392E+02   7.0545698E-03
      2     -200.1458955748   3.3554579E-02   9.6239562E-03
      3     -199.9022941381   2.4360144E-01   2.2604268E-02
      4     -200.1685406500  -2.6624651E-01   6.9012401E-03
      5     -200.1554962988   1.3044351E-02   8.0899793E-03
      6     -200.1774201299  -2.1923831E-02   4.2712074E-03
      7     -200.1825021860  -5.0820562E-03   1.6865603E-03
      8     -200.1830005956  -4.9840959E-04   1.4248181E-03
      9     -200.1832310352  -2.3043961E-04   8.6361148E-04
     10     -200.1833336135  -1.0257830E-04   6.1701866E-04
     11     -200.1833717322  -3.8118644E-05   4.8743231E-04
     12     -200.1834754464  -1.0371418E-04   4.7265912E-04
     13     -200.1834784570  -3.0106139E-06   4.2253726E-04
     14     -200.1834674515   1.1005436E-05   5.0415705E-04
     15     -200.1834725019  -5.0503466E-06   4.5980512E-04
     16     -200.1834645018   8.0000827E-06   4.6822870E-04
     17     -200.1834636154   8.8639257E-07   4.5749328E-04
     18     -200.1834683129  -4.6974697E-06   4.1472376E-04
     19     -200.1834815709  -1.3258036E-05   2.5303946E-04
     20     -200.1834854783  -3.9074321E-06   1.4927128E-04
     21     -200.1834883065  -2.8281484E-06   4.7630217E-05
     22     -200.1834888128  -5.0631735E-07   1.1546941E-05
------------------------------------------------------------

 total:                                  33.334 sec
 * total energy  :  -200.1834888 Eh     change       -0.9714248E-01 Eh
   gradient norm :     0.1164967 Eh/α   predicted    -0.1032354E+00 (   6.27%)
   displ. norm   :     0.8907839 α      lambda       -0.9479611E-01
   maximum displ.:     0.3253993 α      in ANC's #74, #78, #77, ...

........................................................................
.............................. CYCLE    8 ..............................
........................................................................
------------------------------------------------------------
  cycle        total energy    energy error   density error
------------------------------------------------------------
      1     -200.2495737278  -2.0245962E+02   6.6128540E-03
      2     -200.2370216470   1.2552081E-02   6.9466976E-03
      3     -200.1351302941   1.0189135E-01   1.4731593E-02
      4     -200.1130689306   2.2061364E-02   1.5581021E-02
      5     -200.2443871826  -1.3131825E-01   4.9742108E-03
      6     -200.2403807615   4.0064211E-03   5.1353868E-03
      7     -200.2492100337  -8.8292723E-03   2.4136558E-03
      8     -200.2493269041  -1.1687034E-04   2.2741606E-03
      9     -200.2503884889  -1.0615848E-03   1.4490952E-03
     10     -200.2513906119  -1.0021230E-03   7.4939988E-04
     11     -200.2514548779  -6.4265961E-05   7.5936983E-04
     12     -200.2514585487  -3.6708345E-06   7.3516078E-04
     13     -200.2514436832   1.4865467E-05   7.3774856E-04
     14     -200.2514776367  -3.3953501E-05   4.8974044E-04
     15     -200.2515006692  -2.3032469E-05   2.9946508E-04
     16     -200.2514974540   3.2152102E-06   2.4524223E-04
     17     -200.2515082552  -1.0801205E-05   1.3500940E-04
     18     -200.2515097198  -1.4646528E-06   7.9976034E-05
     19     -200.2515083512   1.3686277E-06   6.7091764E-05
     20     -200.2515100874  -1.7361590E-06   2.9149705E-05
     21     -200.2515102768  -1.8941648E-07   2.1453906E-05
     22     -200.2515102802  -3.3903973E-09   1.3591055E-05
------------------------------------------------------------

 total:                                  32.144 sec
 * total energy  :  -200.2515103 Eh     change       -0.6802147E-01 Eh
   gradient norm :     0.1330462 Eh/α   predicted    -0.8500834E-01 (  24.97%)
   displ. norm   :     0.8117633 α      lambda       -0.7470355E-01
   maximum displ.:     0.3184214 α      in ANC's #74, #77, #78, ...

........................................................................
.............................. CYCLE    9 ..............................
........................................................................
------------------------------------------------------------
  cycle        total energy    energy error   density error
------------------------------------------------------------
      1     -200.3061872377  -2.0258210E+02   6.0601203E-03
      2     -200.2861104132   2.0076825E-02   7.5286451E-03
      3     -200.1922326454   9.3877768E-02   1.3796156E-02
      4     -200.2369804104  -4.4747765E-02   1.2255314E-02
      5     -200.3009022536  -6.3921843E-02   4.2966371E-03
      6     -200.2862237606   1.4678493E-02   6.4040160E-03
      7     -200.2972174076  -1.0993647E-02   4.1604389E-03
      8     -200.3067251410  -9.5077334E-03   1.6338495E-03
      9     -200.3070324809  -3.0733984E-04   1.8377670E-03
     10     -200.3069329477   9.9533110E-05   1.8660677E-03
     11     -200.3068824283   5.0519494E-05   1.8624491E-03
     12     -200.3070071742  -1.2474593E-04   1.5549881E-03
     13     -200.3070922766  -8.5102408E-05   6.5736369E-04
     14     -200.3072046013  -1.1232473E-04   5.2029647E-04
     15     -200.3072045602   4.1138463E-08   4.5345127E-04
     16     -200.3072209168  -1.6356621E-05   3.0685683E-04
     17     -200.3072236517  -2.7348505E-06   2.2370868E-04
     18     -200.3072225038   1.1478964E-06   1.6499797E-04
     19     -200.3072265682  -4.0644076E-06   4.5213582E-05
     20     -200.3072266545  -8.6310706E-08   3.0735319E-05
     21     -200.3072265908   6.3665937E-08   2.3966085E-05
     22     -200.3072267024  -1.1161444E-07   7.0384349E-06
------------------------------------------------------------

 total:                                  31.309 sec
 * total energy  :  -200.3072267 Eh     change       -0.5571642E-01 Eh
   gradient norm :     0.0734702 Eh/α   predicted    -0.6196507E-01 (  11.22%)
   displ. norm   :     0.8252640 α      lambda       -0.4758988E-01
   maximum displ.:     0.3198837 α      in ANC's #74, #77, #73, ...

........................................................................
.............................. CYCLE   10 ..............................
........................................................................
------------------------------------------------------------
  cycle        total energy    energy error   density error
------------------------------------------------------------
      1     -200.3466450207  -2.0269222E+02   6.0108751E-03
      2     -200.3411487678   5.4962530E-03   5.1431926E-03
      3     -200.0978304506   2.4331832E-01   2.0579437E-02
      4     -200.3252355795  -2.2740513E-01   7.6278633E-03
      5     -200.3354959663  -1.0260387E-02   6.5149452E-03
      6     -200.3467377505  -1.1241784E-02   1.3566611E-03
      7     -200.3462928641   4.4488640E-04   1.3620567E-03
      8     -200.3469299129  -6.3704883E-04   7.8860513E-04
      9     -200.3470332356  -1.0332268E-04   5.7623567E-04
     10     -200.3470949567  -6.1721077E-05   5.0358869E-04
     11     -200.3471089697  -1.4012986E-05   5.3609718E-04
     12     -200.3471006456   8.3240365E-06   5.7589975E-04
     13     -200.3470902125   1.0433188E-05   5.7282016E-04
     14     -200.3471043403  -1.4127815E-05   4.0758727E-04
     15     -200.3471103374  -5.9971062E-06   3.1103018E-04
     16     -200.3471201793  -9.8418718E-06   1.6886093E-04
     17     -200.3471226328  -2.4535633E-06   5.1183816E-05
     18     -200.3471226962  -6.3335051E-08   2.4620429E-05
     19     -200.3471227088  -1.2628902E-08   1.4453607E-05
------------------------------------------------------------

 total:                                  25.018 sec
 * total energy  :  -200.3471227 Eh     change       -0.3989601E-01 Eh
   gradient norm :     0.0546311 Eh/α   predicted    -0.4000074E-01 (   0.26%)
   displ. norm   :     0.8370187 α      lambda       -0.3680593E-01
   maximum displ.:     0.2908703 α      in ANC's #74, #77, #52, ...

........................................................................
.............................. CYCLE   11 ..............................
........................................................................
------------------------------------------------------------
  cycle        total energy    energy error   density error
------------------------------------------------------------
      1     -200.3734612483  -2.0277675E+02   6.4841084E-03
      2     -200.3327615909   4.0699657E-02   1.0721516E-02
      3     -200.3114045575   2.1357033E-02   1.0877741E-02
      4     -200.3212290689  -9.8245114E-03   1.0880177E-02
      5     -200.3391752092  -1.7946140E-02   8.9563963E-03
      6     -200.3533571743  -1.4181965E-02   6.6418277E-03
      7     -200.3670557400  -1.3698566E-02   3.6197936E-03
      8     -200.3734906459  -6.4349059E-03   1.5098364E-03
      9     -200.3737355330  -2.4488703E-04   2.2663975E-03
     10     -200.3737170112   1.8521732E-05   2.2201716E-03
     11     -200.3739948712  -2.7785998E-04   1.6649653E-03
     12     -200.3741592396  -1.6436842E-04   4.9409144E-04
     13     -200.3741423745   1.6865127E-05   4.4226435E-04
     14     -200.3741745523  -3.2177749E-05   4.1298561E-04
     15     -200.3741791239  -4.5716218E-06   3.3609782E-04
     16     -200.3741883883  -9.2644673E-06   2.2348057E-04
     17     -200.3741942607  -5.8723965E-06   9.1853875E-05
     18     -200.3741949274  -6.6667567E-07   4.4931460E-05
     19     -200.3741951581  -2.3063922E-07   2.5971165E-05
     20     -200.3741952597  -1.0163797E-07   5.7773993E-06
------------------------------------------------------------

 total:                                  30.471 sec
 * total energy  :  -200.3741953 Eh     change       -0.2707255E-01 Eh
   gradient norm :     0.0522761 Eh/α   predicted    -0.3129612E-01 (  15.60%)
   displ. norm   :     0.8016577 α      lambda       -0.2873683E-01
   maximum displ.:     0.2618519 α      in ANC's #74, #52, #55, ...

........................................................................
.............................. CYCLE   12 ..............................
........................................................................
------------------------------------------------------------
  cycle        total energy    energy error   density error
------------------------------------------------------------
      1     -200.3920055946  -2.0285327E+02   6.8209309E-03
      2     -200.3411473101   5.0858285E-02   1.0688392E-02
      3     -200.2449871304   9.6160180E-02   1.6006865E-02
      4     -200.3817589011  -1.3677177E-01   6.0242249E-03
      5     -200.3744163172   7.3425839E-03   6.8390158E-03
      6     -200.3713818738   3.0344434E-03   6.8197826E-03
      7     -200.3762737545  -4.8918807E-03   5.6908056E-03
      8     -200.3871280415  -1.0854287E-02   3.1748653E-03
      9     -200.3932056715  -6.0776300E-03   2.5997528E-03
     10     -200.3932647462  -5.9074708E-05   2.3335990E-03
     11     -200.3932753496  -1.0603418E-05   2.1672484E-03
     12     -200.3933013602  -2.6010506E-05   1.6204729E-03
     13     -200.3933545481  -5.3187988E-05   1.0876966E-03
     14     -200.3933609410  -6.3928327E-06   6.5486658E-04
     15     -200.3933874165  -2.6475512E-05   6.8466622E-04
     16     -200.3933819305   5.4859395E-06   5.9735416E-04
     17     -200.3934028831  -2.0952595E-05   1.4784309E-04
     18     -200.3934035073  -6.2420540E-07   1.3170337E-04
     19     -200.3934042267  -7.1935918E-07   6.1657297E-05
     20     -200.3934046609  -4.3416148E-07   1.2562899E-05
------------------------------------------------------------

 total:                                  26.880 sec
 * total energy  :  -200.3934047 Eh     change       -0.1920940E-01 Eh
   gradient norm :     0.0515489 Eh/α   predicted    -0.2360237E-01 (  22.87%)
   displ. norm   :     0.7682083 α      lambda       -0.2179377E-01
   maximum displ.:     0.2168657 α      in ANC's #52, #55, #73, ...

........................................................................
.............................. CYCLE   13 ..............................
........................................................................
------------------------------------------------------------
  cycle        total energy    energy error   density error
------------------------------------------------------------
      1     -200.4018184916  -2.0289936E+02   6.4853122E-03
      2     -200.3781010437   2.3717448E-02   8.6867551E-03
      3     -200.2942034967   8.3897547E-02   1.4242944E-02
      4     -200.3735533631  -7.9349866E-02   8.2230877E-03
      5     -200.3804365705  -6.8832074E-03   7.0998125E-03
      6     -200.3932644867  -1.2827916E-02   4.3151953E-03
      7     -200.4006263854  -7.3618987E-03   2.0008657E-03
      8     -200.4023523192  -1.7259338E-03   1.6758930E-03
      9     -200.4024241758  -7.1856575E-05   1.7392426E-03
     10     -200.4024251731  -9.9735772E-07   1.4166344E-03
     11     -200.4023106753   1.1449779E-04   6.0844420E-04
     12     -200.4024466636  -1.3598824E-04   3.1303413E-04
     13     -200.4024855711  -3.8907531E-05   2.2165800E-04
     14     -200.4024862106  -6.3947419E-07   2.1262830E-04
     15     -200.4024881506  -1.9399614E-06   1.1946212E-04
     16     -200.4024885792  -4.2863542E-07   5.9950941E-05
     17     -200.4024888322  -2.5299585E-07   2.0188913E-05
     18     -200.4024888340  -1.8507365E-09   1.1649750E-05
------------------------------------------------------------

 total:                                  23.626 sec
 * total energy  :  -200.4024888 Eh     change       -0.9084173E-02 Eh
   gradient norm :     0.0865213 Eh/α   predicted    -0.1732763E-01 (  90.75%)
   displ. norm   :     0.6258635 α      lambda       -0.2283854E-01
   maximum displ.:     0.1461517 α      in ANC's #27, #52, #74, ...

........................................................................
.............................. CYCLE   14 ..............................
........................................................................
------------------------------------------------------------
  cycle        total energy    energy error   density error
------------------------------------------------------------
      1     -200.4137850761  -2.0291025E+02   5.5332487E-03
      2     -200.3493580733   6.4427003E-02   1.2183747E-02
      3     -200.3846180633  -3.5259990E-02   9.1437117E-03
      4     -200.3985998331  -1.3981770E-02   6.4118441E-03
      5     -200.4040423211  -5.4424880E-03   5.1366251E-03
      6     -200.4126853449  -8.6430238E-03   2.1725479E-03
      7     -200.4149091971  -2.2238521E-03   9.8876062E-04
      8     -200.4146355293   2.7366773E-04   1.5315081E-03
      9     -200.4146486679  -1.3138567E-05   1.5285601E-03
     10     -200.4149527142  -3.0404633E-04   4.4785103E-04
     11     -200.4145213735   4.3134074E-04   1.2790116E-03
     12     -200.4148673990  -3.4602555E-04   5.8330370E-04
     13     -200.4149617779  -9.4378865E-05   1.0683257E-04
     14     -200.4149626641  -8.8620138E-07   8.0225713E-05
     15     -200.4149626950  -3.0917931E-08   7.3528873E-05
     16     -200.4149627617  -6.6652035E-08   5.9168554E-05
     17     -200.4149634087  -6.4699950E-07   2.8388787E-05
     18     -200.4149636024  -1.9373186E-07   4.5616245E-06
------------------------------------------------------------

 total:                                  17.686 sec
 * total energy  :  -200.4149636 Eh     change       -0.1247477E-01 Eh
   gradient norm :     0.0545308 Eh/α   predicted    -0.1589226E-01 (  27.40%)
   displ. norm   :     0.6450928 α      lambda       -0.1870211E-01
   maximum displ.:     0.1831105 α      in ANC's #27, #49, #35, ...

........................................................................
.............................. CYCLE   15 ..............................
........................................................................
------------------------------------------------------------
  cycle        total energy    energy error   density error
------------------------------------------------------------
      1     -200.4206785249  -2.0293926E+02   6.2738588E-03
      2     -200.3762299154   4.4448609E-02   1.0444092E-02
      3     -200.3569003274   1.9329588E-02   1.2184287E-02
      4     -200.4177048392  -6.0804512E-02   3.6670412E-03
      5     -200.4156104536   2.0943856E-03   4.1326594E-03
      6     -200.4157518114  -1.4135788E-04   3.9693636E-03
      7     -200.4177656771  -2.0138657E-03   3.1457840E-03
      8     -200.4217454178  -3.9797406E-03   8.9512577E-04
      9     -200.4210394290   7.0598883E-04   1.8425514E-03
     10     -200.4209358165   1.0361249E-04   1.9883903E-03
     11     -200.4204528015   4.8301498E-04   2.4867405E-03
     12     -200.4216402780  -1.1874765E-03   8.3803763E-04
     13     -200.4217987514  -1.5847342E-04   1.8108876E-04
     14     -200.4218056514  -6.8999709E-06   7.7345411E-05
     15     -200.4218062335  -5.8211091E-07   2.6858075E-05
     16     -200.4218062929  -5.9368602E-08   1.4487655E-05
------------------------------------------------------------

 total:                                  23.562 sec
 * total energy  :  -200.4218063 Eh     change       -0.6842690E-02 Eh
   gradient norm :     0.0673850 Eh/α   predicted    -0.1324245E-01 (  93.53%)
   displ. norm   :     0.6139653 α      lambda       -0.1754925E-01
   maximum displ.:     0.1560057 α      in ANC's #32, #24, #9, ...

........................................................................
.............................. CYCLE   16 ..............................
........................................................................
------------------------------------------------------------
  cycle        total energy    energy error   density error
------------------------------------------------------------
      1     -200.4318631267  -2.0295449E+02   4.8728078E-03
      2     -200.4317395792   1.2354750E-04   2.9698160E-03
      3     -200.3939448731   3.7794706E-02   9.7687662E-03
      4     -200.4135332145  -1.9588341E-02   7.2447312E-03
      5     -200.4314131732  -1.7879959E-02   1.4171113E-03
      6     -200.4320815171  -6.6834395E-04   4.9253663E-04
      7     -200.4319963201   8.5197019E-05   8.2814239E-04
      8     -200.4318679273   1.2839274E-04   1.0285296E-03
      9     -200.4318817584  -1.3831037E-05   9.8961675E-04
     10     -200.4321805559  -2.9879747E-04   8.4214064E-05
     11     -200.4321788436   1.7122429E-06   1.3828477E-04
     12     -200.4321812758  -2.4322334E-06   9.1810717E-05
     13     -200.4321831403  -1.8644962E-06   1.8544398E-05
     14     -200.4321831401   2.2964741E-10   1.7589715E-05
------------------------------------------------------------

 total:                                  21.548 sec
 * total energy  :  -200.4321831 Eh     change       -0.1037685E-01 Eh
   gradient norm :     0.0572925 Eh/α   predicted    -0.1208225E-01 (  16.43%)
   displ. norm   :     0.6795918 α      lambda       -0.1972505E-01
   maximum displ.:     0.2022126 α      in ANC's #27, #33, #24, ...

........................................................................
.............................. CYCLE   17 ..............................
........................................................................
------------------------------------------------------------
  cycle        total energy    energy error   density error
------------------------------------------------------------
      1     -200.4358981256  -2.0294975E+02   6.1621634E-03
      2     -200.4065337670   2.9364359E-02   9.7155414E-03
      3     -200.3865309515   2.0002815E-02   1.1503797E-02
      4     -200.4208166269  -3.4285675E-02   6.4713939E-03
      5     -200.4323451320  -1.1528505E-02   3.3608483E-03
      6     -200.4366806371  -4.3355051E-03   7.5198069E-04
      7     -200.4358262441   8.5439302E-04   1.8873943E-03
      8     -200.4358091943   1.7049791E-05   1.8363460E-03
      9     -200.4367222640  -9.1306976E-04   3.6514347E-04
     10     -200.4366605539   6.1710116E-05   6.4583586E-04
     11     -200.4366868866  -2.6332674E-05   5.4993940E-04
     12     -200.4367553202  -6.8433587E-05   2.3857925E-04
     13     -200.4367722657  -1.6945522E-05   4.6228175E-05
     14     -200.4367722905  -2.4754598E-08   3.9312272E-05
     15     -200.4367725763  -2.8581672E-07   1.9349419E-05
------------------------------------------------------------

 total:                                  22.730 sec
 * total energy  :  -200.4367726 Eh     change       -0.4589436E-02 Eh
   gradient norm :     0.0882537 Eh/α   predicted    -0.1441749E-01 ( 214.15%)
   displ. norm   :     0.5417379 α      lambda       -0.1885130E-01
   maximum displ.:     0.1548631 α      in ANC's #24, #14, #32, ...

........................................................................
.............................. CYCLE   18 ..............................
........................................................................
------------------------------------------------------------
  cycle        total energy    energy error   density error
------------------------------------------------------------
      1     -200.4473065886  -2.0295906E+02   4.3328511E-03
      2     -200.4116865567   3.5620032E-02   1.0229337E-02
      3     -200.4273386867  -1.5652130E-02   7.9157380E-03
      4     -200.4475055190  -2.0166832E-02   1.5063025E-03
      5     -200.4475450826  -3.9563574E-05   1.1963166E-03
      6     -200.4479653181  -4.2023551E-04   6.0732512E-04
      7     -200.4479868248  -2.1506657E-05   5.4197761E-04
      8     -200.4480436560  -5.6831194E-05   3.3331086E-04
      9     -200.4480762213  -3.2565315E-05   1.0717216E-04
     10     -200.4480793603  -3.1390128E-06   4.8495841E-05
     11     -200.4480794394  -7.9106030E-08   4.4446935E-05
     12     -200.4480800421  -6.0268536E-07   9.8634261E-06
------------------------------------------------------------

 total:                                  19.524 sec
 * total energy  :  -200.4480800 Eh     change       -0.1130747E-01 Eh
   gradient norm :     0.0473270 Eh/α   predicted    -0.1219189E-01 (   7.82%)
   displ. norm   :     0.6480837 α      lambda       -0.1546059E-01
   maximum displ.:     0.1950721 α      in ANC's #24, #27, #18, ...

........................................................................
.............................. CYCLE   19 ..............................
........................................................................
------------------------------------------------------------
  cycle        total energy    energy error   density error
------------------------------------------------------------
      1     -200.4530483040  -2.0297585E+02   5.5494896E-03
      2     -200.4225765407   3.0471763E-02   9.5504215E-03
      3     -200.4102907444   1.2285796E-02   1.0946968E-02
      4     -200.4516657410  -4.1374997E-02   2.5913035E-03
      5     -200.4534924642  -1.8267232E-03   1.0634430E-03
      6     -200.4537841494  -2.9168524E-04   5.6141692E-04
      7     -200.4537305786   5.3570832E-05   7.0906307E-04
      8     -200.4536521295   7.8449143E-05   8.2183838E-04
      9     -200.4537898991  -1.3776960E-04   4.7071902E-04
     10     -200.4538699151  -8.0016028E-05   8.4827818E-05
     11     -200.4538551702   1.4744854E-05   2.3557053E-04
     12     -200.4538626277  -7.4574369E-06   1.6767702E-04
     13     -200.4538702573  -7.6296512E-06   4.7510899E-05
     14     -200.4538700100   2.4732716E-07   5.5297577E-05
     15     -200.4538706772  -6.6723700E-07   2.0322529E-05
     16     -200.4538707841  -1.0687876E-07   6.1926436E-06
------------------------------------------------------------

 total:                                  21.328 sec
 * total energy  :  -200.4538708 Eh     change       -0.5790742E-02 Eh
   gradient norm :     0.0600338 Eh/α   predicted    -0.1097712E-01 (  89.56%)
   displ. norm   :     0.6386150 α      lambda       -0.1412880E-01
   maximum displ.:     0.1948630 α      in ANC's #24, #14, #1, ...

........................................................................
.............................. CYCLE   20 ..............................
........................................................................
------------------------------------------------------------
  cycle        total energy    energy error   density error
------------------------------------------------------------
      1     -200.4632674953  -2.0298029E+02   4.0960732E-03
      2     -200.4491655090   1.4101986E-02   6.8077504E-03
      3     -200.4320317629   1.7133746E-02   9.6292886E-03
      4     -200.4630004710  -3.0968708E-02   1.2605435E-03
      5     -200.4632715358  -2.7106488E-04   9.3758927E-04
      6     -200.4633644531  -9.2917223E-05   7.7508635E-04
      7     -200.4634788985  -1.1444539E-04   4.8849908E-04
      8     -200.4635420573  -6.3158850E-05   2.0386773E-04
      9     -200.4635538594  -1.1802116E-05   5.7598564E-05
     10     -200.4635547869  -9.2747220E-07   2.5521541E-05
     11     -200.4635547409   4.5967880E-08   2.6826558E-05
     12     -200.4635549375  -1.9654286E-07   1.0049152E-05
------------------------------------------------------------

 total:                                  16.009 sec
 * total energy  :  -200.4635549 Eh     change       -0.9684153E-02 Eh
   gradient norm :     0.0449306 Eh/α   predicted    -0.9945503E-02 (   2.70%)
   displ. norm   :     0.6949294 α      lambda       -0.1387088E-01
   maximum displ.:     0.2592468 α      in ANC's #24, #33, #14, ...
 * RMSD in coord.:     1.0497003 α      energy gain  -0.1832210E+01 Eh

generating ANC from exact Hessian ...
Using Lindh-Hessian (1995)
 Shifting diagonal of input Hessian by    1.0132764636352223E-002
 Lowest  eigenvalues of input Hessian
    0.010000    0.000000    0.000000    0.000000    0.000000    0.000000
    0.000000    0.010204    0.010210    0.010281    0.010331    0.010496
    0.010661    0.010685    0.010815    0.011019    0.011160    0.011319
 Highest eigenvalues
    2.354504    2.374817    2.401358    2.404041    2.418636    2.421476


........................................................................
.............................. CYCLE   21 ..............................
........................................................................
------------------------------------------------------------
  cycle        total energy    energy error   density error
------------------------------------------------------------
      1     -200.4671311886  -2.0298361E+02   5.3944697E-03
      2     -200.4315612607   3.5569928E-02   1.0298780E-02
      3     -200.4356376424  -4.0763817E-03   9.8258611E-03
      4     -200.4647583735  -2.9120731E-02   2.9999756E-03
      5     -200.4672689560  -2.5105825E-03   1.4565150E-03
      6     -200.4678820279  -6.1307185E-04   6.8352499E-04
      7     -200.4680230491  -1.4102119E-04   2.6641591E-04
      8     -200.4680330604  -1.0011283E-05   1.7202989E-04
      9     -200.4680327169   3.4345919E-07   1.5177765E-04
     10     -200.4680390506  -6.3336450E-06   5.8800543E-05
     11     -200.4680400078  -9.5718983E-07   2.0262200E-05
     12     -200.4680395678   4.3995712E-07   3.9496923E-05
     13     -200.4680399249  -3.5710974E-07   1.9185342E-05
------------------------------------------------------------

 total:                                  18.535 sec
 * total energy  :  -200.4680399 Eh     change       -0.4484987E-02 Eh
   gradient norm :     0.0677152 Eh/α   predicted     0.0000000E+00 (-100.00%)
   displ. norm   :     0.4689702 α      lambda       -0.1233912E-01
   maximum displ.:     0.1662289 α      in ANC's #26, #13, #11, ...

........................................................................
.............................. CYCLE   22 ..............................
........................................................................
------------------------------------------------------------
  cycle        total energy    energy error   density error
------------------------------------------------------------
      1     -200.4755551124  -2.0299603E+02   4.1199058E-03
      2     -200.3965364320   7.9018680E-02   1.2202295E-02
      3     -200.4548050406  -5.8268609E-02   8.0120738E-03
      4     -200.4541496597   6.5538086E-04   7.5417250E-03
      5     -200.4693701243  -1.5220465E-02   4.0563795E-03
      6     -200.4769724180  -7.6022937E-03   2.4233933E-03
      7     -200.4762412801   7.3113787E-04   3.0098326E-03
      8     -200.4763538595  -1.1257936E-04   2.7379399E-03
      9     -200.4770938001  -7.3994068E-04   1.2505252E-03
     10     -200.4772718662  -1.7806608E-04   1.7658994E-04
     11     -200.4772758195  -3.9532940E-06   2.6562397E-04
     12     -200.4772790642  -3.2446430E-06   1.5487572E-04
     13     -200.4772789142   1.5000987E-07   1.2956735E-04
     14     -200.4772796626  -7.4843956E-07   9.8055022E-05
     15     -200.4772808382  -1.1755942E-06   4.0481931E-05
     16     -200.4772810471  -2.0887600E-07   2.1625606E-05
     17     -200.4772811530  -1.0589378E-07   3.9771934E-06
------------------------------------------------------------

 total:                                  23.950 sec
 * total energy  :  -200.4772812 Eh     change       -0.9241228E-02 Eh
   gradient norm :     0.0259401 Eh/α   predicted    -0.7535462E-02 ( -18.46%)
   displ. norm   :     0.6886993 α      lambda       -0.9212919E-02
   maximum displ.:     0.2546397 α      in ANC's #26, #13, #11, ...

........................................................................
.............................. CYCLE   23 ..............................
........................................................................
------------------------------------------------------------
  cycle        total energy    energy error   density error
------------------------------------------------------------
      1     -200.4842335359  -2.0300483E+02   4.0742433E-03
      2     -200.4468168890   3.7416647E-02   1.0091802E-02
      3     -200.4661857651  -1.9368876E-02   7.6470485E-03
      4     -200.4829680045  -1.6782239E-02   2.2543431E-03
      5     -200.4846842518  -1.7162473E-03   1.0879699E-03
      6     -200.4840078378   6.7641399E-04   1.8938362E-03
      7     -200.4838860259   1.2181197E-04   1.9465522E-03
      8     -200.4845218750  -6.3584913E-04   1.2758643E-03
      9     -200.4850283864  -5.0651139E-04   9.7892411E-05
     10     -200.4850209611   7.4253072E-06   1.8877499E-04
     11     -200.4850296168  -8.6557068E-06   7.1013747E-05
     12     -200.4850308906  -1.2738138E-06   3.7820071E-05
     13     -200.4850309827  -9.2075879E-08   2.8429889E-05
     14     -200.4850311361  -1.5344844E-07   1.5116564E-05
------------------------------------------------------------

 total:                                  20.364 sec
 * total energy  :  -200.4850311 Eh     change       -0.7749983E-02 Eh
   gradient norm :     0.0241372 Eh/α   predicted    -0.6791333E-02 ( -12.37%)
   displ. norm   :     0.8059468 α      lambda       -0.8659554E-02
   maximum displ.:     0.2913988 α      in ANC's #26, #13, #11, ...

........................................................................
.............................. CYCLE   24 ..............................
........................................................................
------------------------------------------------------------
  cycle        total energy    energy error   density error
------------------------------------------------------------
      1     -200.4920404068  -2.0300790E+02   4.2854814E-03
      2     -200.4514888489   4.0551558E-02   1.0362411E-02
      3     -200.4728354328  -2.1346584E-02   7.8750080E-03
      4     -200.4885388195  -1.5703387E-02   3.2539538E-03
      5     -200.4925706211  -4.0318016E-03   1.0028116E-03
      6     -200.4917966860   7.7393508E-04   2.0625353E-03
      7     -200.4914105836   3.8610237E-04   2.2941253E-03
      8     -200.4919155033  -5.0491968E-04   1.8448285E-03
      9     -200.4929076387  -9.9213536E-04   1.5694469E-04
     10     -200.4928974733   1.0165375E-05   2.6356390E-04
     11     -200.4929140218  -1.6548519E-05   8.8887972E-05
     12     -200.4929160457  -2.0239309E-06   4.5142792E-05
     13     -200.4929160156   3.0092423E-08   3.8939738E-05
     14     -200.4929162957  -2.8006630E-07   2.0340754E-05
     15     -200.4929163618  -6.6084539E-08   1.2134138E-05
------------------------------------------------------------

 total:                                  15.503 sec
 * total energy  :  -200.4929164 Eh     change       -0.7885226E-02 Eh
   gradient norm :     0.0354975 Eh/α   predicted    -0.7142197E-02 (  -9.42%)
   displ. norm   :     0.8321677 α      lambda       -0.9071499E-02
   maximum displ.:     0.2920682 α      in ANC's #11, #13, #26, ...

........................................................................
.............................. CYCLE   25 ..............................
........................................................................
------------------------------------------------------------
  cycle        total energy    energy error   density error
------------------------------------------------------------
      1     -200.5005696123  -2.0301288E+02   4.1145289E-03
      2     -200.4718616177   2.8707995E-02   9.2344141E-03
      3     -200.4818532193  -9.9916017E-03   7.7555162E-03
      4     -200.4995325549  -1.7679336E-02   1.9341544E-03
      5     -200.5007906080  -1.2580531E-03   9.3134194E-04
      6     -200.5008687671  -7.8159081E-05   8.6616958E-04
      7     -200.5008316370   3.7130083E-05   9.0642336E-04
      8     -200.5009859816  -1.5434465E-04   5.7218561E-04
      9     -200.5010836171  -9.7635478E-05   1.1097813E-04
     10     -200.5010867752  -3.1580812E-06   5.3370090E-05
     11     -200.5010871318  -3.5661873E-07   3.9643278E-05
     12     -200.5010876071  -4.7528147E-07   6.9917972E-06
------------------------------------------------------------

 total:                                  10.899 sec
 * total energy  :  -200.5010876 Eh     change       -0.8171245E-02 Eh
   gradient norm :     0.0333933 Eh/α   predicted    -0.7676789E-02 (  -6.05%)
   displ. norm   :     0.7921049 α      lambda       -0.8557985E-02
   maximum displ.:     0.2953161 α      in ANC's #11, #13, #26, ...

........................................................................
.............................. CYCLE   26 ..............................
........................................................................
------------------------------------------------------------
  cycle        total energy    energy error   density error
------------------------------------------------------------
      1     -200.5082438470  -2.0302207E+02   3.7794882E-03
      2     -200.5072849249   9.5892214E-04   2.8334647E-03
      3     -200.4597419725   4.7542952E-02   1.1004411E-02
      4     -200.5055315818  -4.5789609E-02   2.7688835E-03
      5     -200.5081094071  -2.5778253E-03   8.4819787E-04
      6     -200.5081978097  -8.8402589E-05   8.7733148E-04
      7     -200.5079605164   2.3729326E-04   1.2325660E-03
      8     -200.5079659440  -5.4275855E-06   1.2113644E-03
      9     -200.5083014016  -3.3545760E-04   5.4091078E-04
     10     -200.5083710058  -6.9604216E-05   3.3577501E-04
     11     -200.5083928314  -2.1825540E-05   1.5990258E-04
     12     -200.5083994721  -6.6407525E-06   1.4921776E-05
     13     -200.5083994269   4.5228859E-08   1.7280774E-05
------------------------------------------------------------

 total:                                   8.730 sec
 * total energy  :  -200.5083994 Eh     change       -0.7311820E-02 Eh
   gradient norm :     0.0220414 Eh/α   predicted    -0.6963761E-02 (  -4.76%)
   displ. norm   :     0.8174675 α      lambda       -0.6814571E-02
   maximum displ.:     0.3242489 α      in ANC's #11, #13, #9, ...

........................................................................
.............................. CYCLE   27 ..............................
........................................................................
------------------------------------------------------------
  cycle        total energy    energy error   density error
------------------------------------------------------------
      1     -200.5142330172  -2.0302279E+02   3.8787923E-03
      2     -200.5139373631   2.9565405E-04   2.5195450E-03
      3     -200.4738361143   4.0101249E-02   1.0227844E-02
      4     -200.5088736169  -3.5037503E-02   3.8126701E-03
      5     -200.5140858520  -5.2122351E-03   8.0755986E-04
      6     -200.5142908713  -2.0501932E-04   4.6642677E-04
      7     -200.5140973965   1.9347484E-04   9.1094586E-04
      8     -200.5141194396  -2.2043090E-05   8.5869982E-04
      9     -200.5143220159  -2.0257628E-04   2.3008750E-04
     10     -200.5143385514  -1.6535526E-05   1.2545710E-04
     11     -200.5143385901  -3.8671885E-08   1.1547122E-04
     12     -200.5143418472  -3.2571700E-06   2.7892742E-05
     13     -200.5143418047   4.2512397E-08   2.9275244E-05
     14     -200.5143420472  -2.4251378E-07   7.5703666E-06
------------------------------------------------------------

 total:                                   6.043 sec
 * total energy  :  -200.5143420 Eh     change       -0.5942620E-02 Eh
   gradient norm :     0.0241853 Eh/α   predicted    -0.5684220E-02 (  -4.35%)
   displ. norm   :     0.7678924 α      lambda       -0.6278455E-02
   maximum displ.:     0.3331739 α      in ANC's #11, #13, #9, ...

........................................................................
.............................. CYCLE   28 ..............................
........................................................................
------------------------------------------------------------
  cycle        total energy    energy error   density error
------------------------------------------------------------
      1     -200.5192054260  -2.0303650E+02   3.6234669E-03
      2     -200.5084598258   1.0745600E-02   6.0118184E-03
      3     -200.4968045633   1.1655263E-02   8.3008887E-03
      4     -200.5182060726  -2.1401509E-02   1.6722652E-03
      5     -200.5191234375  -9.1736484E-04   8.6208801E-04
      6     -200.5193453604  -2.2192298E-04   3.6010456E-04
      7     -200.5193910996  -4.5739113E-05   9.0041122E-05
      8     -200.5193904659   6.3361881E-07   9.0536111E-05
      9     -200.5193919959  -1.5299875E-06   4.5017079E-05
     10     -200.5193925643  -5.6841483E-07   1.7348118E-05
------------------------------------------------------------

 total:                                   4.253 sec
 * total energy  :  -200.5193926 Eh     change       -0.5050517E-02 Eh
   gradient norm :     0.0217710 Eh/α   predicted    -0.4990307E-02 (  -1.19%)
   displ. norm   :     0.8360792 α      lambda       -0.5392233E-02
   maximum displ.:     0.3550859 α      in ANC's #11, #13, #9, ...

........................................................................
.............................. CYCLE   29 ..............................
........................................................................
------------------------------------------------------------
  cycle        total energy    energy error   density error
------------------------------------------------------------
      1     -200.5232324523  -2.0302781E+02   4.0667870E-03
      2     -200.5024293110   2.0803141E-02   8.0855850E-03
      3     -200.5032951838  -8.6587273E-04   7.9849579E-03
      4     -200.5206386617  -1.7343478E-02   2.5520938E-03
      5     -200.5234134870  -2.7748254E-03   5.4068496E-04
      6     -200.5234966373  -8.3150278E-05   2.6581753E-04
      7     -200.5234930343   3.6030025E-06   2.7929819E-04
      8     -200.5235059118  -1.2877542E-05   1.8539316E-04
      9     -200.5235144424  -8.5305732E-06   5.4556387E-05
     10     -200.5235152245  -7.8206730E-07   2.1650087E-05
     11     -200.5235152787  -5.4227144E-08   1.6373394E-05
------------------------------------------------------------

 total:                                   5.009 sec
 * total energy  :  -200.5235153 Eh     change       -0.4122714E-02 Eh
   gradient norm :     0.0275742 Eh/α   predicted    -0.4580782E-02 (  11.11%)
   displ. norm   :     0.6841577 α      lambda       -0.4063919E-02
   maximum displ.:     0.3308918 α      in ANC's #11, #9, #13, ...

........................................................................
.............................. CYCLE   30 ..............................
........................................................................
------------------------------------------------------------
  cycle        total energy    energy error   density error
------------------------------------------------------------
      1     -200.5268299044  -2.0303737E+02   3.0066530E-03
      2     -200.5267652979   6.4606557E-05   1.8366731E-03
      3     -200.5133455781   1.3419720E-02   6.0745571E-03
      4     -200.5201523541  -6.8067760E-03   4.4274813E-03
      5     -200.5267933941  -6.6410400E-03   4.8582693E-04
      6     -200.5268628148  -6.9420726E-05   1.7090616E-04
      7     -200.5268710021  -8.1873638E-06   7.3190315E-05
      8     -200.5268719103  -9.0817963E-07   3.9691786E-05
      9     -200.5268719682  -5.7859324E-08   2.5622102E-05
     10     -200.5268721699  -2.0173866E-07   7.8456507E-06
------------------------------------------------------------

 total:                                   3.898 sec
 * total energy  :  -200.5268722 Eh     change       -0.3356891E-02 Eh
   gradient norm :     0.0191013 Eh/α   predicted    -0.2983066E-02 ( -11.14%)
   displ. norm   :     0.7253970 α      lambda       -0.3641783E-02
   maximum displ.:     0.3264380 α      in ANC's #11, #9, #13, ...

........................................................................
.............................. CYCLE   31 ..............................
........................................................................
------------------------------------------------------------
  cycle        total energy    energy error   density error
------------------------------------------------------------
      1     -200.5291755546  -2.0305261E+02   3.1748577E-03
      2     -200.5228595867   6.3159679E-03   4.6731758E-03
      3     -200.5067731151   1.6086472E-02   8.2582843E-03
      4     -200.5260928307  -1.9319716E-02   2.6980613E-03
      5     -200.5290986458  -3.0058150E-03   7.5176853E-04
      6     -200.5292465468  -1.4790103E-04   3.2461756E-04
      7     -200.5292722269  -2.5680128E-05   1.5863242E-04
      8     -200.5292769555  -4.7285897E-06   8.8958963E-05
      9     -200.5292786006  -1.6450939E-06   3.5452957E-05
     10     -200.5292789618  -3.6117143E-07   1.3610158E-05
------------------------------------------------------------

 total:                                   3.349 sec
 * total energy  :  -200.5292790 Eh     change       -0.2406792E-02 Eh
   gradient norm :     0.0228945 Eh/α   predicted    -0.2779050E-02 (  15.47%)
   displ. norm   :     0.6968631 α      lambda       -0.3302680E-02
   maximum displ.:     0.3710999 α      in ANC's #11, #9, #13, ...

........................................................................
.............................. CYCLE   32 ..............................
........................................................................
------------------------------------------------------------
  cycle        total energy    energy error   density error
------------------------------------------------------------
      1     -200.5314716054  -2.0305210E+02   3.0289212E-03
      2     -200.5303359449   1.1356604E-03   2.5513066E-03
      3     -200.4950842270   3.5251718E-02   1.0125819E-02
      4     -200.5307156491  -3.5631422E-02   1.3535185E-03
      5     -200.5313739766  -6.5832755E-04   6.8439800E-04
      6     -200.5314226598  -4.8683207E-05   5.3222478E-04
      7     -200.5314604250  -3.7765181E-05   3.9709075E-04
      8     -200.5314999935  -3.9568434E-05   1.6407486E-04
      9     -200.5315077574  -7.7639664E-06   4.3165842E-05
     10     -200.5315076353   1.2211322E-07   4.6173906E-05
     11     -200.5315082333  -5.9795588E-07   1.0457122E-05
------------------------------------------------------------

 total:                                   4.716 sec
 * total energy  :  -200.5315082 Eh     change       -0.2229271E-02 Eh
   gradient norm :     0.0162449 Eh/α   predicted    -0.2453276E-02 (  10.05%)
   displ. norm   :     0.6615799 α      lambda       -0.2062308E-02
   maximum displ.:     0.2785051 α      in ANC's #11, #9, #13, ...

........................................................................
.............................. CYCLE   33 ..............................
........................................................................
------------------------------------------------------------
  cycle        total energy    energy error   density error
------------------------------------------------------------
      1     -200.5325718064  -2.0305010E+02   2.7636237E-03
      2     -200.5199339306   1.2637876E-02   6.2780834E-03
      3     -200.5242959699  -4.3620394E-03   5.1883848E-03
      4     -200.5313788930  -7.0829231E-03   1.7264291E-03
      5     -200.5326788622  -1.2999692E-03   2.5283869E-04
      6     -200.5326809271  -2.0648189E-06   2.4255567E-04
      7     -200.5326867033  -5.7761951E-06   1.9918286E-04
      8     -200.5326953802  -8.6769550E-06   1.0560979E-04
      9     -200.5326981504  -2.7701388E-06   3.4697477E-05
     10     -200.5326985097  -3.5932771E-07   7.6757443E-06
------------------------------------------------------------

 total:                                   4.158 sec
 * total energy  :  -200.5326985 Eh     change       -0.1190276E-02 Eh
   gradient norm :     0.0193103 Eh/α   predicted    -0.1482485E-02 (  24.55%)
   displ. norm   :     0.6097601 α      lambda       -0.2222464E-02
   maximum displ.:     0.2930398 α      in ANC's #11, #7, #14, ...

........................................................................
.............................. CYCLE   34 ..............................
........................................................................
------------------------------------------------------------
  cycle        total energy    energy error   density error
------------------------------------------------------------
      1     -200.5339745009  -2.0305197E+02   2.4727205E-03
      2     -200.5329363000   1.0382009E-03   2.2610404E-03
      3     -200.5063675227   2.6568777E-02   8.9767865E-03
      4     -200.5323411683  -2.5973646E-02   1.9678322E-03
      5     -200.5339639484  -1.6227801E-03   4.2417408E-04
      6     -200.5339891512  -2.5202773E-05   2.8495556E-04
      7     -200.5340073871  -1.8235878E-05   1.5332155E-04
      8     -200.5340136779  -6.2908280E-06   4.7793341E-05
      9     -200.5340140978  -4.1987627E-07   1.9326493E-05
------------------------------------------------------------

 total:                                   3.977 sec
 * total energy  :  -200.5340141 Eh     change       -0.1315588E-02 Eh
   gradient norm :     0.0177953 Eh/α   predicted    -0.1524403E-02 (  15.87%)
   displ. norm   :     0.5234492 α      lambda       -0.1898101E-02
   maximum displ.:     0.2045913 α      in ANC's #7, #11, #2, ...

........................................................................
.............................. CYCLE   35 ..............................
........................................................................
------------------------------------------------------------
  cycle        total energy    energy error   density error
------------------------------------------------------------
      1     -200.5345116159  -2.0306999E+02   2.2868042E-03
      2     -200.5158264943   1.8685122E-02   7.5375958E-03
      3     -200.5323336279  -1.6507134E-02   2.8869055E-03
      4     -200.5344532324  -2.1196045E-03   8.3915858E-04
      5     -200.5346433088  -1.9007638E-04   4.6530428E-04
      6     -200.5346889905  -4.5681681E-05   2.9297630E-04
      7     -200.5347175796  -2.8589144E-05   9.1650828E-05
      8     -200.5347198400  -2.2603273E-06   3.1906325E-05
      9     -200.5347199055  -6.5576245E-08   2.3329799E-05
     10     -200.5347200406  -1.3503768E-07   9.8800814E-06
------------------------------------------------------------

 total:                                   4.353 sec
 * total energy  :  -200.5347200 Eh     change       -0.7059428E-03 Eh
   gradient norm :     0.0288829 Eh/α   predicted    -0.1209104E-02 (  71.28%)
   displ. norm   :     0.5015164 α      lambda       -0.1852830E-02
   maximum displ.:     0.1924825 α      in ANC's #7, #11, #9, ...

........................................................................
.............................. CYCLE   36 ..............................
........................................................................
------------------------------------------------------------
  cycle        total energy    energy error   density error
------------------------------------------------------------
      1     -200.5357542747  -2.0305721E+02   2.1213265E-03
      2     -200.5345361383   1.2181364E-03   2.2608975E-03
      3     -200.5153671364   1.9169002E-02   7.7751385E-03
      4     -200.5349628201  -1.9595684E-02   1.3847783E-03
      5     -200.5357196487  -7.5682855E-04   4.5908466E-04
      6     -200.5357772205  -5.7571823E-05   1.7893197E-04
      7     -200.5357855932  -8.3727112E-06   7.1342003E-05
      8     -200.5357864075  -8.1424201E-07   3.8159153E-05
      9     -200.5357866958  -2.8833588E-07   1.5580033E-05
------------------------------------------------------------

 total:                                   4.926 sec
 * total energy  :  -200.5357867 Eh     change       -0.1066655E-02 Eh
   gradient norm :     0.0226674 Eh/α   predicted    -0.1159430E-02 (   8.70%)
   displ. norm   :     0.4771580 α      lambda       -0.2171213E-02
   maximum displ.:     0.2419895 α      in ANC's #7, #14, #11, ...

........................................................................
.............................. CYCLE   37 ..............................
........................................................................
------------------------------------------------------------
  cycle        total energy    energy error   density error
------------------------------------------------------------
      1     -200.5361936990  -2.0304911E+02   2.0634387E-03
      2     -200.5351053920   1.0883070E-03   2.2197194E-03
      3     -200.5171805454   1.7924847E-02   7.4549109E-03
      4     -200.5359281822  -1.8747637E-02   9.4940992E-04
      5     -200.5360788450  -1.5066280E-04   7.1408169E-04
      6     -200.5362576093  -1.7876431E-04   2.5015534E-04
      7     -200.5362655266  -7.9173431E-06   1.8744765E-04
      8     -200.5362704244  -4.8977857E-06   1.3491196E-04
      9     -200.5362750106  -4.5862098E-06   5.7830609E-05
     10     -200.5362760235  -1.0128847E-06   1.0402043E-05
     11     -200.5362760162   7.3057720E-09   9.9947934E-06
------------------------------------------------------------

 total:                                   5.013 sec
 * total energy  :  -200.5362760 Eh     change       -0.4893204E-03 Eh
   gradient norm :     0.0290418 Eh/α   predicted    -0.1332775E-02 ( 172.37%)
   displ. norm   :     0.3967699 α      lambda       -0.1858624E-02
   maximum displ.:     0.1743086 α      in ANC's #7, #6, #2, ...

........................................................................
.............................. CYCLE   38 ..............................
........................................................................
------------------------------------------------------------
  cycle        total energy    energy error   density error
------------------------------------------------------------
      1     -200.5373073249  -2.0305709E+02   1.7464050E-03
      2     -200.5321037647   5.2035602E-03   4.0652863E-03
      3     -200.5335264843  -1.4227196E-03   3.4639535E-03
      4     -200.5371956191  -3.6691348E-03   6.5600455E-04
      5     -200.5373410606  -1.4544154E-04   2.4587148E-04
      6     -200.5373556584  -1.4597828E-05   1.3726476E-04
      7     -200.5373610915  -5.4330976E-06   7.8641620E-05
      8     -200.5373619787  -8.8715913E-07   5.7169782E-05
      9     -200.5373627381  -7.5943623E-07   2.8175631E-05
     10     -200.5373629604  -2.2229730E-07   7.4409137E-06
------------------------------------------------------------

 total:                                   4.367 sec
 * total energy  :  -200.5373630 Eh     change       -0.1086944E-02 Eh
   gradient norm :     0.0208669 Eh/α   predicted    -0.1075612E-02 (  -1.04%)
   displ. norm   :     0.5152914 α      lambda       -0.1914118E-02
   maximum displ.:     0.1843803 α      in ANC's #7, #26, #11, ...

........................................................................
.............................. CYCLE   39 ..............................
........................................................................
------------------------------------------------------------
  cycle        total energy    energy error   density error
------------------------------------------------------------
      1     -200.5375598282  -2.0305550E+02   2.3655186E-03
      2     -200.5283536193   9.2062089E-03   5.4354902E-03
      3     -200.5309338167  -2.5801974E-03   4.6082250E-03
      4     -200.5374711170  -6.5373003E-03   9.0047895E-04
      5     -200.5374420687   2.9048296E-05   8.5359767E-04
      6     -200.5377220573  -2.7998862E-04   1.8313537E-04
      7     -200.5377267986  -4.7413160E-06   1.4644219E-04
      8     -200.5377298445  -3.0458750E-06   1.0625811E-04
      9     -200.5377327936  -2.9491361E-06   3.9234224E-05
     10     -200.5377332282  -4.3454401E-07   1.2565252E-05
------------------------------------------------------------

 total:                                   4.215 sec
 * total energy  :  -200.5377332 Eh     change       -0.3702677E-03 Eh
   gradient norm :     0.0309705 Eh/α   predicted    -0.1211187E-02 ( 227.11%)
   displ. norm   :     0.3747202 α      lambda       -0.1674917E-02
   maximum displ.:     0.1969323 α      in ANC's #7, #6, #2, ...

........................................................................
.............................. CYCLE   40 ..............................
........................................................................
------------------------------------------------------------
  cycle        total energy    energy error   density error
------------------------------------------------------------
      1     -200.5387554380  -2.0305566E+02   1.4723805E-03
      2     -200.5300919011   8.6635369E-03   5.1083343E-03
      3     -200.5373972869  -7.3053858E-03   2.2061753E-03
      4     -200.5386585718  -1.2612849E-03   7.1157314E-04
      5     -200.5387890598  -1.3048800E-04   3.9772274E-04
      6     -200.5388441639  -5.5104140E-05   1.2375200E-04
      7     -200.5388476080  -3.4440818E-06   7.3867228E-05
      8     -200.5388482612  -6.5322027E-07   5.7287555E-05
      9     -200.5388491410  -8.7976144E-07   1.9194500E-05
------------------------------------------------------------

 total:                                   3.982 sec
 * total energy  :  -200.5388491 Eh     change       -0.1115913E-02 Eh
   gradient norm :     0.0135594 Eh/α   predicted    -0.9550543E-03 ( -14.41%)
   displ. norm   :     0.5452956 α      lambda       -0.1305799E-02
   maximum displ.:     0.2659057 α      in ANC's #7, #2, #26, ...

........................................................................
.............................. CYCLE   41 ..............................
........................................................................
------------------------------------------------------------
  cycle        total energy    energy error   density error
------------------------------------------------------------
      1     -200.5392299098  -2.0305804E+02   2.1945732E-03
      2     -200.5291250474   1.0104862E-02   5.5640520E-03
      3     -200.5333961479  -4.2711005E-03   4.3516976E-03
      4     -200.5387207386  -5.3245907E-03   1.2752985E-03
      5     -200.5392815780  -5.6083941E-04   4.4513210E-04
      6     -200.5393406999  -5.9121898E-05   2.2532522E-04
      7     -200.5393474026  -6.7027329E-06   1.7341132E-04
      8     -200.5393527059  -5.3032846E-06   1.1399794E-04
      9     -200.5393559552  -3.2492225E-06   4.5842182E-05
     10     -200.5393565427  -5.8759179E-07   1.3795611E-05
------------------------------------------------------------

 total:                                   4.483 sec
 * total energy  :  -200.5393565 Eh     change       -0.5074018E-03 Eh
   gradient norm :     0.0250659 Eh/α   predicted    -0.8470487E-03 (  66.94%)
   displ. norm   :     0.5076928 α      lambda       -0.1350811E-02
   maximum displ.:     0.2407856 α      in ANC's #7, #9, #6, ...

[...]
   for GFN1-xTB:
   * S. Grimme, C. Bannwarth, P. Shushkov, J. Chem. Theory Comput., 2017,
     13, 1989-2009. DOI: 10.1021/acs.jctc.7b00118
   for GFN0-xTB:
   * P. Pracht, E. Caldeweyher, S. Ehlert, S. Grimme, ChemRxiv, 2019, preprint.
     DOI: 10.26434/chemrxiv.8326202.v1
   for GFN-FF:
   * S. Spicher and S. Grimme, Angew. Chem. Int. Ed., 2020, 59, 15665-15673.
     DOI: 10.1002/anie.202004239
   
   for ALPB and GBSA implicit solvation:
   * S. Ehlert, M. Stahn, S. Spicher, S. Grimme, J. Chem. Theory Comput.,
     2021, 17, 4250-4261. DOI: 10.1021/acs.jctc.1c00471
   
   for ddCOSMO and CPCM-X implicit solvation:
   * M. Stahn, S. Ehlert, S. Grimme, J. Phys. Chem. A,
     2023, XX, XXXX-XXXX. DOI: 10.1021/acs.jpca.3c04382
   
   for DFT-D4:
   * E. Caldeweyher, C. Bannwarth and S. Grimme, J. Chem. Phys., 2017,
     147, 034112. DOI: 10.1063/1.4993215
   * E. Caldeweyher, S. Ehlert, A. Hansen, H. Neugebauer, S. Spicher,
     C. Bannwarth and S. Grimme, J. Chem. Phys., 2019, 150, 154122.
     DOI: 10.1063/1.5090222
   * E. Caldeweyher, J.-M. Mewes, S. Ehlert and S. Grimme, Phys. Chem. Chem. Phys.
     2020, 22, 8499-8512. DOI: 10.1039/D0CP00502A
   
   for sTDA-xTB:
   * S. Grimme and C. Bannwarth, J. Chem. Phys., 2016, 145, 054103.
     DOI: 10.1063/1.4959605
   
   in the mass-spec context:
   * V. Asgeirsson, C. Bauer and S. Grimme, Chem. Sci., 2017, 8, 4879.
     DOI: 10.1039/c7sc00601b
   * J. Koopman and S. Grimme, ACS Omega 2019, 4, 12, 15120-15133.
     DOI: 10.1021/acsomega.9b02011
   
   for metadynamics refer to:
   * S. Grimme, J. Chem. Theory Comput., 2019, 155, 2847-2862
     DOI: 10.1021/acs.jctc.9b00143
   
   for SPH calculations refer to:
   * S. Spicher and S. Grimme, J. Chem. Theory Comput., 2021, 17, 1701-1714
     DOI: 10.1021/acs.jctc.0c01306
   
   for ONIOM refer to:
   * C. Plett, A. Katbashev, S. Ehlert, S. Grimme, M. Bursch,
     Phys. Chem. Chem. Phys., 2023, 25, 17860-17868. DOI: 10.1039/D3CP02178E
   
   for DIPRO refer to:
   * J. Kohn, N. Gildemeister, S. Grimme, D. Fazzi, A. Hansen,
     J. Chem. Phys., 2023, just accepted.
   
   for PTB refer to:
   * S. Grimme, M. Mueller, A. Hansen, J. Chem. Phys., 2023, 158, 124111.
     DOI: 10.1063/5.0137838
   
   with help from (in alphabetical order)
   P. Atkinson, C. Bannwarth, F. Bohle, G. Brandenburg, E. Caldeweyher
   M. Checinski, S. Dohm, S. Ehlert, S. Ehrlich, I. Gerasimov, C. Hölzer
   A. Katbashev, J. Kohn, J. Koopman, C. Lavigne, S. Lehtola, F. März, M. Müller,
   F. Musil, H. Neugebauer, J. Pisarek, C. Plett, P. Pracht, F. Pultar,
   J. Seibert, P. Shushkov, S. Spicher, M. Stahn, M. Steiner, T. Strunk,
   J. Stückrath, T. Rose, and J. Unsleber
   
 * started run on 2025/03/17 at 17:26:59.025     
   ID    Z sym.   atoms
    1    6 C      1-9, 11, 12, 14-21, 24-35, 37, 38, 40-47, 50-52, 56, 58,
                  62, 65, 68, 71, 102-110, 112, 113, 115-122, 125-136, 138,
                  139, 141-148, 151-153, 157, 159, 163, 166, 169, 172
    2    7 N      10, 13, 36, 39, 111, 114, 137, 140
    3    8 O      22, 23, 48, 49, 54, 55, 57, 59-61, 63, 64, 66, 67, 69, 70,
                  123, 124, 149, 150, 155, 156, 158, 160-162, 164, 165, 167,
                  168, 170, 171
    4    5 B      53, 154
    5    1 H      72-101, 173-202

           -------------------------------------------------
          |                Calculation Setup                |
           -------------------------------------------------

          program call               : xtb opt_dimer.mol --dipro 0.3 --chrg 0 --uhf 2 --spinpol --tblite
          coordinate file            : opt_dimer.mol
          omp threads                :                     8


molecular fragmentation (1/2 indicates fragments):
111111111111111111111111111111111111111111111111111111111111111111111111
111111111111111111111111111112222222222222222222222222222222222222222222
2222222222222222222222222222222222222222222222222222222222
# atoms in fragment 1/2:   101   101
 fragment masses (1/2) :      953.60      953.60
CMA distance (Bohr)    :   9.065
constraining FC (au)   :  0.0500
Wavefunction read from restart file
           -------------------------------------------------
          |                    D I P R O                    |
           -------------------------------------------------
Calculation for dimer 
--------------------- 
  
charge of dimer :   0.
unpaired e- of dimer :  2
repulsion energy          5.0432631640110E+00 Eh
dispersion energy         3.3116270515202E-02 Eh
number of electrons       6.9800000000000E+02 e
integral cutoff           1.9311100799991E+01 bohr

------------------------------------------------------------
  cycle        total energy    energy error   density error
------------------------------------------------------------
      1     -397.7508393531  -4.0282722E+02   2.1858253E-01
      2     -400.8435398721  -3.0927005E+00   9.8165101E-02
      3     -400.3807532195   4.6278665E-01   6.2052262E-02
      4     -396.6187130669   3.7620402E+00   7.7134033E-02
      5     -398.4192150665  -1.8005020E+00   5.4915283E-02
      6     -399.6253878032  -1.2061727E+00   4.7055715E-02
      7     -400.8401824616  -1.2147947E+00   2.7457962E-02
      8     -400.9735591291  -1.3337667E-01   2.3936876E-02
      9     -401.1928112196  -2.1925209E-01   1.2420069E-02
     10     -401.1844045230   8.4066966E-03   1.1359745E-02
     11     -401.1708999527   1.3504570E-02   1.0869843E-02
     12     -401.2074353917  -3.6535439E-02   8.5583249E-03
     13     -401.2222032015  -1.4767810E-02   4.7043081E-03
     14     -401.2193760957   2.8271058E-03   4.0049662E-03
     15     -401.2252106976  -5.8346019E-03   2.7642844E-03
     16     -401.2258026074  -5.9190973E-04   2.0720174E-03
     17     -401.2260851941  -2.8258670E-04   1.6282642E-03
     18     -401.2266703371  -5.8514298E-04   9.8839004E-04
     19     -401.2268883666  -2.1802951E-04   6.2495987E-04
     20     -401.2269311592  -4.2792685E-05   4.0541224E-04
     21     -401.2269654843  -3.4325090E-05   2.5986928E-04
     22     -401.2269747999  -9.3156095E-06   1.5993477E-04
     23     -401.2269808128  -6.0128239E-06   5.6177221E-05
     24     -401.2269813462  -5.3339016E-07   2.9743621E-05
     25     -401.2269814113  -6.5148583E-08   2.0629345E-05
     26     -401.2269814625  -5.1225413E-08   1.1664718E-05
------------------------------------------------------------

electronic energy        -4.0630336089706E+02 Eh
total energy             -4.0122698146254E+02 Eh

 total:                                   5.325 sec
 - repulsion                              0.000 sec (  0%)
 - dispersion                             0.011 sec (  0%)
 - coulomb                                0.004 sec (  0%)
 - hamiltonian                            0.016 sec (  0%)
 - scc                                    5.293 sec ( 99%)

Found 2 fragments!
Fragment 1:  1-101
Fragment 2:  102-202

[Info] Fragment spin read from .UHFfrag
Calculation for fragment 1
 ------------------------------
   
charge of fragment :   0.
unpaired e- of fragment :  1
------------------------------------------------------------
  cycle        total energy    energy error   density error
------------------------------------------------------------
      1     -198.8081222858  -2.0132938E+02   2.1931718E-01
      2     -200.3819299359  -1.5738077E+00   9.8721956E-02
      3     -200.2698564210   1.1207351E-01   5.9820797E-02
      4     -199.6244112982   6.4544512E-01   5.9345646E-02
      5     -200.0233309354  -3.9891964E-01   4.1500202E-02
      6     -200.3352067900  -3.1187585E-01   2.9591657E-02
      7     -200.5205600727  -1.8535328E-01   1.6477516E-02
      8     -200.5650628565  -4.4502784E-02   7.6870684E-03
      9     -200.5606731768   4.3896797E-03   7.9703959E-03
     10     -200.5668346269  -6.1614501E-03   4.6719228E-03
     11     -200.5653850631   1.4495638E-03   3.6200501E-03
     12     -200.5673130714  -1.9280083E-03   2.4745902E-03
     13     -200.5684905220  -1.1774506E-03   9.6457398E-04
     14     -200.5684604454   3.0076616E-05   9.5118050E-04
     15     -200.5686284475  -1.6800211E-04   4.2619050E-04
     16     -200.5686556676  -2.7220102E-05   1.4580194E-04
     17     -200.5686565820  -9.1441024E-07   1.0708111E-04
     18     -200.5686591780  -2.5960329E-06   3.9711549E-05
     19     -200.5686595125  -3.3447640E-07   1.0889701E-05
------------------------------------------------------------

 total:                                   0.965 sec
Calculation for fragment 2
 ------------------------------
   
charge of fragment :   0.
unpaired e- of fragment :  1
------------------------------------------------------------
  cycle        total energy    energy error   density error
------------------------------------------------------------
      1     -198.8141516062  -2.0133603E+02   2.1800908E-01
      2     -200.3835596491  -1.5694080E+00   9.7260342E-02
      3     -200.2761491380   1.0741051E-01   5.9241751E-02
      4     -198.7759217822   1.5002274E+00   7.4376582E-02
      5     -200.0307266700  -1.2548049E+00   4.0468310E-02
      6     -200.2561086140  -2.2538194E-01   3.4044634E-02
      7     -200.5258695843  -2.6976097E-01   1.6168335E-02
      8     -200.5306821903  -4.8126061E-03   1.4007575E-02
      9     -200.5492969896  -1.8614799E-02   9.1034885E-03
     10     -200.5570624486  -7.7654590E-03   6.5157448E-03
     11     -200.5585647480  -1.5022993E-03   3.6897788E-03
     12     -200.5587015829  -1.3683488E-04   4.1164846E-03
     13     -200.5605753606  -1.8737777E-03   2.4047867E-03
     14     -200.5613433617  -7.6800118E-04   1.1783130E-03
     15     -200.5613686702  -2.5308465E-05   9.1994015E-04
     16     -200.5615068065  -1.3813632E-04   2.8619266E-04
     17     -200.5615155550  -8.7484471E-06   7.8476391E-05
     18     -200.5615158936  -3.3860996E-07   5.0963861E-05
     19     -200.5615160911  -1.9752710E-07   2.8900999E-05
     20     -200.5615161468  -5.5707716E-08   2.0689604E-05
     21     -200.5615162747  -1.2789488E-07   6.8858666E-06
------------------------------------------------------------

 total:                                   1.234 sec
   
   ::::::::::::::::::::::::::::::::::::::::::::::
   ::     D I P R O      C O U P L I N G S     ::
   ::::::::::::::::::::::::::::::::::::::::::::::
   
energy threshhold for near-degenerate orbitals near HOMO and LUMO considered for DIPRO:  0.300 eV
no. of orbitals within energy window of frag 1         6
no. of orbitals within energy window of frag 2         6
   
  Fragment 1 SOMO-3  Fragment 2 SOMO-3
--------------------------------------
E_mon(orb) frag1 frag2             -10.771   -10.705 eV
J(AB):               -0.010 eV
S(AB):             0.00057793 Eh
|J(AB,eff)|:            0.004 eV
   
  Fragment 1 SOMO-3  Fragment 2 SOMO-2
--------------------------------------
E_mon(orb) frag1 frag2             -10.771   -10.562 eV
J(AB):                0.001 eV
S(AB):             0.00000999 Eh
|J(AB,eff)|:            0.001 eV
   
  Fragment 1 SOMO-3  Fragment 2 SOMO-1
--------------------------------------
E_mon(orb) frag1 frag2             -10.771   -10.518 eV
J(AB):               -0.005 eV
S(AB):             0.00023593 Eh
|J(AB,eff)|:            0.002 eV
   
  Fragment 1 SOMO-3  Fragment 2 SOMO 
--------------------------------------
E_mon(orb) frag1 frag2             -10.771   -10.484 eV
J(AB):                0.030 eV
S(AB):            -0.00133059 Eh
|J(AB,eff)|:            0.016 eV
   
  Fragment 1 SOMO-3  Fragment 2 LUMO 
--------------------------------------
E_mon(orb) frag1 frag2             -10.771   -10.202 eV
J(AB):               -0.032 eV
S(AB):             0.00108370 Eh
|J(AB,eff)|:            0.020 eV
   
  Fragment 1 SOMO-3  Fragment 2 LUMO+1
--------------------------------------
E_mon(orb) frag1 frag2             -10.771   -10.115 eV
J(AB):               -0.081 eV
S(AB):             0.00314168 Eh
|J(AB,eff)|:            0.048 eV
   
  Fragment 1 SOMO-2  Fragment 2 SOMO-3
--------------------------------------
E_mon(orb) frag1 frag2             -10.559   -10.705 eV
J(AB):                0.010 eV
S(AB):            -0.00041916 Eh
|J(AB,eff)|:            0.005 eV
   
  Fragment 1 SOMO-2  Fragment 2 SOMO-2
--------------------------------------
E_mon(orb) frag1 frag2             -10.559   -10.562 eV
J(AB):               -0.001 eV
S(AB):             0.00006377 Eh
|J(AB,eff)|:            0.000 eV
   
  Fragment 1 SOMO-2  Fragment 2 SOMO-1
--------------------------------------
E_mon(orb) frag1 frag2             -10.559   -10.518 eV
J(AB):               -0.005 eV
S(AB):             0.00020265 Eh
|J(AB,eff)|:            0.003 eV
   
  Fragment 1 SOMO-2  Fragment 2 SOMO 
--------------------------------------
E_mon(orb) frag1 frag2             -10.559   -10.484 eV
J(AB):                0.031 eV
S(AB):            -0.00122942 Eh
|J(AB,eff)|:            0.018 eV
   
  Fragment 1 SOMO-2  Fragment 2 LUMO 
--------------------------------------
E_mon(orb) frag1 frag2             -10.559   -10.202 eV
J(AB):                0.007 eV
S(AB):            -0.00026466 Eh
|J(AB,eff)|:            0.005 eV
   
  Fragment 1 SOMO-2  Fragment 2 LUMO+1
--------------------------------------
E_mon(orb) frag1 frag2             -10.559   -10.115 eV
J(AB):               -0.019 eV
S(AB):             0.00079021 Eh
|J(AB,eff)|:            0.011 eV
   
  Fragment 1 SOMO-1  Fragment 2 SOMO-3
--------------------------------------
E_mon(orb) frag1 frag2             -10.536   -10.705 eV
J(AB):               -0.058 eV
S(AB):             0.00231642 Eh
|J(AB,eff)|:            0.033 eV
   
  Fragment 1 SOMO-1  Fragment 2 SOMO-2
--------------------------------------
E_mon(orb) frag1 frag2             -10.536   -10.562 eV
J(AB):                0.007 eV
S(AB):            -0.00029119 Eh
|J(AB,eff)|:            0.004 eV
   
  Fragment 1 SOMO-1  Fragment 2 SOMO-1
--------------------------------------
E_mon(orb) frag1 frag2             -10.536   -10.518 eV
J(AB):                0.016 eV
S(AB):            -0.00061968 Eh
|J(AB,eff)|:            0.010 eV
   
  Fragment 1 SOMO-1  Fragment 2 SOMO 
--------------------------------------
E_mon(orb) frag1 frag2             -10.536   -10.484 eV
J(AB):               -0.070 eV
S(AB):             0.00283167 Eh
|J(AB,eff)|:            0.040 eV
   
  Fragment 1 SOMO-1  Fragment 2 LUMO 
--------------------------------------
E_mon(orb) frag1 frag2             -10.536   -10.202 eV
J(AB):               -0.026 eV
S(AB):             0.00102832 Eh
|J(AB,eff)|:            0.015 eV
   
  Fragment 1 SOMO-1  Fragment 2 LUMO+1
--------------------------------------
E_mon(orb) frag1 frag2             -10.536   -10.115 eV
J(AB):                0.050 eV
S(AB):            -0.00199233 Eh
|J(AB,eff)|:            0.030 eV
   
  Fragment 1 SOMO   Fragment 2 SOMO-3
--------------------------------------
E_mon(orb) frag1 frag2             -10.507   -10.705 eV
J(AB):                0.088 eV
S(AB):            -0.00353330 Eh
|J(AB,eff)|:            0.050 eV
   
  Fragment 1 SOMO   Fragment 2 SOMO-2
--------------------------------------
E_mon(orb) frag1 frag2             -10.507   -10.562 eV
J(AB):               -0.013 eV
S(AB):             0.00041137 Eh
|J(AB,eff)|:            0.008 eV
   
  Fragment 1 SOMO   Fragment 2 SOMO-1
--------------------------------------
E_mon(orb) frag1 frag2             -10.507   -10.518 eV
J(AB):               -0.007 eV
S(AB):             0.00024847 Eh
|J(AB,eff)|:            0.004 eV
   
  Fragment 1 SOMO   Fragment 2 SOMO 
--------------------------------------
E_mon(orb) frag1 frag2             -10.507   -10.484 eV
J(AB):               -0.057 eV
S(AB):             0.00233278 Eh
|J(AB,eff)|:            0.033 eV
   
  Fragment 1 SOMO   Fragment 2 LUMO 
--------------------------------------
E_mon(orb) frag1 frag2             -10.507   -10.202 eV
J(AB):                0.011 eV
S(AB):            -0.00033937 Eh
|J(AB,eff)|:            0.007 eV
   
  Fragment 1 SOMO   Fragment 2 LUMO+1
--------------------------------------
E_mon(orb) frag1 frag2             -10.507   -10.115 eV
J(AB):                0.021 eV
S(AB):            -0.00085941 Eh
|J(AB,eff)|:            0.012 eV
   
  Fragment 1 LUMO   Fragment 2 SOMO-3
--------------------------------------
E_mon(orb) frag1 frag2             -10.211   -10.705 eV
J(AB):                0.025 eV
S(AB):            -0.00089499 Eh
|J(AB,eff)|:            0.016 eV
   
  Fragment 1 LUMO   Fragment 2 SOMO-2
--------------------------------------
E_mon(orb) frag1 frag2             -10.211   -10.562 eV
J(AB):                0.007 eV
S(AB):            -0.00033117 Eh
|J(AB,eff)|:            0.004 eV
   
  Fragment 1 LUMO   Fragment 2 SOMO-1
--------------------------------------
E_mon(orb) frag1 frag2             -10.211   -10.518 eV
J(AB):                0.004 eV
S(AB):            -0.00020937 Eh
|J(AB,eff)|:            0.002 eV
   
  Fragment 1 LUMO   Fragment 2 SOMO 
--------------------------------------
E_mon(orb) frag1 frag2             -10.211   -10.484 eV
J(AB):               -0.003 eV
S(AB):             0.00030259 Eh
|J(AB,eff)|:            0.000 eV
   
  Fragment 1 LUMO   Fragment 2 LUMO 
--------------------------------------
E_mon(orb) frag1 frag2             -10.211   -10.202 eV
J(AB):                0.067 eV
S(AB):            -0.00290694 Eh
|J(AB,eff)|:            0.038 eV
   
  Fragment 1 LUMO   Fragment 2 LUMO+1
--------------------------------------
E_mon(orb) frag1 frag2             -10.211   -10.115 eV
J(AB):               -0.089 eV
S(AB):             0.00365201 Eh
|J(AB,eff)|:            0.052 eV
   
  Fragment 1 LUMO+1  Fragment 2 SOMO-3
--------------------------------------
E_mon(orb) frag1 frag2             -10.125   -10.705 eV
J(AB):               -0.019 eV
S(AB):             0.00059782 Eh
|J(AB,eff)|:            0.012 eV
   
  Fragment 1 LUMO+1  Fragment 2 SOMO-2
--------------------------------------
E_mon(orb) frag1 frag2             -10.125   -10.562 eV
J(AB):                0.013 eV
S(AB):            -0.00052008 Eh
|J(AB,eff)|:            0.007 eV
   
  Fragment 1 LUMO+1  Fragment 2 SOMO-1
--------------------------------------
E_mon(orb) frag1 frag2             -10.125   -10.518 eV
J(AB):                0.005 eV
S(AB):            -0.00018221 Eh
|J(AB,eff)|:            0.003 eV
   
  Fragment 1 LUMO+1  Fragment 2 SOMO 
--------------------------------------
E_mon(orb) frag1 frag2             -10.125   -10.484 eV
J(AB):               -0.011 eV
S(AB):             0.00024105 Eh
|J(AB,eff)|:            0.009 eV
   
  Fragment 1 LUMO+1  Fragment 2 LUMO 
--------------------------------------
E_mon(orb) frag1 frag2             -10.125   -10.202 eV
J(AB):               -0.087 eV
S(AB):             0.00357124 Eh
|J(AB,eff)|:            0.051 eV
   
  Fragment 1 LUMO+1  Fragment 2 LUMO+1
--------------------------------------
E_mon(orb) frag1 frag2             -10.125   -10.115 eV
J(AB):                0.075 eV
S(AB):            -0.00321331 Eh
|J(AB,eff)|:            0.043 eV
   
..............................................................................
:  total |J(AB,eff)| for hole transport (occ. MOs) :               0.084 eV  :
:  total |J(AB,eff)| for charge transport (unocc. MOs) :           0.092 eV  :
:  total |J(AB,eff)| for charge transfer (CT) :                    0.069 eV  :
..............................................................................
  
 Please remember, DIPRO is not available for restart!
   
normal termination of dipro
----------------------------------------------------------
 * finished run on 2025/03/17 at 17:27:06.592     
----------------------------------------------------------
 dipro:
 * wall-time:     0 d,  0 h,  0 min,  7.559 sec
 *  cpu-time:     0 d,  0 h,  0 min, 28.323 sec
 * ratio c/w:     3.747 speedup
Reorganization energy (electron): 0.07131742433693324 eV
Reorganization energy (hole): 0.0755777998452847 eV
Electron Transfer integral J: 0.092 eV
Hole Transfer integral J: 0.084 eV
