202
 energy: -401.098162442774 gnorm: 0.234948669517 xtb: 6.7.1 (edcfbbe)
C            0.22580000000000        4.05370000000000        0.97780000000000
C            0.48980000000000        3.15160000000000        2.00250000000000
C            1.84190000000000        2.94830000000000        2.43280000000000
C            2.79380000000000        3.94810000000000        2.07300000000000
C            2.45890000000000        4.88140000000000        1.07740000000000
C            1.20750000000000        4.91480000000000        0.51060000000000
C            2.25400000000000        1.87710000000000        3.29760000000000
C            3.43450000000000        2.12790000000000        4.01870000000000
C            4.21930000000000        3.28710000000000        3.74090000000000
N            3.96650000000000        4.11690000000000        2.71470000000000
C            1.71240000000000        0.54420000000000        3.39260000000000
C            2.33940000000000       -0.34250000000000        4.32700000000000
N            3.27870000000000        0.03400000000000        5.22560000000000
C            3.86270000000000        1.22580000000000        5.03270000000000
C            4.96850000000000        1.56640000000000        5.81980000000000
C            5.68850000000000        2.72180000000000        5.58770000000000
C            5.33190000000000        3.55240000000000        4.54480000000000
C            0.78080000000000       -0.04400000000000        2.45820000000000
C            0.68680000000000       -1.42950000000000        2.38110000000000
C            1.32420000000000       -2.27330000000000        3.27130000000000
C            2.08720000000000       -1.72500000000000        4.26700000000000
O           -0.56030000000000        2.56940000000000        2.68070000000000
O           -0.04880000000000        0.60890000000000        1.56430000000000
C            0.86640000000000        5.96400000000000       -0.47330000000000
C            1.19270000000000       -3.73890000000000        3.12090000000000
C            6.83120000000000        3.09070000000000        6.44870000000000
C           -2.01010000000000       -1.38710000000000        3.43970000000000
C           -2.52590000000000       -0.48690000000000        2.52260000000000
C           -3.34120000000000       -0.95050000000000        1.43820000000000
C           -3.48270000000000       -2.36530000000000        1.29470000000000
C           -2.85490000000000       -3.23020000000000        2.21120000000000
C           -2.15860000000000       -2.74930000000000        3.28990000000000
C           -4.18220000000000       -0.10100000000000        0.63930000000000
C           -5.16530000000000       -0.75330000000000       -0.12380000000000
C           -5.11370000000000       -2.16430000000000       -0.31180000000000
N           -4.26240000000000       -2.95390000000000        0.36180000000000
C           -4.29970000000000        1.33590000000000        0.68450000000000
C           -5.57080000000000        1.90350000000000        0.36300000000000
N           -6.51730000000000        1.25790000000000       -0.34560000000000
C           -6.25420000000000       -0.01620000000000       -0.68090000000000
C           -7.15160000000000       -0.67850000000000       -1.52500000000000
C           -7.03310000000000       -2.02770000000000       -1.79290000000000
C           -6.03910000000000       -2.76240000000000       -1.17490000000000
C           -3.23920000000000        2.26410000000000        0.99540000000000
C           -3.57160000000000        3.54860000000000        1.42420000000000
C           -4.87790000000000        4.01310000000000        1.33890000000000
C           -5.83740000000000        3.22330000000000        0.75440000000000
O           -2.18680000000000        0.81960000000000        2.77470000000000
O           -1.90930000000000        1.94140000000000        0.78160000000000
C           -1.56950000000000       -3.61640000000000        4.32670000000000
C           -5.27060000000000        5.35370000000000        1.82010000000000
C           -8.01080000000000       -2.68140000000000       -2.69100000000000
B           -1.17160000000000        1.48200000000000        1.95240000000000
O            7.46560000000000        4.09780000000000        6.20120000000000
O            7.10060000000000        2.27010000000000        7.50400000000000
C            8.15620000000000        2.80400000000000        8.23480000000000
O            0.52910000000000       -4.15010000000000        2.00040000000000
C            0.45080000000000       -5.53690000000000        1.97650000000000
O            1.66430000000000       -4.49230000000000        3.94960000000000
O           -1.00890000000000       -3.07940000000000        5.26220000000000
O           -1.68080000000000       -4.96710000000000        4.19170000000000
C           -1.06980000000000       -5.56130000000000        5.28810000000000
O           -8.72350000000000       -2.00020000000000       -3.40210000000000
O           -8.05880000000000       -4.04520000000000       -2.65630000000000
C           -8.99260000000000       -4.49600000000000       -3.58300000000000
O           -6.44050000000000        5.67910000000000        1.75040000000000
O           -4.29760000000000        6.15530000000000        2.33740000000000
C           -4.89640000000000        7.29720000000000        2.85970000000000
O            1.74950000000000        6.53920000000000       -1.07800000000000
O           -0.46230000000000        6.23790000000000       -0.61910000000000
C           -0.62540000000000        7.22550000000000       -1.58340000000000
H           -8.67400000000000       -4.18320000000000       -4.58050000000000
H           -9.96330000000000       -4.04860000000000       -3.35430000000000
H           -9.05430000000000       -5.58500000000000       -3.53070000000000
H           -4.13170000000000        7.95320000000000        3.27990000000000
H           -5.59640000000000        6.98220000000000        3.64130000000000
H           -5.44150000000000        7.80700000000000        2.06080000000000
H           -1.68930000000000        7.44820000000000       -1.69100000000000
H           -0.21720000000000        6.86110000000000       -2.52980000000000
H           -0.07900000000000        8.11870000000000       -1.26930000000000
H           -0.88180000000000       -6.61570000000000        5.07620000000000
H           -1.73330000000000       -5.45930000000000        6.14910000000000
H           -0.13410000000000       -5.02320000000000        5.48510000000000
H           -0.22180000000000       -5.85910000000000        2.77400000000000
H            1.44890000000000       -5.95180000000000        2.13870000000000
H            0.06100000000000       -5.85330000000000        1.00680000000000
H            8.36870000000000        2.15180000000000        9.08480000000000
H            7.86440000000000        3.79920000000000        8.58840000000000
H            9.03120000000000        2.88560000000000        7.58480000000000
H           -7.97720000000000       -0.13480000000000       -1.94940000000000
H           -5.99700000000000       -3.82480000000000       -1.33140000000000
H           -6.82560000000000        3.62440000000000        0.61430000000000
H           -2.98440000000000       -4.29120000000000        2.10250000000000
H           -2.80360000000000        4.19150000000000        1.81280000000000
H           -1.46580000000000       -1.00280000000000        4.28660000000000
H           -0.77590000000000        4.13540000000000        0.59780000000000
H            0.06040000000000       -1.85610000000000        1.61880000000000
H            2.57690000000000       -2.37990000000000        4.96540000000000
H            3.18330000000000        5.62110000000000        0.78550000000000
H            5.91670000000000        4.43630000000000        4.36180000000000
H            5.27080000000000        0.91000000000000        6.61540000000000
C           -0.14100000000000        3.52900000000000        5.48530000000000
C            0.16500000000000        2.71590000000000        6.57960000000000
C            1.50600000000000        2.68920000000000        7.08180000000000
C            2.34060000000000        3.79160000000000        6.72820000000000
C            1.93350000000000        4.66740000000000        5.70770000000000
C            0.72960000000000        4.52330000000000        5.06540000000000
C            1.99460000000000        1.69370000000000        7.99810000000000
C            3.12720000000000        2.10470000000000        8.72990000000000
C            3.80220000000000        3.32600000000000        8.42220000000000
N            3.47380000000000        4.10510000000000        7.38090000000000
C            1.57430000000000        0.31440000000000        8.16530000000000
C            2.27150000000000       -0.43950000000000        9.16300000000000
N            3.16850000000000        0.06890000000000       10.03530000000000
C            3.63460000000000        1.29720000000000        9.78390000000000
C            4.71710000000000        1.75350000000000       10.54240000000000
C            5.35490000000000        2.94030000000000       10.24950000000000
C            4.90700000000000        3.70690000000000        9.19300000000000
C            0.69000000000000       -0.44920000000000        7.30410000000000
C            0.70430000000000       -1.84610000000000        7.35460000000000
C            1.44240000000000       -2.54870000000000        8.28980000000000
C            2.15630000000000       -1.83710000000000        9.21320000000000
O           -0.82990000000000        2.06910000000000        7.28350000000000
O           -0.19090000000000        0.03980000000000        6.35810000000000
C            0.31990000000000        5.50630000000000        4.03830000000000
C            1.60690000000000       -4.02280000000000        8.26880000000000
C            6.54910000000000        3.34650000000000       11.02140000000000
C           -2.47020000000000       -1.97730000000000        7.86490000000000
C           -2.93530000000000       -0.95450000000000        7.04560000000000
C           -3.85010000000000       -1.25280000000000        5.96810000000000
C           -4.19050000000000       -2.63240000000000        5.79580000000000
C           -3.65150000000000       -3.61550000000000        6.64240000000000
C           -2.80130000000000       -3.30110000000000        7.66710000000000
C           -4.53620000000000       -0.30070000000000        5.12390000000000
C           -5.53810000000000       -0.80600000000000        4.27790000000000
C           -5.69340000000000       -2.20960000000000        4.11370000000000
N           -5.02080000000000       -3.10520000000000        4.84510000000000
C           -4.41430000000000        1.13140000000000        5.09000000000000
C           -5.48840000000000        1.91360000000000        4.56290000000000
N           -6.44950000000000        1.40100000000000        3.77210000000000
C           -6.40700000000000        0.07480000000000        3.56020000000000
C           -7.30910000000000       -0.47160000000000        2.63930000000000
C           -7.39550000000000       -1.83350000000000        2.43170000000000
C           -6.60610000000000       -2.68810000000000        3.17090000000000
C           -3.23730000000000        1.85100000000000        5.48640000000000
C           -3.35640000000000        3.19670000000000        5.82980000000000
C           -4.49640000000000        3.91820000000000        5.50890000000000
C           -5.51080000000000        3.29770000000000        4.81700000000000
O           -2.42680000000000        0.27770000000000        7.40930000000000
O           -1.99860000000000        1.25270000000000        5.38290000000000
C           -2.19730000000000       -4.33640000000000        8.53180000000000
C           -4.56240000000000        5.35700000000000        5.84160000000000
C           -8.32170000000000       -2.38460000000000        1.42270000000000
B           -1.35270000000000        0.90100000000000        6.62290000000000
O            7.25960000000000        4.24270000000000       10.61000000000000
O            6.79000000000000        2.64940000000000       12.16980000000000
C            7.92600000000000        3.15350000000000       12.79290000000000
O            1.07460000000000       -4.72950000000000        7.22860000000000
C            1.59920000000000       -6.02140000000000        7.24470000000000
O            2.26880000000000       -4.54130000000000        9.14830000000000
O           -1.61200000000000       -3.99490000000000        9.54110000000000
O           -2.31960000000000       -5.63380000000000        8.12930000000000
C           -1.69880000000000       -6.45370000000000        9.06510000000000
O           -8.95840000000000       -1.63300000000000        0.71140000000000
O           -8.38490000000000       -3.74700000000000        1.34710000000000
C           -9.19450000000000       -4.12190000000000        0.28210000000000
O           -5.50710000000000        6.02920000000000        5.47990000000000
O           -3.51410000000000        5.84360000000000        6.56730000000000
C           -3.71260000000000        7.19040000000000        6.84510000000000
O            1.13340000000000        6.30040000000000        3.60990000000000
O           -0.98580000000000        5.47420000000000        3.64450000000000
C           -1.22600000000000        6.48410000000000        2.72010000000000
H           -8.63490000000000       -3.94990000000000       -0.63950000000000
H          -10.10200000000000       -3.51160000000000        0.28950000000000
H           -9.44420000000000       -5.18060000000000        0.37800000000000
H           -2.91290000000000        7.53620000000000        7.50380000000000
H           -4.68330000000000        7.30970000000000        7.33340000000000
H           -3.69760000000000        7.75140000000000        5.90850000000000
H           -2.29110000000000        6.49120000000000        2.48370000000000
H           -0.64210000000000        6.28850000000000        1.81850000000000
H           -0.92400000000000        7.44010000000000        3.15440000000000
H           -1.67490000000000       -7.47900000000000        8.68980000000000
H           -2.26290000000000       -6.40540000000000        9.99990000000000
H           -0.68390000000000       -6.08290000000000        9.23560000000000
H            1.57020000000000       -6.40890000000000        8.26640000000000
H            2.63620000000000       -5.97220000000000        6.90290000000000
H            1.02410000000000       -6.66890000000000        6.58150000000000
H            8.08980000000000        2.61070000000000       13.72630000000000
H            7.77260000000000        4.21670000000000       12.99520000000000
H            8.78220000000000        3.02660000000000       12.12630000000000
H           -7.94510000000000        0.18340000000000        2.07090000000000
H           -6.70080000000000       -3.74850000000000        3.02220000000000
H           -6.34360000000000        3.88440000000000        4.47180000000000
H           -3.91510000000000       -4.64370000000000        6.47270000000000
H           -2.54530000000000        3.70330000000000        6.32000000000000
H           -1.80310000000000       -1.72610000000000        8.67010000000000
H           -1.07180000000000        3.40800000000000        4.96180000000000
H            0.11750000000000       -2.39180000000000        6.63570000000000
H            2.74510000000000       -2.38010000000000        9.93220000000000
H            2.57660000000000        5.48250000000000        5.42720000000000
H            5.43340000000000        4.61040000000000        8.94190000000000
H            5.09070000000000        1.14200000000000       11.34380000000000
202
 energy: -401.154032885467 gnorm: 0.112975495268 xtb: 6.7.1 (edcfbbe)
C            0.21455036470216        4.05607927669749        0.99593396405646
C            0.47612690123775        3.15552718335342        2.01915705307079
C            1.81706890760234        2.95144410872232        2.44462368742220
C            2.78497836464231        3.94615461142432        2.07774186402512
C            2.46431131549100        4.88540027282694        1.07711476262119
C            1.20746197423186        4.91460011260043        0.52057963789626
C            2.24021832255338        1.87864087615197        3.29526912892187
C            3.42396286581896        2.12892529653149        4.01746996862701
C            4.21102989006139        3.28720760811378        3.74015649380931
N            3.95024493822693        4.10349973655165        2.71497537429213
C            1.69950976117390        0.54855199564395        3.37236760125742
C            2.33330983657356       -0.33941849808705        4.31460678547774
N            3.26825312800134        0.03644725554362        5.20371403423063
C            3.85334155827218        1.22240633527119        5.02844980110322
C            4.96041865954397        1.55858941123251        5.82804252024586
C            5.67986859781992        2.71809738223222        5.59060063861629
C            5.33017223658550        3.55681666580617        4.54281236494675
C            0.75502707811138       -0.03463724707411        2.45779011723409
C            0.67180210645396       -1.42106664795897        2.37773308403693
C            1.32588957112644       -2.26793723887838        3.26791768377677
C            2.08466083230430       -1.72630962020070        4.27408180870790
O           -0.55470648708349        2.57351471784326        2.68362460026427
O           -0.04459819477029        0.60089900387164        1.56083585408190
C            0.88735610212597        5.95927706556962       -0.47658402620540
C            1.20009722514235       -3.73438706664138        3.13582413415360
C            6.82989317972145        3.10407241791033        6.43671091847626
C           -2.00234848822619       -1.38299593523950        3.43729513637173
C           -2.50930395537408       -0.47650605349493        2.52085628231957
C           -3.33686637326980       -0.93375379163768        1.45055297685292
C           -3.48667640819745       -2.35699524971562        1.29992038871305
C           -2.85862742778920       -3.24058240919628        2.20210607911586
C           -2.16670548739484       -2.75553717109772        3.28132589123278
C           -4.17710203217422       -0.09357358716372        0.64542432642405
C           -5.16211702271341       -0.74954555729579       -0.11914249354779
C           -5.11249768842199       -2.16206934396078       -0.30291223676262
N           -4.26292768061869       -2.93700031727982        0.37237163101279
C           -4.27700236846320        1.33874535198032        0.68290704033302
C           -5.56062046196594        1.90052528295103        0.36524182415470
N           -6.49666769735920        1.25174705129447       -0.33676203634575
C           -6.25166594719995       -0.01584760419046       -0.67733813362253
C           -7.15738930512957       -0.67473643536708       -1.52282788864970
C           -7.03070240199201       -2.03064578746231       -1.78676413038320
C           -6.03592631019138       -2.77213208764368       -1.17012946491774
C           -3.22434982238639        2.25734203094274        0.98678055288543
C           -3.55758834295558        3.53992519773109        1.41406794551086
C           -4.87396896731561        4.00489565749002        1.33775486828110
C           -5.84178010807280        3.22202524517690        0.75437119774985
O           -2.18982008751747        0.81003066348898        2.77787177965608
O           -1.91814629873770        1.92926977793635        0.77645143972275
C           -1.57528736504017       -3.60385681294379        4.32597828329345
C           -5.28934058441214        5.34173667747348        1.81528980557683
C           -8.01001671039204       -2.66098760921530       -2.70009442346436
B           -1.17127381296339        1.47809733198940        1.95481594682583
O            7.47145948884177        4.09971657294172        6.20293028428367
O            7.09291941118566        2.28905489143529        7.47992486798703
C            8.16418020122556        2.80225042033626        8.23484884306207
O            0.54494925366554       -4.14223423857421        2.02646105856584
C            0.45229345624543       -5.54403879260552        1.97166563563317
O            1.66305949839735       -4.49825549673650        3.95001550342832
O           -1.01376326846098       -3.08713985299576        5.26597885083022
O           -1.68348563081661       -4.93633962924748        4.18925677600755
C           -1.07005795847362       -5.57356278065952        5.28483552694596
O           -8.72501178164990       -1.99957046730096       -3.41125723679476
O           -8.04999907146857       -4.01378069168285       -2.67140703403418
C           -8.99570047142548       -4.50097877008075       -3.59099089967532
O           -6.44601258949695        5.68500347057139        1.75170543951031
O           -4.32525623242298        6.13364769707308        2.32992489725931
C           -4.89945368174804        7.30613638267132        2.86005421558465
O            1.75052844172957        6.54172117548395       -1.08688422493416
O           -0.43007621578667        6.22901602780573       -0.62036807428619
C           -0.62843596946752        7.22921999193089       -1.58828372993507
H           -8.69341132805388       -4.19651864875107       -4.59571407024650
H           -9.97231884416925       -4.06263700865946       -3.36870183501008
H           -9.04117516563117       -5.58623770785936       -3.51969803946529
H           -4.11831268546635        7.94421288197598        3.27050505413666
H           -5.60291090712890        7.01537137905429        3.64540797481585
H           -5.44436523607318        7.82822565540275        2.07023250591329
H           -1.69347033589551        7.43633968698718       -1.67902310772780
H           -0.22570217715061        6.88143614128244       -2.54317936196486
H           -0.08847312000863        8.13073303616116       -1.28644203966206
H           -0.89573673590335       -6.62249883801485        5.05368906226544
H           -1.72107770252478       -5.47967228585723        6.15333766330509
H           -0.12937489857591       -5.05582905391695        5.49526475479376
H           -0.21950549341484       -5.88404570115135        2.76110456335215
H            1.44387599982981       -5.97508358781560        2.13237996850764
H            0.06135446066109       -5.83778635755354        0.99928518100612
H            8.36019466663483        2.13897054060026        9.07556325337488
H            7.89501436819160        3.79833730922883        8.59717450412674
H            9.04771575667539        2.88689232231062        7.59836332312595
H           -7.98115288933110       -0.12689226839107       -1.95020137289816
H           -5.98517270435322       -3.83607711282673       -1.32935757823539
H           -6.83153737304635        3.62166034135830        0.60547579888172
H           -2.99119105481856       -4.30161641169527        2.08473418014030
H           -2.78950765883040        4.18391380356984        1.80710394618153
H           -1.46038672998469       -0.99696675652179        4.28728563644068
H           -0.78457860625980        4.12643616690315        0.60089829631585
H            0.05571747513457       -1.84936319896641        1.60572209668954
H            2.57986356592267       -2.37578337030446        4.97747413190357
H            3.19337848278830        5.62415428860106        0.78873051840651
H            5.91832280184069        4.44092700688267        4.35522653771192
H            5.26486444078542        0.89605143995285        6.62066647403565
C           -0.15112839806277        3.52467334111037        5.49950301773402
C            0.15200500431532        2.72039660852465        6.59646255213517
C            1.48440034591955        2.68851815555514        7.08910600106890
C            2.33773089622743        3.78552023296306        6.72697824696765
C            1.94175145551510        4.66911939777870        5.70353625552358
C            0.73142614295833        4.51598438878434        5.07035303042324
C            1.98473640458450        1.69287058145373        7.99247810363045
C            3.12165543599722        2.10133930498002        8.72488206366927
C            3.79900406310660        3.32152476744014        8.41931627636823
N            3.46418709052568        4.08922998750043        7.37942223538684
C            1.56366350141753        0.31755579380471        8.14335439521705
C            2.26809491298406       -0.43744644701273        9.15017887423857
N            3.16076444885709        0.06861153228920       10.01219142596414
C            3.63113817663604        1.29049808474664        9.77727707861385
C            4.71330024495900        1.74248706790785       10.54982427457332
C            5.34911973265470        2.93504934416383       10.25354488594007
C            4.90830801318673        3.70809624745478        9.18992064266801
C            0.67012735284310       -0.43975280467542        7.30156598894048
C            0.69970047120278       -1.83757644809746        7.34923529985407
C            1.44661312790291       -2.54384104918404        8.28634846037381
C            2.15772281090374       -1.83815319249496        9.22189880842852
O           -0.82006171153376        2.07358741127215        7.28968856017632
O           -0.18492287337423        0.03441057013498        6.35642891894323
C            0.34059255876581        5.49854590850579        4.03416853836840
C            1.61633738743122       -4.01645522240365        8.29061860534154
C            6.54376050488725        3.36011640305656       11.01547257746526
C           -2.46595522500539       -1.97316750327238        7.86371153957486
C           -2.91859962010313       -0.94495739154394        7.04609762404082
C           -3.83654461915326       -1.23488801042750        5.97795108570492
C           -4.18477730329778       -2.62314694450646        5.79840579484856
C           -3.65190896761758       -3.62426689330305        6.63349639889522
C           -2.80345346161567       -3.30496267973437        7.66032431334692
C           -4.52245649315904       -0.29425051241204        5.12427755522788
C           -5.53067567705667       -0.80339698523850        4.27984070755150
C           -5.68939499312564       -2.20823852241249        4.11945958816975
N           -5.01378377018416       -3.08790910173622        4.85402458324680
C           -4.38915992394604        1.13162514855229        5.08579536752648
C           -5.47833013223309        1.91089637731230        4.56402911018380
N           -6.43202029106737        1.39334084747580        3.78284445805694
C           -6.40038247198716        0.07509602149554        3.56139106153458
C           -7.30824126434633       -0.46662431758220        2.63621545853379
C           -7.39123463055591       -1.83684533315061        2.43506860371030
C           -6.60171832667804       -2.69915555535602        3.17338949592292
C           -3.21832384987000        1.84418378952636        5.46843151053205
C           -3.34235354748186        3.18475708521370        5.82277390115457
C           -4.49481205987195        3.90741971604324        5.51057615825809
C           -5.51522695330130        3.29904978342827        4.81462535671834
O           -2.42597811534131        0.26900795383754        7.41335477379786
O           -2.01042247164848        1.24353598992062        5.37507674376654
C           -2.19696220463040       -4.31875184687502        8.54604504721764
C           -4.57631321167526        5.34704748958543        5.83729445325675
C           -8.32377599176688       -2.36641643115057        1.42023654174645
B           -1.35142951886176        0.90070433236324        6.62136915658792
O            7.25464741158678        4.25801251218976       10.62906825829657
O            6.78367507052486        2.66615772832482       12.14704840553603
C            7.93049777910517        3.15375350863969       12.79846902534005
O            1.09392580231172       -4.71270767831959        7.25764643180550
C            1.60164338125809       -6.02804571995520        7.24512907162193
O            2.27366451279280       -4.54622458023036        9.15686228945060
O           -1.60711065332184       -3.99717483636113        9.54977399066007
O           -2.32337908855964       -5.60503972964914        8.15043918630752
C           -1.69762501550855       -6.46229130291538        9.07248029959876
O           -8.95766017968362       -1.63243011627176        0.69919992449486
O           -8.38656502294460       -3.71319897537463        1.35110079824416
C           -9.20190648787876       -4.12870027270023        0.28361852065547
O           -5.51164604233255        6.03052379505637        5.49074604384500
O           -3.53799306855485        5.83096744952231        6.55229494246202
C           -3.71126293012599        7.19421098446538        6.84669826295595
O            1.13520134783258        6.30028111468780        3.59891205128020
O           -0.95443341315941        5.47621917963221        3.65956753342132
C           -1.22661079097086        6.48881675603517        2.72118966608867
H           -8.65506219422494       -3.96625615507679       -0.64433842927028
H          -10.11554857307880       -3.52847354165979        0.27390537716388
H           -9.43754253167623       -5.18502503247608        0.39645802890705
H           -2.90582136000429        7.52174660794984        7.50243304337150
H           -4.67878716529591        7.33367762893767        7.33672519308367
H           -3.69893067321258        7.76961928988304        5.91769031028681
H           -2.28925169055187        6.48034018305671        2.49451224507553
H           -0.64972805700851        6.30690534168001        1.81261838826896