116
 energy: -22.928061455056 gnorm: 0.329736929581 xtb: 6.6.1 (8d0f1dd)
C           -3.31122850772930        0.79849766164622       -0.92477639677520
C           -2.44380812530352       -0.12270372891954       -0.27661132624697
C           -1.41337090092821        0.39579727573559        0.56335275196199
C           -0.89266158675590        1.65801491088749        0.27377586709581
C           -1.72665675402493        2.51431363229076       -0.49448366572522
C           -2.95444148494349        2.13954154133227       -1.01494489940871
C           -0.74098268209890       -0.43411532818871        1.49825021926784
C            0.56872586496315        0.03782116815119        1.86248088067890
C            1.03782416582094        1.29402317993033        1.50887470833621
N            0.31238977034758        2.07067427098208        0.65193736800696
C           -1.29695700510141       -1.39996043042223        2.41574187746061
C           -0.38243517664656       -2.18060797534842        3.13232615520648
N            0.91308504082021       -1.90366887689689        3.30325166013478
C            1.37712470144904       -0.74872102533751        2.81811050966982
C            2.52149331701875       -0.17739833758153        3.39379298866852
C            2.95849061756259        1.02681208890480        2.95105897606587
C            2.24288949469137        1.78498308775960        2.03503020483770
C           -2.74860936222260       -1.74497937691422        2.38401158947411
C           -3.09416315450955       -2.91614440870436        3.00571134491758
C           -2.16786021984049       -3.77788778654213        3.63251872101904
C           -0.85708937311598       -3.40495313382985        3.68547234358092
O           -3.71994433332149       -0.94984598373544        1.67726658385724
O           -2.55702603277562       -1.47241711578389       -0.57241635275616
C           -3.84297843593025        3.13357444054366       -1.60938954875544
C           -2.68769581069131       -5.03867041417370        4.30484659386931
H           -1.39666850744143        3.51251503834900       -0.76806311868865
H           -4.27662633836220        0.55105838579656       -1.33106614114542
H            2.66329581305412        2.73912661909249        1.72562431984580
H            3.05775395548473       -0.69369546277216        4.16536137542516
H           -0.24710966264510       -4.12034095424229        4.22946223699121
H           -4.11477991332403       -3.04712728052358        3.03244694615357
O           -4.21824883374556        4.03433712717988       -0.87713382485991
O           -4.44510595673734        2.90643496899600       -2.81853501752979
C           -5.44216520282800        3.83300025693726       -3.02488532025093
C            4.23586651889298        1.50004220933226        3.59165660008449
O            5.05927614697201        0.66079890002952        3.91714215179376
O            4.47001334453535        2.86385149488593        3.72605651435371
C            5.79457498613219        3.08584475587818        4.15829123132174
O           -3.82227255313510       -5.27347675879771        4.16636005494405
O           -1.85023202017753       -5.79767454267276        5.06656077253571
C           -2.55119635829503       -6.86252441382958        5.62930343183426
C           -5.07197156564436       -1.42399175670916        1.58830531863830
C           -1.33089900128490       -2.23622472573986       -0.99264499351172
H           -2.54510546830388       -7.76426885143998        4.99136022291012
H           -3.57194749219491       -6.44405511486021        5.74196173723541
H           -2.09133598235598       -7.02043774843818        6.64022264233588
H            5.72707967266424        3.46798026205549        5.10135971236643
H            6.34060091246885        3.78468702308830        3.50069950143490
H            6.17933064298187        2.03010500085905        4.19342358084693
H           -0.91862729772622       -2.57650129080332       -0.01361370304871
H           -0.49769766914251       -1.60651221708571       -1.34094446550576
H           -1.52632419730509       -2.94569707152159       -1.75361447637286
H           -5.11788846557077       -2.41810833635233        1.17520213188926
H           -5.67929807973498       -0.69619639428435        1.04301666067831
H           -5.57598832326623       -1.42383358739762        2.57928294206544
H           -6.13050215934830        3.76035386975488       -2.23272855695873
H           -5.86615610071888        3.45938329385866       -4.02668959924245
H           -5.13479557532099        4.87790991548477       -2.98314551356402
C           -1.38192942069774        3.73616555005018        2.91232598411686
C           -1.84821468128685        2.59982427735607        3.49755545445181
C           -1.05946531454833        2.05730632010638        4.60922730982276
C            0.19893954712228        2.69376791964407        4.86302140881997
C            0.50425395911860        3.94630308659851        4.28768785650746
C           -0.26031777722226        4.46998310053134        3.25072669343212
C           -1.20488993561782        0.74454293276906        5.14851520323437
C           -0.06287609782692        0.02744069315890        5.60930570802864
C            1.19208754369866        0.71421540266195        5.78882868583885
N            1.19428660993148        2.06344359410476        5.62744624321596
C           -2.41361422770794        0.07928500213936        5.25249410304426
C           -2.45851584031083       -1.32662100968547        5.60237876023992
N           -1.29466212405906       -1.98318595734370        5.89916817085159
C           -0.14475655767527       -1.32117560077092        5.98824682881008
C            0.97209270935794       -1.98958449505532        6.53157704134458
C            2.21982707914082       -1.36973967291181        6.68703967237737
C            2.30561929262884       -0.09745313075593        6.26436900324455
C           -3.73018485967715        0.71367583494582        5.25810242262992
C           -4.89964478833448       -0.06184623426677        5.21204641615509
C           -4.82617965800088       -1.39228978090841        5.46901303780036
C           -3.67144193418464       -1.98914944386360        5.67265433266067
O           -3.75568638935321        2.07705011038914        5.52067969627343
O           -2.94192434743730        1.91263938797883        3.01658762327703
C            0.21273512614467        5.50086066357994        2.34765104514621
C           -6.06660304520411       -2.17604633098929        5.80641622556876
H            1.41756699010566        4.38133362238595        4.66974005703471
H           -1.82880610647429        4.11982501512100        2.06992133318584
H            3.26888037378556        0.32655662585251        6.31721410015598
H            0.87146188387207       -3.08471526305024        6.57830423410869
H           -3.67716811065157       -3.05999292755990        5.83019634570050
H           -5.77379677507622        0.43595144608221        4.71017130754348
O            1.34459852619901        5.82615848916894        2.44941456579099
O           -0.74718748219123        6.07961784856304        1.59848183464284
C           -0.21473095568964        7.24015934882472        1.05753806029483
C            3.53228080814219       -2.00967610361154        7.02506769044485
O            3.64093082622715       -3.14437803815732        7.50071391725347
O            4.56565258381079       -1.22937033368332        6.69086985080897
C            5.72579357310716       -1.80692399125161        7.22246151275881
O           -7.04801223588612       -1.95726935745904        5.14194115322235
O           -6.01514389321278       -2.93743591896022        6.94765316328794
C           -7.21292732384718       -3.62681918543340        7.15115816329978
C           -4.95459780685163        2.65960679932188        5.86868674392943
C           -3.68284113682406        2.59129188358641        2.05479246020704
H           -7.43119628931628       -4.22607794725959        6.20622607140901
H           -8.06548455146707       -2.91765848248592        7.29781126410398
H           -7.07314693247270       -4.33087306029711        7.91223421050944
H            6.57332189837178       -1.29353136199234        6.78341268688262
H            5.74663761932316       -2.84282155125561        6.88089468184451
H            5.69426191474290       -1.72781984964892        8.29460302186842
H           -4.10481209541493        3.44288266176275        2.60483747673152
H           -4.49244774344916        1.87419893016926        1.82433103764650
H           -3.18901540870812        2.85154642679373        1.06781919454921
H           -5.55414326821421        2.76698137191684        4.93950725322359
H           -4.78658370641210        3.62090640967288        6.25983200635257
H           -5.43485580473958        1.97242995129449        6.65265772412460
H            0.89164886030839        7.38838561720231        1.13776105146914
H           -0.62894889903848        8.04195665205089        1.64837664327952
H           -0.59282546386754        7.45699159724320        0.03719083132488
116
 energy: -22.802949554206 gnorm: 0.409646898230 xtb: 6.6.1 (8d0f1dd)
C           -2.84186423624582        0.55450076382280       -1.45813952298409
C           -2.26710167761623       -0.22013413171790       -0.47910323303000
C           -1.49127709102448        0.39757265859897        0.49658872295187
C           -1.16505327650411        1.82010296868574        0.24775848790326
C           -1.75076245702542        2.65243007652958       -0.78746785709375
C           -2.60514710207663        1.93777721259872       -1.59034263038352
C           -0.86832221371445       -0.25964402463478        1.61299604284620
C            0.32153379396380        0.31657642159130        1.99167234747752
C            0.68372022524720        1.60462033132971        1.72867315047492
N           -0.21116931577516        2.38989143455982        1.05421735368340
C           -1.38090133208081       -1.39552490065421        2.39754486065059
C           -0.50094765592919       -2.08331829762386        3.30706263013032
N            0.78132939754316       -1.54029918883669        3.41746640161544
C            1.18666239188692       -0.36303775845022        2.89337426001122
C            2.41575753162115        0.14070714360278        3.36431714003446
C            2.72119245040285        1.43802632114569        2.99014011672332
C            1.84479378979445        2.18524806098626        2.27562775799616
C           -2.71397926226503       -1.81806316269431        2.25021230067282
C           -3.08095041524910       -3.06885157957694        2.79069519201912
C           -2.17188547043881       -3.82833706732887        3.56456374593465
C           -0.87478232947340       -3.32381504199036        3.79911461458816
O           -3.56639274525691       -0.90060338924722        1.65900687057721
O           -2.40212742651855       -1.55860728436021       -0.50642137563026
C           -3.32730317599111        2.65711061000332       -2.66808832612694
C           -2.73030196497288       -4.83651890217741        4.48011847279479
H           -1.41841156125665        3.68463165923651       -0.88112049995524
H           -3.48748642280577       -0.00390432095412       -2.08006396368153
H            1.95899455148921        3.30494467800609        2.28768764909150
H            3.13911604175250       -0.43274732010831        3.97866602937198
H           -0.14556764171306       -3.95483914901240        4.33928863009968
H           -3.95629345007514       -3.52507004982971        2.36860674696426
O           -2.73447887327539        3.16573274794969       -3.59069833690740
O           -4.70777110915227        2.66575252105050       -2.49235506612488
C           -5.14038793878513        3.61755604944893       -3.43646467759051
C            3.86432082478106        1.95929852225155        3.74783334220578
O            4.45371112846592        1.31458153922144        4.61448077021688
O            4.18123001603703        3.26301399706530        3.45059959084293
C            4.94955931198039        3.76544422538211        4.51594750409622
O           -3.86637963222419       -5.36538143205885        4.26310834577242
O           -1.96083270358496       -5.13733867942213        5.60959086868701
C           -2.65384099757501       -5.77351241540730        6.55919355894921
C           -4.94711428682235       -1.40961269599773        1.53690475037315
C           -2.33303394211618       -2.17693861195680       -1.80772583400792
H           -3.66704336147424       -5.36090514511643        6.78688452303515
H           -2.03014363198594       -5.64582616733313        7.49249824073922
H           -3.03797927876536       -6.66223556725462        6.17151440001690
H            5.91537264876530        3.70313869711708        4.37341308005604
H            4.70241494311046        3.33523192503724        5.55488231720164
H            4.69018556482405        4.80165746737762        4.58381539795621
H           -3.14065742100020       -2.82597196453001       -2.04289420783995
H           -1.56646920395312       -2.86207559043716       -1.71522867122271
H           -1.91738343827189       -1.63638965898001       -2.67343689540171
H           -4.98762689169410       -2.18751779923761        0.74376386767055
H           -5.63716026965129       -0.70164124106538        1.01054680103897
H           -5.41053390791523       -1.79095611142478        2.48416680161934
H           -5.30884271220617        4.72989544350579       -3.36688080190635
H           -6.24401247306946        3.26273893782690       -3.37415325651778
H           -4.44458028270188        3.38619887442490       -4.27342386309662
C           -1.51180349711983        3.67679541699296        3.45461525609646
C           -1.89281674090150        2.56535067087823        4.25166506857910
C           -0.94959350805482        2.08734456087121        5.28019041386283
C            0.41409468036697        2.61835216578395        5.32316973224968
C            0.67591566639583        3.80934111077559        4.61793296642070
C           -0.27833569908516        4.28016379490343        3.69655455749180
C           -1.11306600113057        0.90910329029692        6.00648320937731
C            0.03013710649721        0.14953129894411        6.34078503487378
C            1.30840208191753        0.75613445209364        6.35958448072433
N            1.53895811046743        1.99924680920808        5.95312398615260
C           -2.37769877519656        0.19876462125373        6.29394042974382
C           -2.34811501212050       -1.18526433365700        6.62359242652718
N           -1.19639870428556       -1.90178617493910        6.75835061809785
C           -0.05671870594476       -1.22666271445296        6.62638276088268
C            1.15927081576468       -1.93201206300722        6.69979333536764
C            2.37967674019624       -1.43218748722409        6.38182338169169
C            2.53416210094786       -0.02202474972999        6.46069072797015
C           -3.63521516380526        0.94738081683398        6.38053850099574
C           -4.81670681307310        0.26766643004848        5.86362212142280
C           -4.77552083546803       -1.17382585087802        5.86754175189872
C           -3.64986388776369       -1.79659752616827        6.46452556010887
O           -3.42409635455333        2.24275078453996        6.90915377273037
O           -3.17412015334132        2.06207841764802        3.95037907310806
C            0.06836301080916        5.29135390155973        2.67354500070773
C           -5.83383600149876       -2.00350726398922        5.19423679787205
H            1.55161972543919        4.35523273789551        4.75757444455425
H           -1.99072826288153        3.85409839981790        2.57073978831318
H            3.50077334346833        0.40398891863192        6.41532088557598
H            1.19760156524834       -3.03013808838467        6.86766031715906
H           -3.68491671702897       -2.92821115193301        6.57419798513333
H           -5.57422772070930        0.86783954297749        5.38551306226253
O            0.56880194674605        6.38481359143218        3.03046706286602
O           -0.29094973285457        4.82961768494712        1.43610282094083
C           -0.38113567617236        5.99039095276289        0.60127360969794
C            3.60423736949033       -2.30310342897850        6.38153762067471
O            3.99667107225014       -2.76262828494150        7.45329446373455
O            3.93086858839007       -2.72885163904121        5.12774878817894
C            5.31489827679919       -3.16415306410185        5.12468469956948
O           -6.68296596530841       -1.45047975833540        4.45628733719737
O           -5.65516918488967       -3.36107110398021        5.44566552473874
C           -6.56625969759535       -4.20294449064358        4.80938067459063
C           -4.39961225069763        3.21991270660520        6.94610281432798
C           -3.68221300825952        2.22917835067524        2.61489616233996
H           -6.44677794116234       -3.97390665298862        3.73739474386651
H           -7.61411471668819       -4.06088401505679        5.05267978929784
H           -6.16142157971606       -5.18528010411124        4.86583782826636
H            5.96292408737684       -2.35375885354652        4.82873294144923
H            5.44589205173614       -3.88204921656995        4.39648593699656
H            5.68919223911450       -3.48024204362905        6.17234539525704
H           -4.52909712351737        1.58591788328845        2.41481589679536
H           -2.97599363834403        1.79834806628152        1.92333179785208
H           -3.91210417602676        3.25592703370364        2.23472315402819
H           -4.43905513745077        3.71071074109616        5.97988116075919
H           -4.29266600944517        3.77956669736955        7.89102112592793
H           -5.39186119925925        2.52623147179141        7.17663917737694
H           -0.99971005223418        5.74970604372623       -0.20279525341758
H            0.59299287428816        6.16037184301815        0.01115470753307
H           -0.71234306826131        6.84305387420152        1.17283498891198
116
 energy: -22.840003682014 gnorm: 0.428072019474 xtb: 6.6.1 (8d0f1dd)
C           -2.91884652938133       -0.13602401623051       -1.82156171464486
C           -2.31481614897676       -0.80722114953470       -0.77944718129436
C           -1.39282986900255       -0.04243391372887        0.02036515954168
C           -0.83372951748603        1.16811130160854       -0.46226254213001
C           -1.43865769597862        1.72850058639762       -1.55234228961672
C           -2.55965545068894        1.21916672030436       -2.15993684830597
C           -0.76045933235804       -0.54397565907727        1.29591563839660
C            0.47401237065182       -0.02942276194795        1.69174033623415
C            0.91273363930505        1.21748940657866        1.00660614930812
N            0.24950303395521        1.83593785295444        0.06065114097360
C           -1.31602143837482       -1.48537272587779        2.21374168607553
C           -0.41869422676986       -2.22147611699325        3.06756350835107
N            0.78156696919731       -1.80527672498042        3.42056338772377
C            1.16998546054088       -0.59305069205131        2.84667176019232
C            2.22981153361449        0.16702984431838        3.33391525902447
C            2.63557438633324        1.33654539549432        2.71769250631366
C            2.03895820531319        1.77044439682334        1.56516974629853
C           -2.72343427260936       -1.72186829572020        2.34089429752583
C           -3.19512286582169       -2.92266124725223        2.77604732027543
C           -2.29724705220876       -3.77921244685538        3.33426965237538
C           -1.01909756480418       -3.34990720659397        3.58167374801596
O           -3.61032470387000       -0.87087167900327        1.75717623774067
O           -2.55622338911714       -2.16314004668541       -0.51147127510847
C           -3.17986083727225        2.07293172203978       -3.27280321086522
C           -2.71785551972629       -5.14125678988276        3.93502256571886
H           -1.08064919531569        2.70672150806963       -1.89465862057684
H           -3.65544215421171       -0.56035992034122       -2.39347381369853
H            2.53117077314529        2.64950120514618        1.13611001020754
H            2.71475502416230       -0.08198856731502        4.27319765249046
H           -0.33230108196577       -4.00293247348427        4.17314485942160
H           -4.24776394640076       -3.16562386546138        2.61763701697507
O           -3.37203322412847        1.54976862756960       -4.38151053125946
O           -3.65062679208580        3.34469953943992       -2.89079981838577
C           -4.45726567584455        3.78929715636547       -3.92531803134148
C            3.93265858861127        1.94871532438306        3.13313386210657
O            4.23323425417380        1.62079626680472        4.27102173558669
O            4.63818717933449        2.75172257441559        2.30299696285934
C            5.85384294370713        3.16558606160563        2.93236729403158
O           -3.70350251675707       -5.57453630492081        3.31029743724005
O           -2.17233654856966       -5.69501448332322        5.06938865940038
C           -2.82094567523175       -6.87130284876206        5.37726527883847
C           -5.04244780153583       -0.95633864719666        2.10292630728813
C           -3.23092704719215       -2.60104750048941       -1.61984393065453
H           -3.72811831187526       -6.69913176046457        5.92691298226468
H           -2.16554232307022       -7.32585860126220        6.13186957393586
H           -3.08158528056953       -7.44784579935392        4.42707618354226
H            6.26487918494392        4.10717441816571        2.55469622113612
H            6.57192349895051        2.27313734579403        2.88696853662782
H            5.66342446257640        3.35586865726215        3.88154272269255
H           -4.31462337449046       -2.51547709451947       -1.56627562738442
H           -3.27787192882311       -3.65926497109479       -1.65436071209469
H           -2.80102881848507       -2.25947535420678       -2.45321834684572
H           -5.67938148404350       -1.81494910668542        1.79295969926427
H           -5.63680498334830       -0.14008021666455        1.68347554825132
H           -5.07040491015187       -0.85266614823999        3.29884733658982
H           -3.97127372931762        3.62124938691147       -4.80630793904283
H           -4.81517009297021        4.81453359835667       -3.66484105987050
H           -5.32500631870662        3.10108483812995       -4.01078705257794
C           -1.57022552183248        4.25416305709097        3.54494432202159
C           -1.78959781661817        2.87606479156382        3.82977439416302
C           -0.89468301842090        2.19439700720373        4.78523270059604
C            0.32024549522239        2.78509675506193        5.22245825803176
C            0.42037627286519        4.19541191389066        5.02700953280379
C           -0.46981994739252        4.93377584234778        4.18305010652966
C           -1.15046979166865        0.85949793128458        5.28598550310470
C           -0.03984956430024        0.16870639717868        5.81212608515901
C            1.21400688932462        0.94490531208059        6.13252082911700
N            1.37805589986215        2.25558443582716        5.80520276609721
C           -2.37427684393522        0.23407485668123        5.67982412976240
C           -2.31200188780830       -1.17313440273631        5.82834441494928
N           -1.16675880215170       -1.86115687226647        5.99421529892064
C           -0.05193998053377       -1.19396740028306        6.12034695735020
C            1.03879552550462       -1.79332905025843        6.69471635773214
C            2.14445737831517       -1.10215794425185        7.18773785694048
C            2.29832997925631        0.26304023151834        6.86831135972012
C           -3.65169802065546        0.94498419873664        5.91204259783042
C           -4.83616068899659        0.18081868744808        5.95540477074262
C           -4.70116429943103       -1.22379759531130        6.00045459964566
C           -3.50578053753246       -1.87611440323261        5.98360077987697
O           -3.56116586405686        2.40680204268133        6.08023290501654
O           -2.66355371034570        1.96437302322273        3.14889819889129
C           -0.11731219173597        6.32187493234637        4.00629509556466
C           -5.86161763089053       -2.14597595723685        6.09078886985073
H            1.11707025203068        4.64915935063504        5.64657913730099
H           -2.18795729582602        4.95469626857592        3.14608875727576
H            3.18920366083431        0.73982519435131        7.08847905321950
H            1.06997583785981       -2.92432891055152        6.77857579073107
H           -3.54387915442735       -2.95802215044855        6.20587199863383
H           -5.80209200161134        0.52894383444335        5.64900052169285
O            1.00341233803100        6.68906310434624        4.11399965745892
O           -1.25058046384434        7.05714785701288        3.61145774974834
C           -0.80818589815892        8.34217585411425        3.41757591534890
C            3.31028458784234       -1.92468188732915        7.54482845669473
O            3.67475865036497       -2.13917467809368        8.69691453038897
O            3.86468136490244       -2.50971396857105        6.44168585022456
C            5.21715565537449       -2.91777095932263        6.72654777330914
O           -6.93883411809589       -1.68032441634930        6.21930541321479
O           -5.45211133627345       -3.52670519330900        6.17785345662575
C           -6.68998788099442       -4.26923294217285        6.30278330969581
C           -4.17804110250251        3.03331337472861        7.11038900478257
C           -3.20015649692078        2.42633526162336        1.89855625156285
H           -7.16762062208875       -4.31522696421437        5.34991614156018
H           -7.31204958580029       -3.77297334462873        7.03999854180057
H           -6.46483311765711       -5.36568989657550        6.49059528664451
H            5.78831915404213       -2.10081054140140        7.09660398597155
H            5.71394850872443       -3.17075784588587        5.69188245218533
H            5.22159198018206       -3.66730695756913        7.48225213437863
H           -3.78038893838471        1.65007874763381        1.40096530370563
H           -2.43665905051157        2.71592013737655        1.19811280855267
H           -3.83635115400399        3.24972308413850        1.96519530412375
H           -5.24986880287415        3.12147336186486        6.83530576728404
H           -3.84973194787392        4.06827092164272        7.27612557085143
H           -4.07463847264915        2.49972235252511        8.10237863422364
H           -1.63035547114912        9.15244355124388        3.42316650849796
H           -0.52037674233823        8.54629568110610        2.39324349757463
H           -0.02826169351601        8.46843893910976        4.15794318013600
116
 energy: -22.846473733595 gnorm: 0.389021374727 xtb: 6.6.1 (8d0f1dd)
C           -3.10025201909131        0.48737367015674       -1.89525888221995
C           -2.57204059444621       -0.23899576753434       -0.90174226814917
C           -1.52860070443054        0.15205542543711       -0.06123531343949
C           -1.02007557407546        1.47081863451788       -0.28072079756299
C           -1.69225812217276        2.31690634570216       -1.16271296991710
C           -2.68052152977655        1.80159149505231       -1.97583396412731
C           -1.05288976704841       -0.62784667011155        1.01457479746577
C            0.14810951550748       -0.14934611526028        1.57394953554432
C            0.62215112698213        1.12174086305097        1.29916801114026
N           -0.01863499566560        1.97046974461659        0.46268276513554
C           -1.60261035182359       -1.80803681332891        1.74101083306351
C           -0.63082686902298       -2.64130547942140        2.37440579611830
N            0.69777593996566       -2.36202882729901        2.52902861656445
C            1.00374515866717       -1.06153179195580        2.26378587763411
C            2.22100732160547       -0.50596641807015        2.70393718633710
C            2.68355574697096        0.79681340288256        2.49179933140052
C            1.88846932179887        1.54589840094901        1.71753283752919
C           -2.98494637288340       -1.94025090507730        2.11102495920920
C           -3.28017516720747       -3.06339621895382        2.90860697206307
C           -2.33916970567350       -3.97450731603825        3.41164480398239
C           -1.05960338094023       -3.83226290095049        3.05187585838239
O           -4.02737856947392       -1.04137548353648        1.80410781262292
O           -2.94253775274184       -1.55723155556635       -0.80232436294252
C           -3.16407378874358        2.63323421435148       -3.12272531795310
C           -2.92938993259240       -5.23361600295480        4.06614931352845
H           -1.21203105304091        3.25939483420192       -1.35512744149745
H           -3.78452787765430        0.10527493895108       -2.55015403937324
H            2.05218321027341        2.57536420739636        1.50947527454756
H            2.82239111475080       -1.08989866162344        3.37119858930513
H           -0.27484375878747       -4.58440149307549        3.20874312370014
H           -4.30510732334762       -3.13565204635831        3.28192047775738
O           -4.24278701439607        3.15609402744686       -3.23739031670615