      -----------------------------------------------------------      
     |                   =====================                   |     
     |                           x T B                           |     
     |                   =====================                   |     
     |                         S. Grimme                         |     
     |          Mulliken Center for Theoretical Chemistry        |     
     |                    University of Bonn                     |     
      -----------------------------------------------------------      

   * xtb version 6.6.1 (8d0f1dd) compiled by 'runner@Mac-1690902418499.local' on 2023-08-01

   xtb is free software: you can redistribute it and/or modify it under
   the terms of the GNU Lesser General Public License as published by
   the Free Software Foundation, either version 3 of the License, or
   (at your option) any later version.
   
   xtb is distributed in the hope that it will be useful,
   but WITHOUT ANY WARRANTY; without even the implied warranty of
   MERCHANTABILITY or FITNESS FOR A PARTICULAR PURPOSE.  See the
   GNU Lesser General Public License for more details.
   
   Cite this work as:
   * C. Bannwarth, E. Caldeweyher, S. Ehlert, A. Hansen, P. Pracht,
     J. Seibert, S. Spicher, S. Grimme, WIREs Comput. Mol. Sci., 2020, 11,
     e01493. DOI: 10.1002/wcms.1493
   
   for GFN2-xTB:
   * C. Bannwarth, S. Ehlert and S. Grimme., J. Chem. Theory Comput., 2019,
     15, 1652-1671. DOI: 10.1021/acs.jctc.8b01176
   for GFN1-xTB:
   * S. Grimme, C. Bannwarth, P. Shushkov, J. Chem. Theory Comput., 2017,
     13, 1989-2009. DOI: 10.1021/acs.jctc.7b00118
   for GFN0-xTB:
   * P. Pracht, E. Caldeweyher, S. Ehlert, S. Grimme, ChemRxiv, 2019, preprint.
     DOI: 10.26434/chemrxiv.8326202.v1
   for GFN-FF:
   * S. Spicher and S. Grimme, Angew. Chem. Int. Ed., 2020, 59, 15665-15673.
     DOI: 10.1002/anie.202004239
   
   for ALPB and GBSA implicit solvation:
   * S. Ehlert, M. Stahn, S. Spicher, S. Grimme, J. Chem. Theory Comput.,
     2021, 17, 4250-4261. DOI: 10.1021/acs.jctc.1c00471
   
   for DFT-D4:
   * E. Caldeweyher, C. Bannwarth and S. Grimme, J. Chem. Phys., 2017,
     147, 034112. DOI: 10.1063/1.4993215
   * E. Caldeweyher, S. Ehlert, A. Hansen, H. Neugebauer, S. Spicher,
     C. Bannwarth and S. Grimme, J. Chem. Phys., 2019, 150, 154122.
     DOI: 10.1063/1.5090222
   * E. Caldeweyher, J.-M. Mewes, S. Ehlert and S. Grimme, Phys. Chem. Chem. Phys.
     2020, 22, 8499-8512. DOI: 10.1039/D0CP00502A
   
   for sTDA-xTB:
   * S. Grimme and C. Bannwarth, J. Chem. Phys., 2016, 145, 054103.
     DOI: 10.1063/1.4959605
   
   in the mass-spec context:
   * V. Asgeirsson, C. Bauer and S. Grimme, Chem. Sci., 2017, 8, 4879.
     DOI: 10.1039/c7sc00601b
   * J. Koopman and S. Grimme, ACS Omega 2019, 4, 12, 15120-15133.
     DOI: 10.1021/acsomega.9b02011
   
   for metadynamics refer to:
   * S. Grimme, J. Chem. Theory Comput., 2019, 155, 2847-2862
     DOI: 10.1021/acs.jctc.9b00143
   
   for SPH calculations refer to:
   * S. Spicher and S. Grimme, J. Chem. Theory Comput., 2021, 17, 1701-1714
     DOI: 10.1021/acs.jctc.0c01306
   
   with help from (in alphabetical order)
   P. Atkinson, C. Bannwarth, F. Bohle, G. Brandenburg, E. Caldeweyher
   M. Checinski, S. Dohm, S. Ehlert, S. Ehrlich, I. Gerasimov, C. Hölzer
   A. Katbashev, J. Koopman, C. Lavigne, S. Lehtola, F. März, M. Müller,
   F. Musil, H. Neugebauer, J. Pisarek, C. Plett, P. Pracht, F. Pultar,
   J. Seibert, P. Shushkov, S. Spicher, M. Stahn, M. Steiner, T. Strunk,
   J. Stückrath, T. Rose, and J. Unsleber
   
 * started run on 2025/03/14 at 12:54:02.853     

           -------------------------------------------------
          |                Calculation Setup                |
           -------------------------------------------------

          program call               : xtb scoord.19 --md --gfnff --input md_settings.inp
          coordinate file            : scoord.19
          omp threads                :                     8

   ID    Z sym.   atoms
    1    6 C      1-9, 11, 12, 14-21, 24, 25, 34, 35, 38, 41-43, 59-67, 69,
                  70, 72-79, 82, 83, 92, 93, 96, 99-101
    2    7 N      10, 13, 68, 71
    3    8 O      22, 23, 32, 33, 36, 37, 39, 40, 80, 81, 90, 91, 94, 95, 97,
                  98
    4    1 H      26-31, 44-58, 84-89, 102-116

molecular fragmentation (1/2 indicates fragments):
111111111111111111111111111111111111111111111111111111111122222222222222
22222222222222222222222222222222222222222222
# atoms in fragment 1/2:    58    58
 fragment masses (1/2) :      501.47      501.47
CMA distance (Bohr)    :   9.104
constraining FC (au)   :  0.0500

          ==================== Thresholds ====================
          CN  :   150.00000
          rep :   500.00000
          disp:  2500.00000
          HB1 :   250.00000
          HB2 :   450.00000

          Pauling EN used:
          Z : 1  EN :  2.20
          Z : 6  EN :  2.55
          Z : 7  EN :  3.04
          Z : 8  EN :  3.44
          electric field strengths (au): 0.000

           ------------------------------------------------- 
          |           Force Field Initialization            |
           ------------------------------------------------- 

          distances ...
          ----------------------------------------
          generating topology and atomic info file ...
          pair mat ...
          computing topology distances matrix with Floyd-Warshall algo ...
          making topology EEQ charges ...
          #fragments for EEQ constrain: 2
          ----------------------------------------
          generating topology and atomic info file ...
          pair mat ...
          computing topology distances matrix with Floyd-Warshall algo ...
          making topology EEQ charges ...
          rings ...
          # BATM   1140
          # H in HB   42
          doing iterative Hueckel for 2 subsystem(s) ...

  atom   neighbors  erfCN metchar sp-hybrid imet pi  qest     coordinates
    1  C       3    2.80   0.00         2    0    1  -0.013    2.930979    0.825158   -2.326461
    2  C       3    2.82   0.00         2    0    1   0.104    1.316482    1.847593   -0.361893
    3  C       3    2.82   0.00         2    0    1   0.014    2.032003    1.757971    2.194247
    4  C       3    2.85   0.00         2    0    1   0.068    4.092484    0.400376    2.988562
    5  C       3    2.83   0.00         2    0    1  -0.010    5.610594   -0.713655    1.083086
    6  C       3    2.80   0.00         2    0    1   0.024    5.159708   -0.431160   -1.493982
    7  C       3    2.84   0.00         2    0    1   0.003    0.584002    2.801220    4.294023
    8  C       3    2.85   0.00         2    0    1   0.018    0.932697    2.018726    6.854960
    9  C       3    2.84   0.00         2    0    1   0.069    3.184318    0.656804    7.342912
   10  N       2    1.94   0.00         2    0    1  -0.182    4.880900    0.020955    5.427098
   11  C       3    2.82   0.00         2    0    1   0.014   -1.297983    4.732507    3.910171
   12  C       3    2.87   0.00         2    0    1   0.068   -3.131713    4.966137    5.840023
   13  N       2    1.95   0.00         2    0    1  -0.182   -2.895912    4.201546    8.179216
   14  C       3    2.86   0.00         2    0    1   0.069   -0.644707    3.056816    8.783950
   15  C       3    2.83   0.00         2    0    1  -0.009   -0.084943    2.257256   11.226277
   16  C       3    2.81   0.00         2    0    1   0.024    2.065733    0.704160   11.716808
   17  C       3    2.84   0.00         2    0    1  -0.009    3.632383    0.098605    9.808407
   18  C       3    2.90   0.00         2    0    1   0.104   -1.056701    6.984384    2.137989
   19  C       3    2.80   0.00         2    0    1  -0.013   -3.282827    8.308024    1.329183
   20  C       3    2.82   0.00         2    0    1   0.024   -5.361229    7.744577    2.787031
   21  C       3    2.82   0.00         2    0    1  -0.010   -5.245050    6.567004    5.189190
   22  O       2    1.92   0.00         3    0    1  -0.326    1.268749    7.119301    1.124369
   23  O       2    1.91   0.00         3    0    1  -0.326   -1.109377    2.508312   -1.162297
   24  C       3    2.82   0.00         2    0    1   0.224    7.291611   -0.953229   -3.196721
   25  C       3    2.87   0.00         2    0    1   0.224   -7.835677    8.672407    1.825895
   26  H       1    0.98   0.00         0    0    0   0.083    7.022541   -2.087487    1.564529
   27  H       1    0.97   0.00         0    0    0   0.084    2.375394    0.478279   -4.255476
   28  H       1    0.98   0.00         0    0    0   0.084    5.140757   -1.062471   10.243308
   29  H       1    0.97   0.00         0    0    0   0.084   -0.975819    3.324502   12.726028
   30  H       1    0.98   0.00         0    0    0   0.083   -6.882776    6.561689    6.263614
   31  H       1    0.97   0.01         0    0    0   0.084   -3.393229    9.136803   -0.626291
   32  O       1    0.98   0.00         2    0    1  -0.364    8.209395   -2.926436   -3.770726
   33  O       2    1.92   0.00         3    0    1  -0.315    7.927514    1.210706   -4.407623
   34  C       4    3.48   0.00         3    0    0   0.037   10.066261    0.998274   -6.079271
   35  C       3    2.96   0.00         2    0    1   0.223    2.559444    0.112433   14.453081
   36  O       1    0.98   0.00         2    0    1  -0.365    4.529360   -0.958763   14.982233
   37  O       2    1.92   0.00         3    0    1  -0.315    1.012699    0.932203   16.182901
   38  C       4    3.60   0.00         3    0    0   0.039    2.091981    0.120351   18.487535
   39  O       1    0.98   0.00         2    0    1  -0.364   -7.970380   10.215412    0.161975
   40  O       2    1.91   0.00         3    0    1  -0.315   -9.915995    7.623473    2.999092
   41  C       4    3.53   0.00         3    0    0   0.037  -12.054124    8.364514    1.482205
   42  C       4    3.54   0.00         3    0    0   0.033    1.288249    8.677866   -0.930401
   43  C       4    3.50   0.00         3    0    0   0.033   -1.565120    2.261692   -3.783260
   44  H       1    0.97   0.01         0    0    0   0.079  -13.481970    6.870803    1.721294
   45  H       1    0.97   0.00         0    0    0   0.079  -11.635729    8.623061   -0.524250
   46  H       1    0.97   0.01         0    0    0   0.079  -12.739355   10.208088    2.273003
   47  H       1    0.97   0.01         0    0    0   0.078    3.513783    1.573263   18.992407
   48  H       1    0.97   0.01         0    0    0   0.078    3.034969   -1.764255   18.231518
   49  H       1    0.97   0.01         0    0    0   0.078    0.626882   -0.184375   19.946433
   50  H       1    0.97   0.01         0    0    0   0.076    0.070452    3.118341   -4.731928
   51  H       1    0.97   0.00         0    0    0   0.076   -3.084246    3.543013   -4.369239
   52  H       1    0.97   0.00         0    0    0   0.076   -2.002592    0.343937   -4.375568
   53  H       1    0.97   0.00         0    0    0   0.076    0.472393   10.500173   -0.450062
   54  H       1    0.97   0.01         0    0    0   0.076    0.250734    8.010495   -2.654343
   55  H       1    0.96   0.01         0    0    0   0.076    3.435051    8.979603   -1.261330
   56  H       1    0.95   0.02         0    0    0   0.079   11.617407   -0.079284   -4.902037
   57  H       1    0.97   0.01         0    0    0   0.079   10.734334    2.828602   -6.868158
   58  H       1    0.97   0.01         0    0    0   0.079    9.813143   -0.164087   -7.803145
   59  C       3    2.84   0.00         2    0    1  -0.013   -1.256515   -4.146291    3.489496
   60  C       3    2.83   0.00         2    0    1   0.104   -1.947890   -3.571665    5.945057
   61  C       3    2.85   0.00         2    0    1   0.014   -4.256090   -2.398037    6.328283
   62  C       3    2.85   0.00         2    0    1   0.068   -5.429811   -1.048266    4.241741
   63  C       3    2.83   0.00         2    0    1  -0.010   -4.311585   -1.399506    1.875437
   64  C       3    2.80   0.00         2    0    1   0.024   -2.439914   -3.100259    1.319361
   65  C       3    2.82   0.00         2    0    1   0.003   -5.149207   -1.899293    8.797381
   66  C       3    2.85   0.00         2    0    1   0.018   -6.631754    0.237596    8.943723
   67  C       3    2.85   0.00         2    0    1   0.069   -8.032781    1.286926    6.854774
   68  N       2    1.96   0.00         2    0    1  -0.182   -7.525686    0.476352    4.580452
   69  C       3    2.81   0.00         2    0    1   0.014   -4.369738   -3.025837   11.139280
   70  C       3    2.83   0.00         2    0    1   0.068   -4.668175   -1.568677   13.525436
   71  N       2    1.93   0.00         2    0    1  -0.182   -5.939697    0.662071   13.661852
   72  C       3    2.84   0.00         2    0    1   0.069   -7.050972    1.464664   11.445253
   73  C       3    2.81   0.00         2    0    1  -0.009   -9.384391    2.932375   11.748995
   74  C       3    2.81   0.00         2    0    1   0.024  -10.791434    3.542128    9.661655
   75  C       3    2.82   0.00         2    0    1  -0.009  -10.186951    2.747062    7.186476
   76  C       3    2.79   0.00         2    0    1   0.104   -3.574187   -5.671020   11.415338
   77  C       3    2.81   0.00         2    0    1  -0.013   -2.776849   -6.517544   13.748436
   78  C       3    2.80   0.00         2    0    1   0.024   -2.677804   -5.079583   15.974090
   79  C       3    2.82   0.00         2    0    1  -0.010   -3.700022   -2.706173   15.882404
   80  O       2    1.90   0.00         3    0    1  -0.326   -3.990149   -7.410190    9.257867
   81  O       2    1.92   0.00         3    0    1  -0.326   -0.254168   -3.965983    7.872783
   82  C       3    2.88   0.00         2    0    1   0.224   -1.419943   -3.753000   -1.234074
   83  C       3    2.83   0.00         2    0    1   0.224   -1.615810   -5.820349   18.528459
   84  H       1    0.97   0.01         0    0    0   0.083   -5.122937   -0.536521    0.146534
   85  H       1    0.97   0.01         0    0    0   0.084    0.421803   -5.405955    3.460780
   86  H       1    0.97   0.00         0    0    0   0.084  -11.163446    3.465190    5.504063
   87  H       1    0.98   0.00         0    0    0   0.084   -9.752560    3.701645   13.507021
   88  H       1    0.97   0.00         0    0    0   0.083   -3.944700   -1.855798   17.752148
   89  H       1    0.97   0.01         0    0    0   0.084   -2.143906   -8.544218   13.907259
   90  O       1    0.98   0.00         2    0    1  -0.364   -2.722554   -3.528631   -3.119436
   91  O       2    1.92   0.00         3    0    1  -0.315    1.087382   -4.572498   -1.209813
   92  C       4    3.56   0.00         3    0    0   0.037    1.602538   -5.656014   -3.435316
   93  C       3    2.86   0.00         2    0    1   0.223  -13.431538    4.638443   10.013138
   94  O       1    0.98   0.00         2    0    1  -0.365  -14.189889    5.497865   12.049577
   95  O       2    1.92   0.00         3    0    1  -0.315  -14.916071    4.588029    7.891027
   96  C       4    3.54   0.00         3    0    0   0.039  -17.202622    5.803236    8.408156
   97  O       1    0.98   0.00         2    0    1  -0.364   -0.112408   -7.500876   18.689877
   98  O       2    1.92   0.00         3    0    1  -0.315   -2.038920   -4.178091   20.488103
   99  C       4    3.50   0.00         3    0    0   0.037   -0.854296   -4.955735   22.754014
  100  C       4    3.49   0.00         3    0    0   0.033   -3.424819   -9.972059    9.795738
  101  C       4    3.51   0.00         3    0    0   0.033    1.657127   -5.678704    7.564673
  102  H       1    0.97   0.01         0    0    0   0.079   -1.232220   -3.447947   24.164495
  103  H       1    0.97   0.01         0    0    0   0.079    1.194985   -4.889804   22.168041
  104  H       1    0.97   0.00         0    0    0   0.079   -1.251892   -6.913760   23.294964
  105  H       1    0.97   0.00         0    0    0   0.078  -16.819281    7.804112    8.359182
  106  H       1    0.98   0.00         0    0    0   0.078  -18.262130    4.879862    9.853553
  107  H       1    0.97   0.00         0    0    0   0.078  -18.414596    5.205578    6.843794
  108  H       1    0.97   0.00         0    0    0   0.076    1.023499   -7.440864    6.762610
  109  H       1    0.98   0.00         0    0    0   0.076    2.679604   -5.727469    9.277999
  110  H       1    0.98   0.00         0    0    0   0.076    2.827822   -4.881433    6.129824
  111  H       1    0.97   0.00         0    0    0   0.076   -3.911613  -10.412503   11.734952
  112  H       1    0.98   0.00         0    0    0   0.076   -1.429177  -10.211022    9.877677
  113  H       1    0.97   0.00         0    0    0   0.076   -4.261953  -11.213283    8.402066
  114  H       1    0.97   0.00         0    0    0   0.079    1.167368   -4.417286   -4.990446
  115  H       1    0.97   0.00         0    0    0   0.079    0.923171   -7.551914   -3.795466
  116  H       1    0.97   0.01         0    0    0   0.079    3.672170   -5.734117   -3.227894

          #atoms :   116
          #bonds :   124
          #angl  :   206
          #tors  :   302
          #nmol  :   2
          #optfrag :   2
           ------------------------------------------------- 
          |                   G F N - F F                   |
          |          A general generic force-field          |
          |                  Version 1.0.3                  | 
           ------------------------------------------------- 
          Number of HB bonds (bound hydrogen)     18428
          Number of HB bonds (unbound hydrogen)   511
          Number of XB bonds                      0

 E+G (total)                   0 d,  0 h,  0 min,  0.002 sec
 distance/D3 list               ...        0 min,  0.000 sec (  1.028%)
 non bonded repulsion           ...        0 min,  0.000 sec (  5.694%)
 dCN                            ...        0 min,  0.000 sec (  6.156%)
 EEQ energy and q               ...        0 min,  0.000 sec (  9.794%)
 D3                             ...        0 min,  0.000 sec ( 14.995%)
 EEQ gradient                   ...        0 min,  0.000 sec (  2.641%)
 bonds                          ...        0 min,  0.000 sec (  6.423%)
 bend and torsion               ...        0 min,  0.000 sec (  3.885%)
 bonded ATM                     ...        0 min,  0.000 sec (  2.148%)
 HB/XB (incl list setup)        ...        0 min,  0.001 sec ( 46.896%)

         :::::::::::::::::::::::::::::::::::::::::::::::::::::
         ::                     SUMMARY                     ::
         :::::::::::::::::::::::::::::::::::::::::::::::::::::
         :: total energy             -22.891315838832 Eh    ::
         :: gradient norm              0.355132206738 Eh/a0 ::
         ::.................................................::
         :: bond energy              -23.527841269132 Eh    ::
         :: angle energy               0.101983124621 Eh    ::
         :: torsion energy             0.079577669147 Eh    ::
         :: repulsion energy           1.591938640126 Eh    ::
         :: electrostat energy        -0.946254511117 Eh    ::
         :: dispersion energy         -0.154913245741 Eh    ::
         :: HB energy                 -0.004954795666 Eh    ::
         :: XB energy                  0.000000000000 Eh    ::
         :: bonded atm energy         -0.030851451069 Eh    ::
         :: external energy            0.000000000000 Eh    ::
         :: add. restraining           0.000000000000 Eh    ::
         :: total charge              -0.000000000000 e     ::
         :::::::::::::::::::::::::::::::::::::::::::::::::::::

           -------------------------------------------------
          |                Property Printout                |
           -------------------------------------------------

           -------------------------------------------------
          | TOTAL ENERGY              -22.891315838832 Eh   |
          | GRADIENT NORM               0.355132206738 Eh/α |
           -------------------------------------------------
           ------------------------------------------------- 
          |               Molecular Dynamics                |
           ------------------------------------------------- 
 trajectories on xtb.trj or xtb.trj.<n>

 MD time /ps        :   20.00
 dt /fs             :    2.00
 SCC accuracy       :    2.00
 temperature /K     :  391.00
 max steps          : 10000
 block length (av.) :  2500
 dumpstep(trj) /fs  :  500.00   250
 dumpstep(coords)/fs: 1000.00   500
 H atoms mass (amu) :     4
 # deg. of freedom  :   348
 SHAKE off
 Berendsen THERMOSTAT on
         time (ps)    <Epot>      Ekin   <T>   T     Etot
      0    0.00      0.00000   0.4495    0.    0.   -22.44184
est. speed in wall clock h for 100 ps :  0.02
    200    0.40    -22.67760   0.2767  558.  502.   -22.53303
    400    0.80    -22.74672   0.2746  528.  498.   -22.56319
    600    1.20    -22.77899   0.2550  509.  463.   -22.60015
    800    1.60    -22.79932   0.2489  493.  452.   -22.63104
   1000    2.00    -22.81370   0.2093  480.  380.   -22.65331
   1200    2.40    -22.82336   0.2147  468.  390.   -22.65341
   1400    2.80    -22.83034   0.2191  459.  398.   -22.65167
   1600    3.20    -22.83679   0.2153  452.  391.   -22.66619
   1800    3.60    -22.84205   0.2011  446.  365.   -22.67536
   2000    4.00    -22.84569   0.2114  440.  384.   -22.68029
   2200    4.40    -22.84891   0.2157  436.  392.   -22.65728
   2400    4.80    -22.85162   0.2108  432.  382.   -22.65634
block <Epot> / <T> :     -22.86184  431.     drift:  0.99D+02   Tbath : 391.
   2600    5.20    -22.85383   0.1921  429.  349.   -22.68279
   2800    5.60    -22.85616   0.2164  427.  393.   -22.66337
   3000    6.00    -22.85824   0.2164  425.  393.   -22.65475
   3200    6.40    -22.85995   0.2128  423.  386.   -22.66421
   3400    6.80    -22.86152   0.2109  421.  383.   -22.67353
   3600    7.20    -22.86280   0.2403  419.  436.   -22.65529
   3800    7.60    -22.86381   0.2301  418.  418.   -22.66748
   4000    8.00    -22.86478   0.2042  416.  371.   -22.67533
   4200    8.40    -22.86576   0.2228  415.  404.   -22.66891
   4400    8.80    -22.86688   0.2246  414.  408.   -22.67350
   4600    9.20    -22.86789   0.1921  413.  349.   -22.67569
   4800    9.60    -22.86844   0.2175  412.  395.   -22.66829
   5000   10.00    -22.86892   0.2021  411.  367.   -22.66550
block <Epot> / <T> :     -22.88515  391.     drift:  0.99D+02   Tbath : 391.
   5200   10.40    -22.86950   0.2302  410.  418.   -22.66456
   5400   10.80    -22.87002   0.2105  410.  382.   -22.66714
   5600   11.20    -22.87059   0.2155  409.  391.   -22.66343
   5800   11.60    -22.87093   0.2075  408.  376.   -22.66840
   6000   12.00    -22.87124   0.2105  408.  382.   -22.65242
   6200   12.40    -22.87145   0.2056  407.  373.   -22.66350
   6400   12.80    -22.87175   0.2150  407.  390.   -22.65883
   6600   13.20    -22.87210   0.2140  406.  388.   -22.65907
   6800   13.60    -22.87247   0.2111  406.  383.   -22.66756
   7000   14.00    -22.87283   0.2116  405.  384.   -22.67354
   7200   14.40    -22.87313   0.2121  405.  385.   -22.67219
   7400   14.80    -22.87346   0.2161  405.  392.   -22.66748
block <Epot> / <T> :     -22.88312  392.     drift:  0.99D+02   Tbath : 391.
   7600   15.20    -22.87382   0.2258  404.  410.   -22.65589
   7800   15.60    -22.87413   0.2141  404.  389.   -22.65876
   8000   16.00    -22.87444   0.2122  404.  385.   -22.67426
   8200   16.40    -22.87474   0.2108  403.  383.   -22.68309
   8400   16.80    -22.87494   0.1970  403.  358.   -22.67131
   8600   17.20    -22.87503   0.2047  403.  372.   -22.67880
   8800   17.60    -22.87531   0.2137  403.  388.   -22.66926
   9000   18.00    -22.87556   0.2084  402.  378.   -22.67014
   9200   18.40    -22.87576   0.1952  402.  354.   -22.68303
   9400   18.80    -22.87592   0.2327  402.  422.   -22.67424
   9600   19.20    -22.87605   0.2150  401.  390.   -22.66205
   9800   19.60    -22.87628   0.2286  401.  415.   -22.66154
 average properties 
 Epot               :  -22.876427317152501     
 Epot (accurate SCC):  -22.878640872564041     
 Ekin               :  0.22103356370490992     
 Etot               :  -22.655393753447591     
 T                  :   401.13186694982824     
 thermostating problem
 normal exit of md()
########################################################################
[WARNING] Runtime exception occurred
-1- gfnff_setup: Could not read topology file.
########################################################################
Note: The following floating-point exceptions are signalling: IEEE_UNDERFLOW_FLAG
normal termination of xtb

------------------------------------------------------------------------
 * finished run on 2025/03/14 at 12:54:19.103     
------------------------------------------------------------------------
 total:
 * wall-time:     0 d,  0 h,  0 min, 16.250 sec
 *  cpu-time:     0 d,  0 h,  0 min, 33.063 sec
 * ratio c/w:     2.035 speedup
 SCF:
 * wall-time:     0 d,  0 h,  0 min,  0.003 sec
 *  cpu-time:     0 d,  0 h,  0 min,  0.005 sec
 * ratio c/w:     1.819 speedup
 MD:
 * wall-time:     0 d,  0 h,  0 min, 16.234 sec
 *  cpu-time:     0 d,  0 h,  0 min, 33.046 sec
 * ratio c/w:     2.036 speedup

