116
 energy: -22.891315838832 gnorm: 0.355132206738 xtb: 6.6.1 (8d0f1dd)
C            1.55100752774521        0.43665495802551       -1.23111028596745
C            0.69665202429816        0.97770390520963       -0.19150570721158
C            1.07528960364135        0.93027805972929        1.16114544831253
C            2.16564924693806        0.21186975927361        1.58147891452568
C            2.96899871053080       -0.37765009766428        0.57314461201476
C            2.73040015158345       -0.22816030764080       -0.79058116384530
C            0.30904051439990        1.48234177259463        2.27229892205479
C            0.49356181078087        1.06826364948599        3.62748850900576
C            1.68506863829238        0.34756564207204        3.88570162030280
N            2.58286085430950        0.01108908567047        2.87189680411865
C           -0.68686288439267        2.50433464189697        2.06917331517830
C           -1.65723115513408        2.62796626591480        3.09040707527497
N           -1.53245068709838        2.22336242050427        4.32825445114905
C           -0.34116400000753        1.61759730121708        4.64826622691463
C           -0.04494993689863        1.19448869776605        5.94069014016993
C            1.09313882369693        0.37262557573489        6.20026798778272
C            1.92217430999986        0.05217972673671        5.19038572193339
C           -0.55918184764246        3.69597658644384        1.13137498233538
C           -1.73719738965585        4.39641722971123        0.70337334658017
C           -2.83704014361278        4.09825370106297        1.47483330876333
C           -2.77556106232488        3.47510882570583        2.74600119099318
O            0.67139317735865        3.76737208122598        0.59499042001678
O           -0.58705693946327        1.32734163004674       -0.61506112539941
C            3.85855440922838       -0.50442718002594       -1.69163165600893
C           -4.14646164750667        4.58923991576499        0.96622223733615
H            3.71616847048830       -1.10465079166293        0.82791324622390
H            1.25700451448805        0.25309452715383       -2.25190087727795
H            2.72037140723451       -0.56223533991758        5.42052516893904
H           -0.51638136425991        1.75925059747219        6.73432389779389
H           -3.64220802307519        3.47229653869900        3.31456193969903
H           -1.79561926169198        4.83498770013699       -0.33141898275530
O            4.34422469358447       -1.54860335126575       -1.99538239073809
O            4.19505963985470        0.64067811271291       -2.33241340831200
C            5.32683618038358        0.52826364077652       -3.21701170870929
C            1.35439937473725        0.05949707705904        7.64824093940494
O            2.39683407712008       -0.50735531167711        7.92825633376920
O            0.53589741398368        0.49330042347441        8.56362254784183
C            1.10702850442753        0.06368709340256        9.78318231176481
O           -4.21774348725390        5.40576329430684        0.08571352022770
O           -5.24731868563464        4.03416793484990        1.58705104973372
C           -6.37876794822476        4.42631002323966        0.78434891951085
C            0.68171211184380        4.59212898718662       -0.49234685033501
C           -0.82822586755617        1.19683579965877       -2.00201473463668
H           -7.13435134975577        3.63587237199803        0.91086939926386
H           -6.15736262277210        4.56312730143788       -0.27742117427123
H           -6.74137609419416        5.40188733887114        1.20282136736186
H            1.85941389867406        0.83253513049829       10.05034914751386
H            1.60603620807656       -0.93360370005422        9.64770383895437
H            0.33173174942407       -0.09756725715536       10.55519764116224
H            0.03728173219129        1.65015521340755       -2.50402859421545
H           -1.63211267790978        1.87488191941121       -2.31210158964263
H           -1.05972617747953        0.18200352076199       -2.31545107682819
H            0.24997985059506        5.55645205491148       -0.23816238037173
H            0.13268281773173        4.23897138784300       -1.40461790656580
H            1.81775083843086        4.75180114598110       -0.66746732881512
H            6.14766718838672       -0.04195504789439       -2.59404633752197
H            5.68036472771336        1.49683169894081       -3.63447245235718
H            5.19289147503959       -0.08683122106119       -4.12924645728097
C           -0.66491904552164       -2.19412270550672        1.84656153091001
C           -1.03077895244172       -1.89004347877279        3.14598893248427
C           -2.25222583906053       -1.26898629977901        3.34878329829555
C           -2.87333249911947       -0.55471839062061        2.24463280015759
C           -2.28159244294024       -0.74058682140644        0.99243870130130
C           -1.29114703273741       -1.64058658539253        0.69817559447334
C           -2.72484287594840       -1.00506250462554        4.65537369672705
C           -3.50937325158697        0.12573038273795        4.73281430263611
C           -4.25076478191515        0.68101200185046        3.62739039349985
N           -3.98242138454515        0.25207442623175        2.42387083464794
C           -2.31236591140551       -1.60120395885648        5.89465337782693
C           -2.47029187146854       -0.83010795793868        7.15735238877527
N           -3.14315244882599        0.35035264088871        7.22954055366042
C           -3.73121346445136        0.77506704510362        6.05656719490799
C           -4.96600610319588        1.55174613115532        6.21730065311242
C           -5.71058072002848        1.87441363495940        5.11272780197911
C           -5.39070216287041        1.45368257135732        3.80291948669550
C           -1.89137806782880       -3.00097472595572        6.04073683619171
C           -1.46944496946993       -3.44893564223578        7.27535897489862
C           -1.41703286070035       -2.68799974280873        8.45312462719407
C           -1.95796731358459       -1.43204483551056        8.40460636279091
O           -2.11149603476510       -3.92130377954503        4.89905216316971
O           -0.13449978095016       -2.09870759408271        4.16609711478639
C           -0.75140173666867       -1.98600209852295       -0.65304360221900
C           -0.85504976456697       -3.07999616263957        9.80483829160269
H           -2.71094167653001       -0.28391464523520        0.07754258014164
H            0.22320865906460       -2.86070811067476        1.83136588388943
H           -5.90744138606766        1.83369932562300        2.91262474172327
H           -5.16083264744473        1.95882600569108        7.14760786984158
H           -2.08744542815457       -0.98204621914916        9.39403190758527
H           -1.13450593733103       -4.52140531706587        7.35940467683615
O           -1.44071339745567       -1.86727105737648       -1.65073427825580
O            0.57541772949263       -2.41966169415875       -0.64020573058478
C            0.84802637769619       -2.99303355260219       -1.81789071256688
C           -7.10766375184865        2.45455829609147        5.29872455681036
O           -7.50896599037173        2.90934468948278        6.37636161692526
O           -7.89324469631694        2.42788033000818        4.17575153404528
C           -9.10323573859134        3.07094011595996        4.44940437590133
O           -0.05948386284321       -3.96929254840726        9.89025685330831
O           -1.07895022852183       -2.21095068059173       10.84183744396271
C           -0.45207398491085       -2.62246219347522       12.04090556374683
C           -1.81233594062564       -5.27698610406017        5.18368139604812
C            0.87691364005947       -3.00504062629623        4.00305260792918
H           -0.65206258595533       -1.82457482220709       12.78729998913765
H            0.63235907059592       -2.58757307899437       11.73082225288889
H           -0.66247248988052       -3.65860402600903       12.32716403193062
H           -8.90038042774947        4.12975796195137        4.42348839213458
H           -9.66390317102419        2.58231157359939        5.21427556429224
H           -9.74458462139154        2.75467340779156        3.62157998366224
H            0.54161254205190       -3.93753584211959        3.57861928981550
H            1.41798531050544       -3.03084625005152        4.90970545930815
H            1.49641889869648       -2.58314328808770        3.24376293948195
H           -2.06993653277746       -5.51005920107336        6.20986927709152
H           -0.75628804736217       -5.40344005893979        5.22704163413893
H           -2.25532815525451       -5.93381384360185        4.44618195748579
H            0.61774469060816       -2.33752682710010       -2.64083031100363
H            0.48852125537914       -3.99630086646005       -2.00847403237242
H            1.94322891105084       -3.03436392131743       -1.70812802308530
116
 energy: -22.782744175194 gnorm: 0.431454579771 xtb: 6.6.1 (8d0f1dd)
C            1.58281237995152        0.73507107598297       -1.18553804626467
C            0.64557469245847        1.09249122364272       -0.26943867208254
C            1.08470479051279        1.40885487874003        1.07482518863105
C            2.42864091938566        0.94765138286981        1.51996434322075
C            3.30340432512444        0.47733910064686        0.40043600539162
C            2.88491897120878        0.45312010014787       -0.93143351284569
C            0.17146971149740        1.79235755243849        2.06016409737378
C            0.40840387821294        1.43501796637573        3.38190415202040
C            1.62568406897862        0.80418010305263        3.73001657550907
N            2.70818834863959        0.60076359482985        2.86252350612077
C           -0.83439827028572        2.75729348940003        1.81701502239053
C           -1.94325311623663        2.69121044254723        2.75467271436175
N           -1.86650134308218        2.16230593159361        3.95939922201922
C           -0.65167977111391        1.72964911226641        4.33117858852644
C           -0.49257654490787        1.27403896859830        5.67919239419223
C            0.63072490570050        0.56435376230205        6.07662751178601
C            1.72220525482504        0.38289840768534        5.09865270186998
C           -0.88608281044986        3.54172329628365        0.57497485412032
C           -2.08495290798552        4.17705611640544        0.40778225195805
C           -3.13174260232035        4.08290206505206        1.24989940864942
C           -3.02154152568027        3.51509301590209        2.43978539124023
O            0.28408258533027        3.65867379568540       -0.15394964939149
O           -0.73454362757147        1.05680820294716       -0.53828877241703
C            3.66516488065868       -0.24110283574773       -2.03478148860570
C           -4.48375072522467        4.70903875830700        0.93921349557388
H            4.14770685418915       -0.13999261299590        0.73647199353101
H            1.34069154029819        0.15149077174705       -2.00724081090618
H            2.70444996950064        0.31019438016347        5.42345710171225
H           -1.29909161291033        1.44072741965252        6.36335664081220
H           -3.71510810402229        3.52685966956420        3.12554848137730
H           -2.43282260442807        4.70915420694711       -0.49705460894126
O            3.02683361953109       -1.09401945701401       -2.66304359820478
O            4.88064017898872        0.27309779400936       -2.32481125524312
C            5.40736178734311       -0.24069630551363       -3.47607038055974
C            1.17186351881237        0.25857344728850        7.41686932623007
O            2.28934673548314       -0.09166515553879        7.70279621862911
O            0.19590922452580        0.32062530607818        8.34783902145457
C            0.77386723150001       -0.02524877304488        9.56846061500500
O           -4.60803728018477        5.56612710332435        0.10044708813205
O           -5.50675131173965        4.22319392603531        1.62785473964251
C           -6.65393222472172        4.84131157751553        1.16703350457237
C            0.22775006294003        4.75220606515555       -1.01755553839085
C           -1.07687672298032        1.48118430010406       -1.89343883634527
H           -7.52688578232451        4.42988303096765        1.72645635518553
H           -6.69571354589408        4.79409848870634        0.08545182652294
H           -6.52739073324718        5.95755155726933        1.12205592966032
H            0.79748081260776       -1.06869663015376        9.68197030826170
H            0.20886629115978        0.19073107704177       10.41385118844044
H            1.70438617185322        0.56251033334184        9.66307281701067
H           -0.41995067368504        2.24723794163942       -2.17786824483453
H           -2.12314176189774        1.71889754689867       -1.97407422419591
H           -0.83006704975785        0.63983958208641       -2.68063412290785
H           -0.68300575087255        5.30216083353017       -0.82758631801516
H            0.37562075944759        4.32491770295854       -1.99988546305327
H            1.04163402015258        5.44195572741155       -0.72914084770601
H            5.71439334433186        0.61656787776186       -4.19085651459765
H            4.62524771828945       -0.81707045452160       -3.99737976352518
H            6.37626467455617       -0.86862463948235       -3.31984917431090
C           -0.20262461172325       -2.15515858716646        2.13142446674091
C           -0.72308927363866       -2.04266114757966        3.43376971257502
C           -2.13471921815632       -1.68825090195332        3.60645971977210
C           -2.62387679923998       -1.10404673235626        2.44274247963226
C           -2.06731012487963       -1.33240892468604        1.11684394044733
C           -0.91807692781615       -2.04289855637157        0.98901934067101
C           -2.82440491485430       -1.53081391385364        4.86768497675363
C           -3.68642978047575       -0.46955330380782        4.97767169526101
C           -4.20112613457383        0.08695059632848        3.71885884056467
N           -3.76472943378218       -0.36118952122238        2.54665860450589
C           -2.44677585920733       -2.03726866018062        6.09678808423831
C           -2.91907979611844       -1.46648265299485        7.32382685333150
N           -3.62377976715728       -0.33871535331528        7.26226239381824
C           -4.03917641458888        0.17489354333873        6.14504500756550
C           -4.81840322777615        1.31973030362203        6.16491974018998
C           -5.14592624730001        1.99003390154532        4.97381756525514
C           -4.96245233128133        1.23360696350328        3.80628367973849
C           -1.76907594666224       -3.23909992361766        6.17581200059272
C           -1.43733945887847       -3.82567382379280        7.42911325860702
C           -1.68457608389735       -3.14630455551168        8.61293687497044
C           -2.35700893186793       -1.98208448993622        8.49538702185888
O           -1.54318782475747       -4.04401707262653        5.03742440383836
O            0.03059555642915       -2.19594563256273        4.58583401068992
C           -0.25625857420703       -2.48319279328018       -0.33159775872508
C           -1.28020350124478       -3.58569029908256        9.96687379062839
H           -2.80083404366677       -1.35481793211500        0.27311958024118
H            0.75318639178999       -2.69654812657138        2.07368828848831
H           -5.25237419562435        1.65196085936323        2.80982131174434
H           -5.39286236970292        1.49741613216028        7.05949260572110
H           -2.48793766630644       -1.50015341747995        9.45381676913995
H           -0.84784089818033       -4.75779438482680        7.37950844942540
O           -0.79997158410555       -2.12851888755050       -1.37426218804987
O            0.99458473953575       -2.82513560473532       -0.04867541443956
C            1.72076254976537       -2.72491915267275       -1.26997082485248
C           -6.18842857457636        3.04924341071134        5.26195898290628
O           -6.06600663108294        3.78349786772299        6.22530195227834
O           -7.23148026715801        3.18159027744126        4.30347790428675
C           -8.15936972115107        4.08541852489794        4.84222396295421
O           -1.33989462420245       -4.80064953171786       10.27781901079655
O           -0.82235585973497       -2.59990969416089       10.76408900771363
C           -0.18770488167329       -2.94841246290629       11.97536624220790
C           -2.39463292923576       -5.23689654915733        5.32211656988415
C            1.41260166952491       -2.34196909750908        4.24309182984264
H           -0.51521882322640       -2.14553673824696       12.67859471155168
H            0.80985150516747       -3.01512889841780       11.73003484281920
H           -0.49028662000019       -3.94130310616347       12.28322618583173
H           -8.38553948391954        5.13843225304067        4.49516113342825
H           -7.73127921768801        4.27406159411829        5.81126878777708
H           -8.99093241543692        3.53991841881431        5.15624671225930
H            1.27522084086073       -3.27959721977584        3.73198371919548
H            1.98900773413447       -2.68611634060786        5.12220942008838
H            1.97723859591298       -1.67043732418499        3.49034609659931
H           -3.42029526478736       -4.91604048037582        5.43323207312930
H           -2.05198878439582       -5.92814631657594        5.99299405911022
H           -2.54406461800259       -5.71797871855624        4.32715856695685
H            1.51557075229184       -3.72415231030027       -1.86745013856366
H            2.78729476726060       -2.71611790264762       -0.94359685087911
H            1.14873159408478       -2.01657771522006       -1.90692528175584
116
 energy: -22.857836766677 gnorm: 0.361279365626 xtb: 6.6.1 (8d0f1dd)
C            1.55826578363947        0.66292945254466       -1.48995701516305
C            0.59510451191725        1.01408753603962       -0.56519457187921
C            0.91058848909991        1.14799885662213        0.83977688981327
C            2.18263965297550        0.69704649960821        1.34187471713167
C            3.07937707013356        0.24311137528626        0.33733368968568
C            2.82953654739589        0.33828974550739       -1.01403117823734
C            0.06628504098786        1.83142915553594        1.83676212865445
C            0.25784425433843        1.47650136275094        3.17704207481982
C            1.49169203162055        0.85634572859171        3.49717265315536
N            2.50059699683956        0.53711023447714        2.69141612741595
C           -1.03988174450405        2.73676085541726        1.63657798598299
C           -2.10058036583011        2.90341620317308        2.70486236823820
N           -1.88755103677935        2.46959859499303        3.95853386830655
C           -0.70032579210760        1.83449177864616        4.19179743843727
C           -0.45541098680993        1.36742133298726        5.42063565057495
C            0.69008315685043        0.74774895572622        5.78365159612216
C            1.72979257714985        0.60699683003241        4.85987062995248
C           -1.18184531246342        3.62352290216771        0.57542160782134
C           -2.31741445647944        4.45722761988153        0.41619080167694
C           -3.39535595956000        4.35918529336634        1.31561549059955
C           -3.26841487873118        3.54885181611179        2.50798774082546
O           -0.16411259665666        3.71030624580520       -0.41880270589680
O           -0.81501249333590        1.05387332098730       -0.89026768465378
C            3.67970950046750       -0.15259050797590       -2.18133417349153
C           -4.62671917838815        5.33826399546180        1.09586865185047
H            4.12975747786973       -0.07103951926477        0.38909750022403
H            1.25465800828772        0.55561662671262       -2.53190375733229
H            2.59591867115888        0.19921504654957        5.17190363085063
H           -1.37295732215215        1.46440819348450        6.00545703841584
H           -3.97013529128132        3.48507626842021        3.30595754229493
H           -2.40322528866560        5.14193548963869       -0.43378318459993
O            3.33956065275287       -0.19103266426321       -3.36860899786849
O            4.96899578286175       -0.40832881792526       -1.72721825192910
C            5.66706351702425       -1.04152904979455       -2.84305333790704
C            0.86475983641495        0.34989320345014        7.19051051041343
O            1.83622856470210       -0.39198607813678        7.39175308917370
O            0.00014737817717        0.91760650297117        8.13776686977049
C            0.33850239493111        0.44999978463597        9.39249208040352
O           -4.58150911568881        6.16489450265996        0.16296863793520
O           -5.67242187364867        5.29336189962850        1.94353871217504
C           -6.58431564164414        6.15589464473268        1.43889317690507
C            0.35187897945466        4.97417132015281       -0.41576888812086
C           -1.16492428245640        0.90879276279569       -2.29136325679425
H           -7.34652238292930        6.51162441185859        2.18266160485260
H           -6.92263131113693        5.79210086652403        0.48120059566302
H           -6.06117790692853        7.01657408080632        1.04418487464506
H            0.28341022618342        1.15449286317575       10.24607018080536
H            1.47937777399848        0.11761841085360        9.37165143860748
H           -0.28340607639327       -0.43803937181804        9.64660142275663
H           -0.65559534227578        1.63410345964115       -2.97052603849750
H           -2.27457873997743        1.12174323102754       -2.24534921765610
H           -0.86200162883280       -0.01963159816785       -2.68392858479585
H            0.92519304883309        5.02096159574608        0.51007452482135
H           -0.47246061125283        5.68731030090551       -0.54222414706302
H            0.83794614188879        5.08661570131296       -1.32867537335975
H            4.98959230520520       -0.93311362100150       -3.82013240578297
H            5.88158592663879       -2.14310518711430       -2.66812417181757
H            6.61666206893144       -0.56271975614581       -2.92105605793336
C            0.01692633496279       -2.14824499723604        2.27164777994107
C           -0.32008952848072       -1.92452485536991        3.59295766838355
C           -1.67346937733231       -1.48785858916358        3.74840836492816
C           -2.52616585829453       -1.14653729114806        2.63436536398663
C           -2.00631305799629       -1.38253109536785        1.37212587175785
C           -0.78341526351970       -1.99611200353190        1.13429031225726
C           -2.22948433092747       -1.16063008952516        5.01955963883913
C           -3.28156397755068       -0.20208289716947        5.15385439289166
C           -3.93586881042390        0.22271782546455        3.94805549776594
N           -3.62538410632878       -0.29029208031719        2.75694893102582
C           -2.01784130806094       -1.89114079291031        6.20953138663983
C           -2.26420553784077       -1.17544741754788        7.41892478184093
N           -3.13543832778032       -0.07935955338754        7.51733878509496
C           -3.67095514025366        0.38465955464576        6.39760803661763
C           -4.80028633540190        1.26984230128729        6.36097214042334
C           -5.44382589374816        1.65349090788192        5.17611471635259
C           -5.06149690673260        1.05380616689146        3.95362639160995
C           -1.48772597750920       -3.26751094105937        6.23770412691690
C           -1.01081886479885       -3.68148041998778        7.50316265453868
C           -1.05379580761425       -2.92109920409744        8.68342576043725
C           -1.70782045332747       -1.65654169772709        8.64313655259564
O           -1.52020267701760       -3.98922823643330        5.00409126133703
O            0.51562833586852       -2.38896961593295        4.58554595579888
C           -0.25862641428138       -2.33508749177139       -0.17924712137446
C           -0.77093497532556       -3.58432817055191        9.96772185783081
H           -2.54815792008276       -0.97209799440124        0.55266004108771
H            1.03093878461880       -2.61212721088699        2.09721976895293
H           -5.56627924318159        1.38677789286574        2.96224002679891
H           -5.50457653585983        1.54551966566651        7.13685814654039
H           -2.20975604694353       -1.09802758325748        9.46323852880780
H           -0.65920231909896       -4.71625401306044        7.46004588840054
O           -0.68655768627061       -1.87069866249615       -1.20896468894601
O            0.67260855962341       -3.38882070875077       -0.05939226060955
C            1.25265483564197       -3.83476315661066       -1.19665713858679
C           -6.71757747545151        2.44949770799874        5.22395574217021
O           -7.37603802195599        2.27748342114101        6.22233407384193
O           -7.10732143815266        3.20747832656244        4.15828155034306
C           -8.24582011749002        3.97795103808578        4.44873852318341
O           -0.31878645939061       -4.69398602875920       10.07710808212315
O           -1.30466073714689       -2.84734581321081       11.07304833295128
C           -1.44906597486319       -3.63724942994498       12.20059839631109
C           -1.66221739944005       -5.41842004685243        5.01036793601313
C            1.76758669042874       -2.78176808669801        4.08579775707990
H           -0.45976753584629       -3.96935650179583       12.61190074014042
H           -1.87359692130920       -4.70184170353465       11.96190659728238
H           -2.04900480499756       -3.06869331964268       12.92576040735854
H           -8.41179480328709        4.72716411253430        3.58021770839826
H           -8.26562691869023        4.44147488281111        5.49077988765314
H           -9.07531396303285        3.20142464232881        4.53701299821628
H            2.37525190530173       -1.88688203458129        3.74053047297057
H            1.53515165857691       -3.68180071333281        3.43715609372568
H            2.35211494214367       -3.19305920947186        4.93972717649758
H           -1.85932339470314       -5.70389833222521        4.01617537440439
H           -2.52536906148376       -5.65844238641825        5.69131953962142
H           -0.73259265158942       -5.81060049712600        5.33988813281889
H            0.43166714170910       -4.32206911662599       -1.69514660773909
H            2.18431127024484       -4.47250949959862       -1.07109709996162
H            1.42990505995262       -3.02962335290361       -1.88983662065022
116
 energy: -22.863813104768 gnorm: 0.373060766419 xtb: 6.6.1 (8d0f1dd)
C            0.83453049257059        0.46003432800236       -1.10713006708471
C           -0.07061801809184        0.90522952925735       -0.13354734477760
C            0.35056884440974        1.13792280252277        1.23037149139383
C            1.68024914208801        0.58815050189758        1.61892885442683
C            2.52477795576944        0.10887699552903        0.58409393765716
C            2.11053893692164        0.01760330997990       -0.72282619953407
C           -0.33579016340025        1.92960771894852        2.16607114974695
C           -0.05571075993985        1.62516929364018        3.55615910271499
C            1.20623897447165        1.02177091166069        3.90968668103751
N            2.10256753470379        0.70085339622399        2.90266980284568
C           -1.21595104861796        3.03531387637149        2.02454628456823
C           -2.05828520420627        3.31057171480351        3.13828163674797
N           -2.04077701094147        2.78708062431348        4.35999167177043
C           -0.99755298622528        2.02397603758163        4.56590470573012
C           -0.59749426670280        1.78101387154793        5.97875545388966
C            0.61877775330083        1.21090444926890        6.24585714129456
C            1.49282450211332        0.76890715182999        5.26282849193015
C           -1.15064420491153        3.84589235510612        0.81416012150685
C           -2.06727235828943        4.85253787371811        0.65789805424010
C           -2.98481083874739        5.07178904440707        1.61591616481947
C           -3.00195811772535        4.31997804299971        2.77533560632882
O           -0.04889031345042        3.65421117074639       -0.01893975312542
O           -1.36871784373705        1.15640208279420       -0.57714390846285
C            3.29346897848348       -0.39712745760366       -1.59039907526750
C           -4.01342434665826        6.04521442850908        1.43203777461283
H            3.47843071003423       -0.33945501356754        0.87331637246159
H            0.79395827154782        0.33360551575776       -2.21232611956550
H            2.42508121750395        0.36190645438225        5.48329937420632
H           -1.02974012117622        2.36600825836646        6.82489960143914
H           -3.75265238886946        4.57408671432457        3.46948541739109
H           -2.14269192813427        5.39925705409081       -0.23713394427793
O            3.07597151298188       -0.26141605214112       -2.76332053742366