116
 energy: -22.928061455056 gnorm: 0.329736929581 xtb: 6.6.1 (8d0f1dd)
C           -3.31122850772930        0.79849766164622       -0.92477639677520
C           -2.44380812530352       -0.12270372891954       -0.27661132624697
C           -1.41337090092821        0.39579727573559        0.56335275196199
C           -0.89266158675590        1.65801491088749        0.27377586709581
C           -1.72665675402493        2.51431363229076       -0.49448366572522
C           -2.95444148494349        2.13954154133227       -1.01494489940871
C           -0.74098268209890       -0.43411532818871        1.49825021926784
C            0.56872586496315        0.03782116815119        1.86248088067890
C            1.03782416582094        1.29402317993033        1.50887470833621
N            0.31238977034758        2.07067427098208        0.65193736800696
C           -1.29695700510141       -1.39996043042223        2.41574187746061
C           -0.38243517664656       -2.18060797534842        3.13232615520648
N            0.91308504082021       -1.90366887689689        3.30325166013478
C            1.37712470144904       -0.74872102533751        2.81811050966982
C            2.52149331701875       -0.17739833758153        3.39379298866852
C            2.95849061756259        1.02681208890480        2.95105897606587
C            2.24288949469137        1.78498308775960        2.03503020483770
C           -2.74860936222260       -1.74497937691422        2.38401158947411
C           -3.09416315450955       -2.91614440870436        3.00571134491758
C           -2.16786021984049       -3.77788778654213        3.63251872101904
C           -0.85708937311598       -3.40495313382985        3.68547234358092
O           -3.71994433332149       -0.94984598373544        1.67726658385724
O           -2.55702603277562       -1.47241711578389       -0.57241635275616
C           -3.84297843593025        3.13357444054366       -1.60938954875544
C           -2.68769581069131       -5.03867041417370        4.30484659386931
H           -1.39666850744143        3.51251503834900       -0.76806311868865
H           -4.27662633836220        0.55105838579656       -1.33106614114542
H            2.66329581305412        2.73912661909249        1.72562431984580
H            3.05775395548473       -0.69369546277216        4.16536137542516
H           -0.24710966264510       -4.12034095424229        4.22946223699121
H           -4.11477991332403       -3.04712728052358        3.03244694615357
O           -4.21824883374556        4.03433712717988       -0.87713382485991
O           -4.44510595673734        2.90643496899600       -2.81853501752979
C           -5.44216520282800        3.83300025693726       -3.02488532025093
C            4.23586651889298        1.50004220933226        3.59165660008449
O            5.05927614697201        0.66079890002952        3.91714215179376
O            4.47001334453535        2.86385149488593        3.72605651435371
C            5.79457498613219        3.08584475587818        4.15829123132174
O           -3.82227255313510       -5.27347675879771        4.16636005494405
O           -1.85023202017753       -5.79767454267276        5.06656077253571
C           -2.55119635829503       -6.86252441382958        5.62930343183426
C           -5.07197156564436       -1.42399175670916        1.58830531863830
C           -1.33089900128490       -2.23622472573986       -0.99264499351172
H           -2.54510546830388       -7.76426885143998        4.99136022291012
H           -3.57194749219491       -6.44405511486021        5.74196173723541
H           -2.09133598235598       -7.02043774843818        6.64022264233588
H            5.72707967266424        3.46798026205549        5.10135971236643
H            6.34060091246885        3.78468702308830        3.50069950143490
H            6.17933064298187        2.03010500085905        4.19342358084693
H           -0.91862729772622       -2.57650129080332       -0.01361370304871
H           -0.49769766914251       -1.60651221708571       -1.34094446550576
H           -1.52632419730509       -2.94569707152159       -1.75361447637286
H           -5.11788846557077       -2.41810833635233        1.17520213188926
H           -5.67929807973498       -0.69619639428435        1.04301666067831
H           -5.57598832326623       -1.42383358739762        2.57928294206544
H           -6.13050215934830        3.76035386975488       -2.23272855695873
H           -5.86615610071888        3.45938329385866       -4.02668959924245
H           -5.13479557532099        4.87790991548477       -2.98314551356402
C           -1.38192942069774        3.73616555005018        2.91232598411686
C           -1.84821468128685        2.59982427735607        3.49755545445181
C           -1.05946531454833        2.05730632010638        4.60922730982276
C            0.19893954712228        2.69376791964407        4.86302140881997
C            0.50425395911860        3.94630308659851        4.28768785650746
C           -0.26031777722226        4.46998310053134        3.25072669343212
C           -1.20488993561782        0.74454293276906        5.14851520323437
C           -0.06287609782692        0.02744069315890        5.60930570802864
C            1.19208754369866        0.71421540266195        5.78882868583885
N            1.19428660993148        2.06344359410476        5.62744624321596
C           -2.41361422770794        0.07928500213936        5.25249410304426
C           -2.45851584031083       -1.32662100968547        5.60237876023992
N           -1.29466212405906       -1.98318595734370        5.89916817085159
C           -0.14475655767527       -1.32117560077092        5.98824682881008
C            0.97209270935794       -1.98958449505532        6.53157704134458
C            2.21982707914082       -1.36973967291181        6.68703967237737
C            2.30561929262884       -0.09745313075593        6.26436900324455
C           -3.73018485967715        0.71367583494582        5.25810242262992
C           -4.89964478833448       -0.06184623426677        5.21204641615509
C           -4.82617965800088       -1.39228978090841        5.46901303780036
C           -3.67144193418464       -1.98914944386360        5.67265433266067
O           -3.75568638935321        2.07705011038914        5.52067969627343
O           -2.94192434743730        1.91263938797883        3.01658762327703
C            0.21273512614467        5.50086066357994        2.34765104514621
C           -6.06660304520411       -2.17604633098929        5.80641622556876
H            1.41756699010566        4.38133362238595        4.66974005703471
H           -1.82880610647429        4.11982501512100        2.06992133318584
H            3.26888037378556        0.32655662585251        6.31721410015598
H            0.87146188387207       -3.08471526305024        6.57830423410869
H           -3.67716811065157       -3.05999292755990        5.83019634570050
H           -5.77379677507622        0.43595144608221        4.71017130754348
O            1.34459852619901        5.82615848916894        2.44941456579099
O           -0.74718748219123        6.07961784856304        1.59848183464284
C           -0.21473095568964        7.24015934882472        1.05753806029483
C            3.53228080814219       -2.00967610361154        7.02506769044485
O            3.64093082622715       -3.14437803815732        7.50071391725347
O            4.56565258381079       -1.22937033368332        6.69086985080897
C            5.72579357310716       -1.80692399125161        7.22246151275881
O           -7.04801223588612       -1.95726935745904        5.14194115322235
O           -6.01514389321278       -2.93743591896022        6.94765316328794
C           -7.21292732384718       -3.62681918543340        7.15115816329978
C           -4.95459780685163        2.65960679932188        5.86868674392943
C           -3.68284113682406        2.59129188358641        2.05479246020704
H           -7.43119628931628       -4.22607794725959        6.20622607140901
H           -8.06548455146707       -2.91765848248592        7.29781126410398
H           -7.07314693247270       -4.33087306029711        7.91223421050944
H            6.57332189837178       -1.29353136199234        6.78341268688262
H            5.74663761932316       -2.84282155125561        6.88089468184451
H            5.69426191474290       -1.72781984964892        8.29460302186842
H           -4.10481209541493        3.44288266176275        2.60483747673152
H           -4.49244774344916        1.87419893016926        1.82433103764650
H           -3.18901540870812        2.85154642679373        1.06781919454921
H           -5.55414326821421        2.76698137191684        4.93950725322359
H           -4.78658370641210        3.62090640967288        6.25983200635257
H           -5.43485580473958        1.97242995129449        6.65265772412460
H            0.89164886030839        7.38838561720231        1.13776105146914
H           -0.62894889903848        8.04195665205089        1.64837664327952
H           -0.59282546386754        7.45699159724320        0.03719083132488
116
 energy: -22.626284069604 gnorm: 0.520617451532 xtb: 6.6.1 (8d0f1dd)
C           -2.94060662624806        0.74244698300223       -0.80424440156303
C           -2.30515929227178       -0.24424664418254        0.08570758446684
C           -1.31825749181913        0.31501468981746        1.02184056034466
C           -0.99079203139756        1.69131068543403        1.05005698832497
C           -1.57660158563310        2.59183790110767        0.10998882400108
C           -2.41853293404494        2.07814680535797       -0.92201027338805
C           -0.74875867186809       -0.55900563039205        2.03667574936018
C            0.53184217349575       -0.07964538368831        2.25403798040335
C            0.90150630456353        1.30421287733287        2.10960048776487
N           -0.04255746817113        2.30093060481604        1.79173609828016
C           -0.92758641512956       -1.92672376592542        2.34362574336495
C            0.17405257976405       -2.84357260295742        2.44284612253028
N            1.43276975026251       -2.36387693488278        2.74075788080860
C            1.51736182788158       -0.98650845241044        2.76849420174701
C            2.75498874838520       -0.32344483313062        3.00471178147692
C            3.13770672846919        0.90910879400403        2.72580020766754
C            2.20011099239895        1.80650523103233        2.38266829338130
C           -2.31346761373448       -2.33833266306048        2.60807000708947
C           -2.66678840087216       -3.71843669692864        2.36496680759882
C           -1.59444737112605       -4.62934631436869        2.59938232705056
C           -0.28600204601711       -4.16672730794456        2.62813099307848
O           -3.11171458355044       -1.14940335430221        2.85940908480458
O           -1.90925538746676       -1.47905356229591       -0.59475178514938
C           -3.11794217876348        2.87920078921872       -2.05931621728964
C           -1.82462011210245       -6.06752516885372        2.33411512774109
H           -1.56952044809556        3.69230161412304        0.13398365384658
H           -3.64401299151426        0.37581198597278       -1.58363745311882
H            2.44533936339550        2.93236318108038        2.45116329199147
H            3.64311651513955       -0.82921062419426        3.40340169371912
H            0.20133327003846       -5.16682682724805        2.37766175924568
H           -3.68784841840597       -4.11617008676570        2.27591658714833
O           -2.72583561565410        3.92510037518612       -2.65349536114994
O           -4.21625878347746        2.24208923533890       -2.40488539512410
C           -4.95283777495686        2.91419315656939       -3.32170564482615
C            4.63370789783462        1.16273822288098        2.99777753835872
O            5.43957904923710        0.65365665980789        3.79194358657801
O            5.07160719376685        2.11027777932425        2.12052931977603
C            6.47860485941862        2.40559757926400        2.06365811157690
O           -2.80469270121838       -6.63885476209198        2.88491728619635
O           -1.02221252499179       -6.77819972696725        1.52302171375853
C           -1.12847362474154       -8.08337544838422        1.95773256398184
C           -4.43737049419525       -1.37757876193195        3.22804122523206
C           -1.98651650425425       -1.44180639103464       -1.97449752189494
H           -1.82825458225218       -8.76112790792614        1.39393183987370
H           -1.56086499147747       -8.23131389291430        3.05393156815624
H           -0.08535242633717       -8.47421443599495        1.81023552338440
H            6.72211787562878        3.56674615079859        1.99910600631451
H            6.97811091087097        1.94375231106656        1.09723312638662
H            6.96800544494550        1.92434930808526        2.95502643485184
H           -2.76858777434617       -1.83456639862491       -2.44535396074084
H           -1.08022299286960       -1.93644112220163       -2.37776859201652
H           -1.63505317708026       -0.43745616885389       -2.17778766933961
H           -4.83262887337068       -0.37833635407308        3.68804816605833
H           -4.37423228167310       -2.08691356033928        4.08483480399852
H           -4.84663904758680       -1.55669614857372        2.24326370461784
H           -4.33397741554274        2.85584641479203       -4.24093148321894
H           -4.88271651540650        4.00623648473934       -2.79479077714577
H           -5.78313164240471        2.44383284758126       -3.68263814092788
C           -2.11793202261597        4.05513717841576        3.22909476670195
C           -2.26281641168292        2.83139236334328        3.94400213513895
C           -1.21193410311358        2.22303037915711        4.68987824870074
C            0.07362617817822        2.77078841252405        4.55310862976588
C            0.16041822707035        3.98213136282234        3.83485151984271
C           -0.85189613732894        4.63543423094614        3.11644890428787
C           -1.47916345023149        1.04890772209697        5.44832936923940
C           -0.28501163239101        0.23791659756761        5.81237860830429
C            0.97606244855957        0.85970550569481        5.62644602105987
N            1.17983791592322        2.04264617049978        5.04748747938562
C           -2.77218769632290        0.63093673925262        6.06764929924079
C           -2.75199541546266       -0.68063743704732        6.55310404281662
N           -1.74249018068212       -1.46079007667326        6.77083891456047
C           -0.50246535114486       -0.97911983329732        6.52843784774395
C            0.72060225640075       -1.61331296142954        6.99784447518688
C            1.98856483606712       -1.02472389146308        6.92243712498107
C            2.09888438525089        0.16981435050133        6.25602264081523
C           -3.88709957339213        1.52647156489789        6.52873816302437
C           -5.03912523756802        0.93832634065533        6.88593506097678
C           -5.22571254507151       -0.37489642833256        6.66319806768383
C           -4.09636024463699       -1.22157895764475        6.73667996626961
O           -3.74384266630783        2.99609698132216        6.88739494340569
O           -3.57962887430598        2.24199074179811        3.81198748720725
C           -0.60152087246760        5.77726606261894        2.30884509501933
C           -6.65789091734695       -0.98849722571002        6.79795611737961
H            1.13260675299082        4.50463097063779        3.63200606861885
H           -2.88618211093893        4.42288333302281        2.55121330325583
H            3.12406371181632        0.47573833559698        6.10836722589426
H            0.66729983255842       -2.58692162633025        7.49978975140170
H           -4.11030429144250       -2.32635286894594        6.77417628673120
H           -5.91990495802447        1.66016777138762        7.00270074563194
O            0.27619665130621        6.58583909796566        2.72950501921992
O           -1.22230524200429        5.78090628855949        1.18687761169126
C           -0.77199104314522        6.90277698350773        0.51570716858980
C            3.02688463158874       -1.86422985677570        7.55648547788448
O            3.47110360912236       -2.92045442017346        7.15503034476308
O            3.34923696740722       -1.34963136063628        8.82147127298872
C            4.59062596463423       -1.92762870373461        9.31915822535119
O           -7.66662823521662       -0.40633672397520        7.21504759325924
O           -6.61150209173575       -2.33699398848038        6.46372234268571
C           -7.84430934586780       -3.01322768621939        6.40530396040539
C           -4.84797707512440        3.76173066410355        6.80926122052738
C           -4.04741152578192        1.95938733858362        2.49412482823427
H           -8.46052429216590       -2.31978341238496        6.79318348036536
H           -7.92098269766098       -3.75161272605474        7.20958631047001
H           -8.18247183608807       -3.21178065614355        5.37964045754234
H            4.15480126817383       -2.62249627379684       10.04474935165192
H            4.97388537736456       -1.08718170928475        9.90505197373821
H            5.21384150578327       -2.56017276202925        8.70930345015280
H           -5.16647200398139        1.50170173149925        2.49459886781519
H           -3.54020592376672        0.83918500211439        2.27087123533742
H           -3.82961001441040        2.73140694556691        1.68310117865765
H           -5.52410752513006        3.64142886190300        5.90735479712767
H           -4.44048779321340        4.73780586512551        7.02388112567356
H           -5.58245111931473        3.66661271688076        7.75636760504123
H            0.05265403360721        6.48549568542119       -0.01532885320376
H           -0.36503665236891        7.59178224569512        1.26664498014102
H           -1.75695154344059        6.98779597947270       -0.07175460295537
116
 energy: -22.686034244772 gnorm: 0.490133978694 xtb: 6.6.1 (8d0f1dd)
C           -3.18644481832201        0.91829299774033        0.13759620737219
C           -2.35441883093214       -0.12469715790193        0.49500032345454
C           -1.05347269702962        0.24356966923264        0.92259273792892
C           -0.60338796629617        1.54967009103246        0.72795467589723
C           -1.35600746290107        2.54792244191508        0.07521477586125
C           -2.67304380027345        2.19042209267849       -0.13088271408655
C           -0.12542767738454       -0.72418764339003        1.56542492951781
C            1.11348124744109       -0.39940295250247        2.11155923699798
C            1.48403757457878        0.93203346659133        1.85902482380002
N            0.60782407871353        1.83946876282687        1.28266543725927
C           -0.33309475074740       -2.09894614844414        1.97436446702260
C            0.73579103699981       -3.11528280135884        1.78929643904898
N            1.92062311869621       -2.66255379626817        2.20409890283254
C            2.02576274608054       -1.38582928149014        2.58701977765971
C            3.29670049590484       -0.81751421748370        2.90416607458218
C            3.53646603771749        0.59404803756596        2.82106439930098
C            2.68113524810806        1.52099171858563        2.23860532132809
C           -1.64683886424542       -2.62999436554828        2.32554119431554
C           -2.01099134242620       -3.97490567426978        2.24720167154989
C           -0.96083259204198       -4.90413222844609        2.01516145593788
C            0.37716910343109       -4.49514643586717        1.68355945956242
O           -2.55894485680052       -1.57068509310452        2.67169643530459
O           -2.66077127979947       -1.49305480658200       -0.06100304840433
C           -3.46623958953146        3.32884051002500       -0.54021910991401
C           -1.10481410289648       -6.32736649685406        2.21898844800107
H           -1.04583234440002        3.63072710180416        0.01988362379870
H           -4.27827457617921        0.82660350150463       -0.07746569564275
H            2.78462512162242        2.58887037136188        2.16423568027472
H            4.00979966661224       -1.44878652296216        3.32641874560395
H            1.22162744529864       -5.17577901596300        1.86076685487459
H           -2.96469485916430       -4.37931706563553        2.56638655062016
O           -3.61602966261261        4.31247827340393        0.14246269543971
O           -4.13405788533086        3.14817100395439       -1.80470785221908
C           -4.82253943102384        4.26988922107957       -2.19485432749451
C            5.00347364768590        0.93032605667209        3.31285366307263
O            5.57582462221594        0.13598292280431        3.96988353286863
O            5.61881859724848        2.18433343173974        2.87979837835207
C            6.71851720017181        2.60473676501118        3.58661284365019
O           -2.19713988937699       -6.78610930603183        2.61620803754274
O            0.11507940241766       -6.96330671904978        1.99738107256276
C           -0.14298122744694       -8.37448298922369        2.12213665889753
C           -3.87444930012635       -1.76588190367848        3.18338618548088
C           -3.18868611495779       -1.61017481074733       -1.42917344007754
H            0.64530564719053       -8.66465011574754        2.71156682743345
H           -0.17155954430418       -8.77090228928988        1.14398038372821
H           -1.09057852332365       -8.50281337299648        2.68688549662516
H            6.36651569091929        3.29293508065690        4.36645193769687
H            7.65882932420773        2.93534387333864        3.16998152325463
H            7.03488432422079        1.66237315031273        4.02139561386559
H           -4.29015701776701       -1.55346354654427       -1.23380447541263
H           -3.07328125615001       -2.52490704840312       -2.02761762214836
H           -2.73852249653658       -0.75740072351993       -1.98261208164479
H           -4.37053122007938       -0.83172405577559        3.36699084983164
H           -3.75161577552838       -2.46075281466357        4.12847265555552
H           -4.38557845431032       -2.22459685113968        2.29054890735444
H           -3.99952538240955        4.88791733192873       -2.40259784505027
H           -5.49842666345482        4.73791092363720       -1.38166851643374
H           -5.74065737383679        4.08571817590757       -3.03808609794862
C           -2.09369681820410        3.77349460598870        2.64299961338122
C           -2.42829331413556        2.63099843347079        3.31102973570878
C           -1.52127411904641        1.99323849504457        4.39477644988859
C           -0.19864312509922        2.37410617395809        4.23038572743195
C            0.14656653826640        3.42796364742374        3.44522735774895
C           -0.75442988845270        4.22011730162551        2.76939904732620
C           -2.00039598147508        1.06077555146623        5.32140196391365
C           -0.85791504419450        0.35166730569565        5.80062469711419
C            0.49626209738868        0.72256563062483        5.59498939280477
N            0.78509837953968        1.77551115731182        4.86582264182731
C           -3.22450848248294        0.88880008919134        6.04154304327427
C           -3.41311430548451       -0.30723169447136        6.79680019200957
N           -2.37543484643615       -1.04825384024111        7.12726909710902
C           -1.05600946721580       -0.73379863422541        6.77461557292139
C            0.02550167899398       -1.12985654188929        7.63005784552060
C            1.30635930071606       -0.90231533532705        7.08415474873756
C            1.55497602405513        0.02127753649065        6.10372095908512
C           -4.36835125804661        1.83606207507645        6.10313767696736
C           -5.61668393627224        1.22752261147130        6.45070309044408
C           -5.74682346928290       -0.19747729945332        6.60776222910364
C           -4.60108462821825       -0.75125236543825        7.23234069939401
O           -4.06089400031625        3.09321571490824        5.52673488160876
O           -3.69051927082574        1.89423178174663        3.09744254686772
C           -0.34260511433624        5.20583613993293        1.82762995053881
C           -7.05718377252081       -0.89909429435489        6.74640437820427
H            1.23693078465007        3.59105327514108        3.22533786246257
H           -2.68632211485130        4.36485901550746        1.95270864069030
H            2.53092335493504        0.36728641314487        5.78666822689704
H           -0.14933528791866       -1.90867566969534        8.39318878638428
H           -4.54292940529016       -1.79592917757029        7.50850822077927
H           -6.55805203975302        1.87680936532500        6.29030902166566
O            0.81854729754541        5.43235826481298        1.76778719401167
O           -1.22789306092565        5.91802096207885        1.15572334045891
C           -0.79849126778677        7.15255259680224        0.68483526276711
C            2.53543632805023       -1.71780061005464        7.47639192498102
O            2.82748552910352       -2.18714904119964        8.51733819369139
O            3.53572499535934       -1.64165900962850        6.59865630048953
C            4.79641383920732       -1.93506561686877        7.13475055176397
O           -8.17898684988227       -0.37382505492989        6.59556890693446
O           -6.94735523496412       -2.30905567814596        7.00367911541981
C           -8.10477092164482       -2.71554599636674        7.61970404144627
C           -4.86986707084182        4.17525330853605        5.63634912335973
C           -4.72196779524065        2.56559060756591        2.56306463879569
H           -8.87631364287659       -2.65325932247847        6.87380877584110
H           -8.23224697166102       -2.30485959826185        8.65481342585204
H           -7.86376580163146       -3.86293367104963        7.83450704559756
H            5.31536503568723       -1.04296609962244        7.70746884577403
H            5.45430608454809       -2.21784950826209        6.26164181473653
H            4.89283055634325       -2.82355460579488        7.77447378995542
H           -4.41661568248106        3.28536149860460        1.72486474344286
H           -5.15158909814877        3.36928199715148        3.21722627906275
H           -5.51514670865060        1.87114547691747        2.14206862010242
H           -5.88878019369506        3.79304142237016        5.55170376813121
H           -4.75790412875386        4.82326347946978        4.65590792186873
H           -4.60952993856997        4.94935505368737        6.29980119693761
H            0.29606453051713        7.51607045908584        0.33415514221924
H           -1.02533316550053        7.83043491949396        1.43113465389040
H           -1.31849769185410        7.46816683580043       -0.15167313393109
116
 energy: -22.661805623417 gnorm: 0.502899739808 xtb: 6.6.1 (8d0f1dd)
C           -2.29548200590141        0.64173372498031       -0.91858465360047
C           -1.34621569185450       -0.34188883968597       -0.57848852311069
C           -0.32926075167245        0.02214383530312        0.40598744320984
C           -0.23134738001754        1.45057353879010        0.64208920735110
C           -1.10836840906332        2.47960418461722        0.17758087122857
C           -2.25317944358994        2.05743432926546       -0.51796220093165
C            0.34208173747015       -0.83741181664466        1.34300832535364
C            1.48464834856245       -0.31977715084897        1.90547442937596
C            1.68900200547221        1.15543500251121        1.79280899166412
N            0.82492228769257        2.01156272978578        1.30016455342230
C           -0.15284815472687       -2.14772160416665        1.79763862823182
C            0.70869309497568       -2.98721892322981        2.54971187976336
N            1.89850317136961       -2.46099727840992        2.82126659424525
C            2.39154100052030       -1.21057692576445        2.46343963371566
C            3.62541787587123       -0.61491531906180        2.77514048500422
C            3.89355871010893        0.72137006020745        2.86977060433786
C            2.95697777467068        1.65130726735924        2.46202653915105
C           -1.50023622589558       -2.58346924542605        1.64994063900371
C           -1.88193541617760       -3.85953739225830        2.10952981125072
C           -0.92948936133977       -4.71345835737452        2.70120251215476
C            0.38590951555870       -4.25643341583162        2.90079307084584
O           -2.43204715171465       -1.62068011949417        1.16668195305138
O           -1.07798692596270       -1.56970634614400       -1.02538318491127
C           -3.33773259081013        3.00142768506926       -1.07456344191642
C           -1.36362460561840       -5.99518662628029        3.37986424137022
H           -0.93671673482628        3.49834606098536        0.51650533224543
H           -2.65082350887452        0.58363393673791       -1.94739514806410
H            3.32297445486652        2.74013857396956        2.44703609840402
H            4.34237048026261       -1.07869730526590        3.29763073472812
H            1.16715198840119       -4.69164306439379        3.45489782355739
H           -2.90253491829817       -4.13681332020888        2.18147120175117
O           -2.96270919739724        4.15173525786004       -1.34671765795307