116
 energy: -22.928061455056 gnorm: 0.329736929581 xtb: 6.6.1 (8d0f1dd)
C           -3.31122850772930        0.79849766164622       -0.92477639677520
C           -2.44380812530352       -0.12270372891954       -0.27661132624697
C           -1.41337090092821        0.39579727573559        0.56335275196199
C           -0.89266158675590        1.65801491088749        0.27377586709581
C           -1.72665675402493        2.51431363229076       -0.49448366572522
C           -2.95444148494349        2.13954154133227       -1.01494489940871
C           -0.74098268209890       -0.43411532818871        1.49825021926784
C            0.56872586496315        0.03782116815119        1.86248088067890
C            1.03782416582094        1.29402317993033        1.50887470833621
N            0.31238977034758        2.07067427098208        0.65193736800696
C           -1.29695700510141       -1.39996043042223        2.41574187746061
C           -0.38243517664656       -2.18060797534842        3.13232615520648
N            0.91308504082021       -1.90366887689689        3.30325166013478
C            1.37712470144904       -0.74872102533751        2.81811050966982
C            2.52149331701875       -0.17739833758153        3.39379298866852
C            2.95849061756259        1.02681208890480        2.95105897606587
C            2.24288949469137        1.78498308775960        2.03503020483770
C           -2.74860936222260       -1.74497937691422        2.38401158947411
C           -3.09416315450955       -2.91614440870436        3.00571134491758
C           -2.16786021984049       -3.77788778654213        3.63251872101904
C           -0.85708937311598       -3.40495313382985        3.68547234358092
O           -3.71994433332149       -0.94984598373544        1.67726658385724
O           -2.55702603277562       -1.47241711578389       -0.57241635275616
C           -3.84297843593025        3.13357444054366       -1.60938954875544
C           -2.68769581069131       -5.03867041417370        4.30484659386931
H           -1.39666850744143        3.51251503834900       -0.76806311868865
H           -4.27662633836220        0.55105838579656       -1.33106614114542
H            2.66329581305412        2.73912661909249        1.72562431984580
H            3.05775395548473       -0.69369546277216        4.16536137542516
H           -0.24710966264510       -4.12034095424229        4.22946223699121
H           -4.11477991332403       -3.04712728052358        3.03244694615357
O           -4.21824883374556        4.03433712717988       -0.87713382485991
O           -4.44510595673734        2.90643496899600       -2.81853501752979
C           -5.44216520282800        3.83300025693726       -3.02488532025093
C            4.23586651889298        1.50004220933226        3.59165660008449
O            5.05927614697201        0.66079890002952        3.91714215179376
O            4.47001334453535        2.86385149488593        3.72605651435371
C            5.79457498613219        3.08584475587818        4.15829123132174
O           -3.82227255313510       -5.27347675879771        4.16636005494405
O           -1.85023202017753       -5.79767454267276        5.06656077253571
C           -2.55119635829503       -6.86252441382958        5.62930343183426
C           -5.07197156564436       -1.42399175670916        1.58830531863830
C           -1.33089900128490       -2.23622472573986       -0.99264499351172
H           -2.54510546830388       -7.76426885143998        4.99136022291012
H           -3.57194749219491       -6.44405511486021        5.74196173723541
H           -2.09133598235598       -7.02043774843818        6.64022264233588
H            5.72707967266424        3.46798026205549        5.10135971236643
H            6.34060091246885        3.78468702308830        3.50069950143490
H            6.17933064298187        2.03010500085905        4.19342358084693
H           -0.91862729772622       -2.57650129080332       -0.01361370304871
H           -0.49769766914251       -1.60651221708571       -1.34094446550576
H           -1.52632419730509       -2.94569707152159       -1.75361447637286
H           -5.11788846557077       -2.41810833635233        1.17520213188926
H           -5.67929807973498       -0.69619639428435        1.04301666067831
H           -5.57598832326623       -1.42383358739762        2.57928294206544
H           -6.13050215934830        3.76035386975488       -2.23272855695873
H           -5.86615610071888        3.45938329385866       -4.02668959924245
H           -5.13479557532099        4.87790991548477       -2.98314551356402
C           -1.38192942069774        3.73616555005018        2.91232598411686
C           -1.84821468128685        2.59982427735607        3.49755545445181
C           -1.05946531454833        2.05730632010638        4.60922730982276
C            0.19893954712228        2.69376791964407        4.86302140881997
C            0.50425395911860        3.94630308659851        4.28768785650746
C           -0.26031777722226        4.46998310053134        3.25072669343212
C           -1.20488993561782        0.74454293276906        5.14851520323437
C           -0.06287609782692        0.02744069315890        5.60930570802864
C            1.19208754369866        0.71421540266195        5.78882868583885
N            1.19428660993148        2.06344359410476        5.62744624321596
C           -2.41361422770794        0.07928500213936        5.25249410304426
C           -2.45851584031083       -1.32662100968547        5.60237876023992
N           -1.29466212405906       -1.98318595734370        5.89916817085159
C           -0.14475655767527       -1.32117560077092        5.98824682881008
C            0.97209270935794       -1.98958449505532        6.53157704134458
C            2.21982707914082       -1.36973967291181        6.68703967237737
C            2.30561929262884       -0.09745313075593        6.26436900324455
C           -3.73018485967715        0.71367583494582        5.25810242262992
C           -4.89964478833448       -0.06184623426677        5.21204641615509
C           -4.82617965800088       -1.39228978090841        5.46901303780036
C           -3.67144193418464       -1.98914944386360        5.67265433266067
O           -3.75568638935321        2.07705011038914        5.52067969627343
O           -2.94192434743730        1.91263938797883        3.01658762327703
C            0.21273512614467        5.50086066357994        2.34765104514621
C           -6.06660304520411       -2.17604633098929        5.80641622556876
H            1.41756699010566        4.38133362238595        4.66974005703471
H           -1.82880610647429        4.11982501512100        2.06992133318584
H            3.26888037378556        0.32655662585251        6.31721410015598
H            0.87146188387207       -3.08471526305024        6.57830423410869
H           -3.67716811065157       -3.05999292755990        5.83019634570050
H           -5.77379677507622        0.43595144608221        4.71017130754348
O            1.34459852619901        5.82615848916894        2.44941456579099
O           -0.74718748219123        6.07961784856304        1.59848183464284
C           -0.21473095568964        7.24015934882472        1.05753806029483
C            3.53228080814219       -2.00967610361154        7.02506769044485
O            3.64093082622715       -3.14437803815732        7.50071391725347
O            4.56565258381079       -1.22937033368332        6.69086985080897
C            5.72579357310716       -1.80692399125161        7.22246151275881
O           -7.04801223588612       -1.95726935745904        5.14194115322235
O           -6.01514389321278       -2.93743591896022        6.94765316328794
C           -7.21292732384718       -3.62681918543340        7.15115816329978
C           -4.95459780685163        2.65960679932188        5.86868674392943
C           -3.68284113682406        2.59129188358641        2.05479246020704
H           -7.43119628931628       -4.22607794725959        6.20622607140901
H           -8.06548455146707       -2.91765848248592        7.29781126410398
H           -7.07314693247270       -4.33087306029711        7.91223421050944
H            6.57332189837178       -1.29353136199234        6.78341268688262
H            5.74663761932316       -2.84282155125561        6.88089468184451
H            5.69426191474290       -1.72781984964892        8.29460302186842
H           -4.10481209541493        3.44288266176275        2.60483747673152
H           -4.49244774344916        1.87419893016926        1.82433103764650
H           -3.18901540870812        2.85154642679373        1.06781919454921
H           -5.55414326821421        2.76698137191684        4.93950725322359
H           -4.78658370641210        3.62090640967288        6.25983200635257
H           -5.43485580473958        1.97242995129449        6.65265772412460
H            0.89164886030839        7.38838561720231        1.13776105146914
H           -0.62894889903848        8.04195665205089        1.64837664327952
H           -0.59282546386754        7.45699159724320        0.03719083132488
116
 energy: -22.784964841445 gnorm: 0.415430451041 xtb: 6.6.1 (8d0f1dd)
C           -2.85128375423992        0.85043815238027       -1.37087224225795
C           -2.24257831410083       -0.14106886155336       -0.58819730111679
C           -1.39461252141685        0.37086218662470        0.55911005452656
C           -1.12172634201765        1.81077577512722        0.66853266041103
C           -1.74187691929075        2.74266550921115       -0.17076978176188
C           -2.58897102020328        2.27029445914624       -1.09418541062583
C           -0.76668396486638       -0.56046398110748        1.56378437035544
C            0.45363457249369        0.02125223002316        1.99622060375336
C            0.82895292803800        1.34551700780623        1.84509298955017
N           -0.03156371540704        2.21688188050694        1.29181078590044
C           -1.19067058937930       -1.75137909163705        2.20483551452793
C           -0.32939833028971       -2.27765503862649        3.29438895332300
N            0.99752749904492       -1.96399334815505        3.32543763613788
C            1.34221961415835       -0.81438477639657        2.79856739315571
C            2.71921371706333       -0.41959287938787        3.04810480641041
C            3.13228266731381        0.87966490220490        2.65797054545951
C            2.11833021754008        1.74424525394018        2.21867065736385
C           -2.51209472402267       -2.24153836543428        2.25369985116766
C           -2.89334700135240       -3.37331897033333        2.90091124173827
C           -1.98792264124024       -4.01864327467491        3.80144007565942
C           -0.77812172380025       -3.40405876176762        4.11675443741656
O           -3.37152689607996       -1.39907124022969        1.43016918684119
O           -2.30358536238972       -1.49009505202403       -1.12835277033334
C           -3.16390639283021        3.22999005114954       -2.10009591732616
C           -2.54890572598075       -5.15224935135645        4.55708531473873
H           -1.30107981199865        3.72632899948186       -0.29004899106127
H           -3.49138403573107        0.33083351557334       -2.10820467958959
H            2.50751107670913        2.67881283089481        1.89731985598553
H            3.30249979578563       -1.05698851872327        3.68795270815745
H           -0.18274554823081       -3.68880149737175        4.93331384773300
H           -3.96311816266242       -3.67163584534359        2.83053181160891
O           -3.81460077018975        4.11713259085539       -1.64544621819270
O           -2.81672439727280        3.04719050017030       -3.44290543051008
C           -3.18021020907153        4.17767161813517       -4.18137882105582
C            4.37800389442637        1.43938566332831        3.07802510038353
O            5.42718928280310        0.78930961203345        3.00633208508685
O            4.28068527990545        2.68975547805863        3.64456696001521
C            5.56453472139204        3.22526493998878        3.85604101984949
O           -3.58314729912163       -5.74810376129092        4.17016706233691
O           -1.63941302909740       -5.50344878372921        5.51881992999735
C           -2.22258670352294       -6.17277876178568        6.54528450978202
C           -4.40934187378389       -2.00995884924901        0.57145189479090
C           -1.08267353335733       -2.15842946105785       -1.56041548589332
H           -3.28712416164371       -6.10605177664932        6.30478489101748
H           -2.01807368130560       -5.83227549362565        7.61749962720603
H           -1.73895989064811       -7.14310591302029        6.54427460809099
H            5.26191621859331        4.25448284606227        4.18343260253448
H            5.99387244334468        3.27559949816300        2.73281762988462
H            6.15537052720695        2.57617617415378        4.53558545332283
H           -0.42862563514206       -2.39013920442193       -0.73053217283252
H           -0.54781682785449       -1.62074288812961       -2.26872794246691
H           -1.37086268145086       -2.94416114902903       -2.23834399901297
H           -4.25474376703386       -1.82287399026335       -0.49470318250708
H           -5.28437970217801       -1.52694750906743        0.93586919379601
H           -4.40589354311259       -3.13775832662140        0.59667538383551
H           -2.44295420647495        4.39924883795776       -4.97869068844463
H           -3.25376565136430        5.05231103461872       -3.51278156400639
H           -4.29590053507296        4.09693538158158       -4.63057470359441
C           -1.86975073208565        3.71985226433827        3.33127673185726
C           -2.17207061179051        2.68156899311184        4.23207732338756
C           -1.10872943523528        2.27630815993586        5.15354179336578
C            0.18104752944889        2.78470383013776        4.80985446914910
C            0.39546204661861        3.87097963102849        4.01363344959220
C           -0.75562540947429        4.48317374577814        3.38303351816772
C           -1.27209572662494        1.08616847596843        5.98248663725263
C           -0.14084992550566        0.24145304422080        6.06843075354695
C            1.06410164653473        0.83493300532343        5.72170612679511
N            1.26770133360881        2.16646545763887        5.43734489284557
C           -2.54169240934871        0.44076854503481        6.34584839958170
C           -2.55223525844581       -0.93747983865406        6.45740552059702
N           -1.48050355105929       -1.64440964105614        6.63121257825682
C           -0.26599920940583       -1.07767397537449        6.57769987181801
C            0.85515433727975       -1.91248343747116        6.68043857868710
C            2.07783196223317       -1.29873586787316        6.47640872079560
C            2.15587649102784       -0.01666744534057        5.97998412823093
C           -3.75771528879358        1.12740837413707        6.43507097042419
C           -4.97323526456755        0.42531897802314        6.29709366772161
C           -5.00368500570796       -1.00175900713577        6.24954146033804
C           -3.80859746980876       -1.70104107984917        6.38051763505916
O           -3.70410109795243        2.58702695892322        6.42919879619864
O           -3.23746692847236        1.85124256987422        3.99535972016811
C           -0.71330233176399        5.67978179725186        2.47718812133253
C           -6.22363333378277       -1.94990869117275        6.17415819366263
H            1.46927843372226        4.10436804527950        3.91715281005831
H           -2.56168898668953        3.89039088796161        2.52212701555509
H            3.19240594037961        0.46560369811951        5.87725331923063
H            0.77212839551777       -3.01309098943230        6.74010645118317
H           -3.84784647297165       -2.75761532716223        6.29281813281254
H           -5.83606897835851        0.91455089908632        5.88860279581321
O           -0.10870065210652        6.64642020676382        2.99425697059502
O           -1.25466172164148        5.67463313769097        1.19703409374156
C           -1.34220821690463        6.89967470255175        0.81494750525940
C            3.32064153084259       -2.09441258984473        6.44417788611119
O            4.21685894275660       -1.74750575765065        7.17187465564333
O            3.26757838377604       -3.10404968631978        5.41636573321229
C            4.65166237090720       -3.53516180354912        5.24674582156774
O           -7.26742093490606       -1.33850952190017        6.08866941764524
O           -6.07787047979802       -3.33696978618012        6.20864954865863
C           -7.16957531233444       -4.21559271814751        6.12309688262394
C           -4.65416118468422        3.46034873634602        7.09472113197815
C           -4.20413824445361        2.17330739189997        3.00848141789172
H           -7.25304200698065       -4.57544103585684        5.06056529297481
H           -8.13571863161403       -3.86343789065084        6.35852954810703
H           -6.96039025437104       -5.20507159831608        6.64780921977867
H            4.70884931967955       -4.53245288963509        4.77397413190508
H            4.89943798351600       -3.56386608166915        6.37200984274326
H            5.10280511532746       -2.79468564954981        4.71153354349688
H           -4.50268877916267        3.21852377169456        3.05405666323075
H           -4.94542922273819        1.39867863549292        3.08257736317362
H           -3.72899925255511        2.04582007388719        2.07253688594257
H           -5.25934650284678        3.86378679656520        6.33608779294218
H           -4.34170513714089        4.46012227510337        7.50517774746191
H           -5.33477258295209        2.90045912070977        7.79564506897307
H           -2.20111036034185        7.19764724790862        0.16850172427455
H           -0.38674773051733        7.10913547456158        0.33428430223357
H           -1.43426507132628        7.57578318546153        1.69215610781526
116
 energy: -22.776764660665 gnorm: 0.468084816176 xtb: 6.6.1 (8d0f1dd)
C           -2.74224509789091        0.79789141623201       -1.31980228539960
C           -2.06307488921973       -0.02839682264048       -0.42936496665204
C           -1.00873677417688        0.44449932352323        0.42463919523056
C           -0.52714543575157        1.72621450217926        0.03415123017653
C           -1.17002725793776        2.59236335987572       -0.82998607599716
C           -2.32013422616418        2.07392230382785       -1.43254979963340
C           -0.25841102774660       -0.26587617098565        1.47917097831946
C            1.03865589394205        0.16613099686277        1.72701814649885
C            1.49984830521007        1.38424146428595        1.17991233853286
N            0.71930152151350        2.15511219469260        0.42828259242625
C           -0.84972789338411       -1.26245069755131        2.23228260957968
C            0.02807706477813       -2.13371293112060        2.95089475978725
N            1.30494808928200       -1.79927173608524        3.04145487215113
C            1.88037625150783       -0.64958259076396        2.57778781487585
C            3.16869974230490       -0.23895805846625        2.81694720731366
C            3.50015760648447        1.07381146417479        2.42540679877147
C            2.75241201452479        1.80452988559557        1.51262081028255
C           -2.20664043772876       -1.60687410250185        2.43011247914938
C           -2.69478337272026       -2.79367867043394        3.04048497806913
C           -1.83444042585405       -3.54240071491938        3.71116715761579
C           -0.45016522225161       -3.22850382363017        3.71998249790584
O           -2.96288857835405       -0.52385858620215        2.03799878597469
O           -2.38793333868037       -1.32794075705794       -0.56031810462115
C           -3.00443381789691        3.01559546479844       -2.49493007889453
C           -2.29835162012022       -4.69319736914458        4.51982367572184
H           -0.78886440811612        3.65012825040605       -0.83905493702787
H           -3.63546838896999        0.46306257880858       -1.83990198215855
H            3.16929679378940        2.73547306852694        1.09394203081742
H            3.88093981708554       -1.01921454981954        2.56749820862373
H            0.17614708660451       -3.84518912556466        4.24819338685615
H           -3.76329551663602       -3.08286838592487        3.28745747401444
O           -2.47807793950993        4.13906350551735       -2.69682892007694
O           -4.11898097099164        2.53660458656817       -3.04285887970474
C           -4.91325493853836        3.56473158279947       -3.46021884460571
C            4.89848104871416        1.62489289405339        2.81560565051213
O            5.61731433049418        1.20879015982729        3.62715041301640
O            5.25439378036024        2.76612491524308        2.12156992728374
C            6.25863724798060        3.49539200903627        2.77128755605880
O           -3.37353668713085       -4.63642145801733        5.02073951356090
O           -1.36268517324122       -5.73072054092429        4.75376340716207
C           -1.83354006768910       -6.95858726818381        5.15727382914548
C           -4.32859080023523       -0.57630594668580        2.39663766555214
C           -1.28918044373026       -2.22649820715463       -0.74726245176646
H           -2.77680933505823       -7.35867661657678        4.65686376531396
H           -1.65605926087186       -7.07546224016528        6.25313924339090
H           -1.08962357570461       -7.52350020694611        4.65094292036232
H            6.56506562187891        2.75913085296161        3.42189250264521
H            5.80965632591957        4.40583926541361        3.32519865152897
H            6.86093728978331        3.76095855279379        1.93621711830089
H           -0.93873495274629       -1.97160519826536       -1.77851807632631
H           -1.60894153179226       -3.23676860647909       -0.25867596768206
H           -0.43204071769229       -2.03920435093392       -0.17270759863032
H           -4.54526112452579       -0.68484329304373        3.44748394537753
H           -4.60660058813002       -1.54081614213885        1.96984020439999
H           -4.82860388494895        0.29637629421549        1.96811554104144
H           -5.77591799307714        3.03931235587262       -3.62473591075585
H           -4.57469168771328        4.04425547106133       -4.43093220873949
H           -4.96395522691637        4.18558676324773       -2.60050781357062
C           -2.13503962871784        3.73908217262757        3.10461818021885
C           -2.47809763033299        2.73006645512077        3.89981910109097
C           -1.37032083115505        2.17798794686209        4.77953972427880
C           -0.04379269490432        2.53569997692539        4.61671768751141
C            0.21573053296711        3.62670156891210        3.89655103833959
C           -0.86419177161343        4.36120481245261        3.27069149370127
C           -1.57729319957246        0.92329778743659        5.53276894066541
C           -0.41251938459182        0.18156927811127        5.88243784429079
C            0.90275842720664        0.75485498187470        5.74476611370689
N            0.97697329939337        2.02424692014833        5.21784726288476
C           -2.75344729918216        0.13607106702823        5.92756762723612
C           -2.71875209443247       -1.26493669289235        5.95787310647347
N           -1.59366542743231       -1.92116462767466        6.15742279870542
C           -0.58085836218534       -1.15285325682792        6.34279138350204
C            0.54189085614510       -1.75284976746074        6.77332017634971
C            1.84011740326206       -1.22795465007217        6.60454213739953
C            2.06455619434905        0.06831070200278        6.14029354252763
C           -3.92113964355183        0.81686884766300        6.37564584564512
C           -5.13383829625807        0.00098590571668        6.45939168227931
C           -5.10934034582460       -1.39620504903327        6.37894728650468
C           -3.96117905868817       -1.97141672731428        5.90516430076006
O           -3.98313788930112        2.12993436541799        6.52566139360215
O           -3.69989189282281        2.07898202968472        3.89228111210229
C           -0.51936677382877        5.66487244103273        2.67975036552794
C           -6.34425453897782       -2.19664742670317        6.41245041579138
H            1.16045251912139        4.10532972731589        3.93435429185513
H           -2.93893899580384        4.12455735830295        2.42832707539668
H            3.12571943300734        0.56691784781807        6.07035932501910
H            0.49407031689055       -2.83105572891453        7.00839288186883
H           -3.90718595800947       -2.99282064790412        5.79548601862363
H           -6.04039269220066        0.51725579950602        6.55495017518381
O            0.33744897699739        6.39383068595064        3.03997628454783
O           -1.39323649498551        5.90571725891582        1.59569143528248
C           -1.29604833803317        7.31544063832439        1.38004742045281
C            2.89846843672332       -2.23133701969196        6.89864979401359
O            4.09176728856458       -1.91216348456313        6.90917693548314
O            2.44823212354972       -3.42079449357159        7.22085714468562
C            3.59473953582538       -4.08857975410872        7.41546430133119
O           -7.42725253360886       -1.60785506553695        6.36388737397627
O           -6.11846901864406       -3.51386830023796        6.20197612637523
C           -7.32575732304528       -4.27076051152205        6.09422490931599
C           -5.18887740504933        2.57731220251097        7.10266926445114
C           -4.61165673805454        2.47039953475886        2.88625383519765
H           -7.12261380509980       -5.02245040758879        5.37196910650085
H           -8.16166293478218       -3.60711308425537        5.72516905506672
H           -7.36855898749653       -4.86140160606971        6.99031606816299
H            4.07366524860793       -3.68464647275113        8.37412896952531
H            4.29172887208186       -3.92059688769272        6.60029466016766
H            3.35572968269370       -5.17885470245613        7.59765774977468
H           -4.73657305934350        3.55029498372922        2.61613219225754
H           -5.66491030721492        2.14332754951394        3.02156778187581
H           -4.37049549781676        2.18168205545909        1.86054337647439
H           -6.09256552999856        2.27673910703504        6.46423273638059
H           -5.07620019169926        3.66260054263026        6.85885439697072
H           -5.11079647813646        2.13037950615606        8.06972678065377
H           -2.23991701359642        7.73554401375707        1.24173099809670
H           -0.66188083633042        7.63658577184060        0.54193913477457
H           -0.85830977890040        7.81186102622168        2.24819073664597
116
 energy: -22.792424871559 gnorm: 0.427284583344 xtb: 6.6.1 (8d0f1dd)
C           -2.82821157038083        0.93140282723787       -1.07766486122764
C           -1.91772912575424        0.15735424470546       -0.47314032606644
C           -0.91192197638197        0.59167413937496        0.41558089022337
C           -0.78707570384967        1.98383281284327        0.46403671744157
C           -1.74493854374130        2.83484954057169       -0.29946032148695
C           -2.76824177988954        2.29759803529478       -0.99083665136333
C           -0.17938762048287       -0.15675270637455        1.46749062006590
C            0.97985620681426        0.52518124962968        2.05521478161436
C            1.17926304029912        1.79065006130812        1.66564274395310
N            0.16686121403901        2.53137269614655        1.16717463368541
C           -0.39910691972173       -1.51959977790719        2.03642209196627
C            0.70580547719671       -2.16888808684934        2.62079017764121
N            1.94435354591867       -1.57040101906445        2.71708608876696
C            2.10749651376046       -0.27529544583859        2.48556237221563
C            3.38655962843185        0.24515933423245        2.59554889492320
C            3.55275582357517        1.53052952005600        2.25520121029071
C            2.49393016302407        2.33304154898531        1.83090363158732
C           -1.67947461539049       -2.22139898357769        2.13979536654608
C           -1.71679296409480       -3.52513237480998        2.68752314615537
C           -0.60567679487708       -4.18473293018894        3.12427825368157
C            0.50346439599353       -3.38453403937115        3.34383924921304
O           -2.95670264323821       -1.78375421166124        1.62637099058885
O           -1.78993645614012       -1.20477234686109       -0.44353008941920
C           -3.82736623264179        3.12905140495342       -1.68127826947575
C           -0.61134638270534       -5.49333928236075        3.82482469641090
H           -1.59737754491399        3.91401935266474       -0.14392965427729
H           -3.36878843749624        0.52047032006426       -1.89580865484951
H            2.66700762952015        3.35117262483468        1.38913487497155
H            4.20124023094042       -0.38829018370178        2.82098963441251
H            1.24370946314319       -3.85413027830620        3.92866335036358
H           -2.76338632311345       -3.92139065687293        2.69431305153074
O           -3.51823686916021        3.82135955110945       -2.63229488510302