116
energy: -106.945974846975 gnorm: 0.000201644940 xtb: 6.7.1 (edcfbbe)_energy: -106.945974846975 gnorm: 0.000201644940 xtb: 6.7.1 (edcfbbe)
C         -2.57290        2.47100       -2.09270
C         -2.29500        1.31830       -1.39160
C         -1.25990        1.30950       -0.42830
C         -0.34570        2.41420       -0.40940
C         -0.67070        3.58630       -1.12560
C         -1.79380        3.62790       -1.91700
C         -0.99640        0.25010        0.49600
C          0.31150        0.16010        0.99430
C          1.21190        1.25300        0.81760
N          0.82910        2.38040        0.22370
C         -1.92590       -0.73170        0.95470
C         -1.37430       -1.93460        1.50280
N         -0.08250       -2.06890        1.81210
C          0.72790       -1.02240        1.67650
C          2.05330       -1.09160        2.15050
C          2.91760       -0.01400        1.99310
C          2.51410        1.14940        1.34900
C         -3.33550       -0.55940        0.95810
C         -4.14010       -1.64940        1.22260
C         -3.58280       -2.88970        1.58270
C         -2.22870       -3.02830        1.76530
O         -3.78620        0.69980        0.77850
O         -3.04210        0.19740       -1.68710
C         -2.11130        4.88720       -2.63840
C         -4.53130       -4.00760        1.82420
H         -0.00800        4.43470       -1.06560
H         -3.38840        2.47190       -2.79780
H          3.18430        1.98560        1.23920
H          2.39200       -1.98690        2.64720
H         -1.79540       -3.94130        2.13610
H         -5.21530       -1.58780        1.17920
O         -1.44220        5.88860       -2.58590
O         -3.23760        4.79470       -3.36050
C         -3.60970        5.96360       -4.07500
C          4.29590       -0.15280        2.54150
O          4.70630       -1.14030        3.09810
O          5.03670        0.94500        2.34950
C          6.36540        0.88970        2.84690
O         -5.73000       -3.91360        1.71480
O         -3.91240       -5.14070        2.17480
C         -4.75500       -6.25520        2.42560
C         -5.17430        0.91570        0.67670
C         -2.32240       -0.87550       -2.25780
H         -4.10030       -7.07030        2.72250
H         -5.31340       -6.51940        1.52500
H         -5.46550       -6.02250        3.22170
H          6.81550        1.85230        2.61860
H          6.91810        0.08190        2.36290
H          6.36000        0.71300        3.92440
H         -3.04150       -1.68250       -2.38680
H         -1.50630       -1.22170       -1.61670
H         -1.91250       -0.59150       -3.23360
H         -5.28940        1.98380        0.50050
H         -5.69150        0.63970        1.60070
H         -5.59660        0.36040       -0.16470
H         -4.52190        5.71530       -4.61130
H         -2.81910        6.25010       -4.77160
H         -3.78300        6.79120       -3.38410
C         -2.57290        2.47100        2.95730
C         -2.29500        1.31830        3.65840
C         -1.25990        1.30950        4.62170
C         -0.34570        2.41420        4.64060
C         -0.67070        3.58630        3.92440
C         -1.79380        3.62790        3.13300
C         -0.99640        0.25010        5.54600
C          0.31150        0.16010        6.04430
C          1.21190        1.25300        5.86760
N          0.82910        2.38040        5.27370
C         -1.92590       -0.73170        6.00470
C         -1.37430       -1.93460        6.55280
N         -0.08250       -2.06890        6.86210
C          0.72790       -1.02240        6.72650
C          2.05330       -1.09160        7.20050
C          2.91760       -0.01400        7.04310
C          2.51410        1.14940        6.39900
C         -3.33550       -0.55940        6.00810
C         -4.14010       -1.64940        6.27260
C         -3.58280       -2.88970        6.63270
C         -2.22870       -3.02830        6.81530
O         -3.78620        0.69980        5.82850
O         -3.04210        0.19740        3.36290
C         -2.11130        4.88720        2.41160
C         -4.53130       -4.00760        6.87420
H         -0.00800        4.43470        3.98440
H         -3.38840        2.47190        2.25220
H          3.18430        1.98560        6.28920
H          2.39200       -1.98690        7.69720
H         -1.79540       -3.94130        7.18610
H         -5.21530       -1.58780        6.22920
O         -1.44220        5.88860        2.46410
O         -3.23760        4.79470        1.68950
C         -3.60970        5.96360        0.97500
C          4.29590       -0.15280        7.59150
O          4.70630       -1.14030        8.14810
O          5.03670        0.94500        7.39950
C          6.36540        0.88970        7.89690
O         -5.73000       -3.91360        6.76480
O         -3.91240       -5.14070        7.22480
C         -4.75500       -6.25520        7.47560
C         -5.17430        0.91570        5.72670
C         -2.32240       -0.87550        2.79220
H         -4.10030       -7.07030        7.77250
H         -5.31340       -6.51940        6.57500
H         -5.46550       -6.02250        8.27170
H          6.81550        1.85230        7.66860
H          6.91810        0.08190        7.41290
H          6.36000        0.71300        8.97440
H         -3.04150       -1.68250        2.66320
H         -1.50630       -1.22170        3.43330
H         -1.91250       -0.59150        1.81640
H         -5.28940        1.98380        5.55050
H         -5.69150        0.63970        6.65070
H         -5.59660        0.36040        4.88530
H         -4.52190        5.71530        0.43870
H         -2.81910        6.25010        0.27840
H         -3.78300        6.79120        1.66590
