116
 energy: -22.928061455056 gnorm: 0.329736929581 xtb: 6.6.1 (8d0f1dd)
C           -3.31122850772930        0.79849766164622       -0.92477639677520
C           -2.44380812530352       -0.12270372891954       -0.27661132624697
C           -1.41337090092821        0.39579727573559        0.56335275196199
C           -0.89266158675590        1.65801491088749        0.27377586709581
C           -1.72665675402493        2.51431363229076       -0.49448366572522
C           -2.95444148494349        2.13954154133227       -1.01494489940871
C           -0.74098268209890       -0.43411532818871        1.49825021926784
C            0.56872586496315        0.03782116815119        1.86248088067890
C            1.03782416582094        1.29402317993033        1.50887470833621
N            0.31238977034758        2.07067427098208        0.65193736800696
C           -1.29695700510141       -1.39996043042223        2.41574187746061
C           -0.38243517664656       -2.18060797534842        3.13232615520648
N            0.91308504082021       -1.90366887689689        3.30325166013478
C            1.37712470144904       -0.74872102533751        2.81811050966982
C            2.52149331701875       -0.17739833758153        3.39379298866852
C            2.95849061756259        1.02681208890480        2.95105897606587
C            2.24288949469137        1.78498308775960        2.03503020483770
C           -2.74860936222260       -1.74497937691422        2.38401158947411
C           -3.09416315450955       -2.91614440870436        3.00571134491758
C           -2.16786021984049       -3.77788778654213        3.63251872101904
C           -0.85708937311598       -3.40495313382985        3.68547234358092
O           -3.71994433332149       -0.94984598373544        1.67726658385724
O           -2.55702603277562       -1.47241711578389       -0.57241635275616
C           -3.84297843593025        3.13357444054366       -1.60938954875544
C           -2.68769581069131       -5.03867041417370        4.30484659386931
H           -1.39666850744143        3.51251503834900       -0.76806311868865
H           -4.27662633836220        0.55105838579656       -1.33106614114542
H            2.66329581305412        2.73912661909249        1.72562431984580
H            3.05775395548473       -0.69369546277216        4.16536137542516
H           -0.24710966264510       -4.12034095424229        4.22946223699121
H           -4.11477991332403       -3.04712728052358        3.03244694615357
O           -4.21824883374556        4.03433712717988       -0.87713382485991
O           -4.44510595673734        2.90643496899600       -2.81853501752979
C           -5.44216520282800        3.83300025693726       -3.02488532025093
C            4.23586651889298        1.50004220933226        3.59165660008449
O            5.05927614697201        0.66079890002952        3.91714215179376
O            4.47001334453535        2.86385149488593        3.72605651435371
C            5.79457498613219        3.08584475587818        4.15829123132174
O           -3.82227255313510       -5.27347675879771        4.16636005494405
O           -1.85023202017753       -5.79767454267276        5.06656077253571
C           -2.55119635829503       -6.86252441382958        5.62930343183426
C           -5.07197156564436       -1.42399175670916        1.58830531863830
C           -1.33089900128490       -2.23622472573986       -0.99264499351172
H           -2.54510546830388       -7.76426885143998        4.99136022291012
H           -3.57194749219491       -6.44405511486021        5.74196173723541
H           -2.09133598235598       -7.02043774843818        6.64022264233588
H            5.72707967266424        3.46798026205549        5.10135971236643
H            6.34060091246885        3.78468702308830        3.50069950143490
H            6.17933064298187        2.03010500085905        4.19342358084693
H           -0.91862729772622       -2.57650129080332       -0.01361370304871
H           -0.49769766914251       -1.60651221708571       -1.34094446550576
H           -1.52632419730509       -2.94569707152159       -1.75361447637286
H           -5.11788846557077       -2.41810833635233        1.17520213188926
H           -5.67929807973498       -0.69619639428435        1.04301666067831
H           -5.57598832326623       -1.42383358739762        2.57928294206544
H           -6.13050215934830        3.76035386975488       -2.23272855695873
H           -5.86615610071888        3.45938329385866       -4.02668959924245
H           -5.13479557532099        4.87790991548477       -2.98314551356402
C           -1.38192942069774        3.73616555005018        2.91232598411686
C           -1.84821468128685        2.59982427735607        3.49755545445181
C           -1.05946531454833        2.05730632010638        4.60922730982276
C            0.19893954712228        2.69376791964407        4.86302140881997
C            0.50425395911860        3.94630308659851        4.28768785650746
C           -0.26031777722226        4.46998310053134        3.25072669343212
C           -1.20488993561782        0.74454293276906        5.14851520323437
C           -0.06287609782692        0.02744069315890        5.60930570802864
C            1.19208754369866        0.71421540266195        5.78882868583885
N            1.19428660993148        2.06344359410476        5.62744624321596
C           -2.41361422770794        0.07928500213936        5.25249410304426
C           -2.45851584031083       -1.32662100968547        5.60237876023992
N           -1.29466212405906       -1.98318595734370        5.89916817085159
C           -0.14475655767527       -1.32117560077092        5.98824682881008
C            0.97209270935794       -1.98958449505532        6.53157704134458
C            2.21982707914082       -1.36973967291181        6.68703967237737
C            2.30561929262884       -0.09745313075593        6.26436900324455
C           -3.73018485967715        0.71367583494582        5.25810242262992
C           -4.89964478833448       -0.06184623426677        5.21204641615509
C           -4.82617965800088       -1.39228978090841        5.46901303780036
C           -3.67144193418464       -1.98914944386360        5.67265433266067
O           -3.75568638935321        2.07705011038914        5.52067969627343
O           -2.94192434743730        1.91263938797883        3.01658762327703
C            0.21273512614467        5.50086066357994        2.34765104514621
C           -6.06660304520411       -2.17604633098929        5.80641622556876
H            1.41756699010566        4.38133362238595        4.66974005703471
H           -1.82880610647429        4.11982501512100        2.06992133318584
H            3.26888037378556        0.32655662585251        6.31721410015598
H            0.87146188387207       -3.08471526305024        6.57830423410869
H           -3.67716811065157       -3.05999292755990        5.83019634570050
H           -5.77379677507622        0.43595144608221        4.71017130754348
O            1.34459852619901        5.82615848916894        2.44941456579099
O           -0.74718748219123        6.07961784856304        1.59848183464284
C           -0.21473095568964        7.24015934882472        1.05753806029483
C            3.53228080814219       -2.00967610361154        7.02506769044485
O            3.64093082622715       -3.14437803815732        7.50071391725347
O            4.56565258381079       -1.22937033368332        6.69086985080897
C            5.72579357310716       -1.80692399125161        7.22246151275881
O           -7.04801223588612       -1.95726935745904        5.14194115322235
O           -6.01514389321278       -2.93743591896022        6.94765316328794
C           -7.21292732384718       -3.62681918543340        7.15115816329978
C           -4.95459780685163        2.65960679932188        5.86868674392943
C           -3.68284113682406        2.59129188358641        2.05479246020704
H           -7.43119628931628       -4.22607794725959        6.20622607140901
H           -8.06548455146707       -2.91765848248592        7.29781126410398
H           -7.07314693247270       -4.33087306029711        7.91223421050944
H            6.57332189837178       -1.29353136199234        6.78341268688262
H            5.74663761932316       -2.84282155125561        6.88089468184451
H            5.69426191474290       -1.72781984964892        8.29460302186842
H           -4.10481209541493        3.44288266176275        2.60483747673152
H           -4.49244774344916        1.87419893016926        1.82433103764650
H           -3.18901540870812        2.85154642679373        1.06781919454921
H           -5.55414326821421        2.76698137191684        4.93950725322359
H           -4.78658370641210        3.62090640967288        6.25983200635257
H           -5.43485580473958        1.97242995129449        6.65265772412460
H            0.89164886030839        7.38838561720231        1.13776105146914
H           -0.62894889903848        8.04195665205089        1.64837664327952
H           -0.59282546386754        7.45699159724320        0.03719083132488
116
 energy: -22.663160590287 gnorm: 0.516373127565 xtb: 6.6.1 (8d0f1dd)
C           -3.10794531859556        0.47082449844474       -0.86931567826257
C           -2.14103492460966       -0.38810595283245       -0.50238258793828
C           -1.09264437609927        0.12673775983893        0.30211526842805
C           -0.61540172005316        1.49174174029506        0.30795549401702
C           -1.67153968010078        2.30214798312648       -0.37520528225366
C           -2.82388328547477        1.84393838783113       -1.00646736945792
C           -0.47124985042989       -0.70071630418858        1.36222946703927
C            0.82567574860092       -0.30585022340949        1.80402138982822
C            1.37296544192274        1.02245640190021        1.41053216588682
N            0.66192517234629        1.97291723041006        0.67891681237986
C           -1.14728916801559       -1.78117411615581        2.16330646584721
C           -0.28102487068128       -2.58440960423495        3.00282812951795
N            1.00719166948090       -2.12064238397068        3.32858445633813
C            1.53137917446908       -0.99629406124287        2.79471716352143
C            2.64611313426696       -0.32273028099749        3.47472300424175
C            3.24806427748068        0.82083522617943        3.02749314631276
C            2.63828669478869        1.42129083083833        1.96492913494078
C           -2.53650191583674       -2.26328469585168        1.98101275614059
C           -2.95083437163809       -3.45428784125702        2.49961549253634
C           -2.02773847632684       -4.25446562532650        3.38565468517220
C           -0.74876699494565       -3.77230102652229        3.61738895035383
O           -3.45027740324917       -1.42091342499124        1.34480089309537
O           -2.11672689320786       -1.71638054554698       -0.71785307771707
C           -3.65415391793385        2.90374542288606       -1.54362970973634
C           -2.46013708083688       -5.32006879101515        4.19123089769192
H           -1.47847085987838        3.41043487355641       -0.37286973134386
H           -3.97786031339483        0.00718001841874       -1.27735412704279
H            3.34858088314752        2.21053281473251        1.50510511481603
H            2.83598401616073       -0.65192974902159        4.52516653634807
H           -0.02464552684520       -4.11735285932352        4.41880618038503
H           -3.80317289129896       -3.83514038540097        2.06599702754595
O           -2.95338761624801        3.92205615239106       -1.87303120747934
O           -4.99284336572866        2.61124033381001       -1.58579971510311
C           -5.43358157884731        3.53103408791626       -2.55688097566952
C            4.48139293374855        1.46862214967148        3.57743677499371
O            4.60815107063546        1.63282441433713        4.78883962695881
O            5.29433207455807        1.94394144626471        2.54028422560408
C            6.50344042011021        2.43744844254349        3.12186215496178
O           -3.59723085808051       -5.40031885843664        4.73615265686445
O           -1.58643820214527       -6.32512532662629        4.43468982365613
C           -1.96255693159051       -6.90543110840077        5.58588258008168
C           -4.80609369895046       -1.30443522818256        1.87888644683966
C           -3.13708904585491       -2.33516255445682       -1.41357468873319
H           -2.87719466124191       -7.40821851577282        5.53454591628386
H           -2.18349707218123       -6.19644926882452        6.32864974614266
H           -1.07492304042954       -7.63547111483302        5.96122993946814
H            6.76048267851003        2.25863070868582        4.21013621420018
H            6.74237440605621        3.43380682456251        2.73677408906354
H            7.20020606386387        1.69026046923231        2.95478640546466
H           -2.96474909340512       -3.42842544154085       -1.27889409235703
H           -2.80546463812005       -2.01603417784183       -2.54225966625057
H           -4.02776582146725       -1.77300976668605       -1.04104921709723
H           -5.02102673866829       -2.14189510978686        2.55202898116190
H           -5.61297773827980       -1.26896174876977        1.11395375478388
H           -4.71921042215430       -0.35023901481333        2.54790905923539
H           -5.55184859249884        4.43729173122261       -1.98053396239156
H           -6.30967859462960        3.06827533216672       -3.04359368738915
H           -4.64192400706993        3.67442837887520       -3.55577569007864
C           -1.20861653429874        3.65431344701595        2.84972776209097
C           -1.71344650922613        2.63464572326277        3.59330082871032
C           -1.15448083033813        2.30125079115401        4.91881727933245
C            0.16526975386999        2.88870757001337        5.13893841242567
C            0.41904577268802        4.11064096658749        4.55948777694790
C           -0.27430522349592        4.54368555394598        3.46235006932452
C           -1.39073356224094        1.05023157202523        5.51052678734113
C           -0.30007960917864        0.37727749283865        6.06307997176997
C            0.81128699833231        1.12400904930958        6.24975195174889
N            1.04591331556527        2.38046576813685        5.97239551882330
C           -2.68832136513249        0.34534917268193        5.53569424901077
C           -2.65437996414788       -1.10211247937379        5.39668803925225
N           -1.48358121859571       -1.75007884328507        5.66752838818942
C           -0.46835701421103       -1.05259804311315        6.18632016038337
C            0.69639035384194       -1.66553660831587        6.59938122606963
C            1.90152831508477       -0.89793888521794        6.70793153849930
C            1.99546229863633        0.53897473884292        6.57854405484658
C           -3.85449297268440        1.01950759579698        5.97950206934617
C           -5.01212140350865        0.14386554466201        5.95982170841898
C           -5.06216914516407       -1.19522034030673        5.53691570349010
C           -3.80610303566483       -1.87110620892934        5.26800011841215
O           -3.92864998861652        2.33965717535946        6.34524999051032
O           -2.66953892370827        1.78606322577169        3.13693622014176
C            0.08445556347945        5.75589902107950        2.68030600586539
C           -6.40883619752317       -1.92166593621057        5.43633737589302
H            1.30564796696017        4.74254345532373        4.69708005666140
H           -1.22782070773222        3.81596567034848        1.84910694251501
H            2.94461050934543        0.93152949488623        6.69826807044507
H            0.77372287430850       -2.71337387608514        6.81667662311332
H           -3.72107850694764       -2.91944290857473        5.18205331810536
H           -5.90331424556232        0.62648897458814        6.10955326936002
O            1.20529993756494        6.14721618573166        2.46620302114382
O           -0.99476260859666        6.44346998423756        2.01117823382008
C           -0.43381067032261        7.54725641146797        1.34311097904913
C            3.25799508688922       -1.41242954634849        7.11224271056574
O            3.22576674267512       -2.26891351908315        7.94487307896859
O            4.37422419877339       -0.76188670217148        6.60671919674285
C            5.49876379624217       -1.25852874670351        7.36085794962401
O           -7.46485466427145       -1.19126005682449        5.55039377454800
O           -6.28781637497264       -3.29986180186310        5.08087511310042
C           -7.49910092548925       -3.91552132945945        4.91046276885638
C           -5.09417168715300        2.95947796579178        6.83450399470948
C           -3.76146554377829        2.37249730403991        2.46361751378464
H           -7.38160217324956       -4.96738695017134        4.35486034811257
H           -8.33564872640876       -3.34474522302914        4.30310920229415
H           -7.74682394990675       -4.09841327898753        5.90937991970855
H            6.19118886466878       -1.74658261869238        6.52266353268481
H            5.23412192277341       -2.07740173969243        8.05371311924780
H            6.18669243882410       -0.41277418278237        7.73498226384008
H           -3.95205260317149        1.89416825010334        1.48697025395438
H           -3.59695385728856        3.40989533369254        2.31409737556775
H           -4.84349641248600        1.96554419478763        2.76136686963904
H           -4.70699291924368        3.99585215445428        6.79253968475355
H           -5.07315226216815        2.45087693250884        7.91983267165264
H           -5.98848379263485        3.18602291849316        6.28917308225081
H            0.39054874065166        8.06475375307654        1.87712293324912
H           -1.33590182431386        8.18817387053117        1.17508059628118
H           -0.04823398775021        7.23020988442630        0.45095797102126
116
 energy: -22.661180324829 gnorm: 0.570872841780 xtb: 6.6.1 (8d0f1dd)
C           -2.64426013127355        0.29681942310207       -1.05898148615298
C           -1.94336552600368       -0.57509159951087       -0.17860319273068
C           -1.04042964913433        0.10663085791578        0.68361780074039
C           -0.71123557110298        1.44279602200000        0.29567826486790
C           -1.40976430403428        2.26100889441817       -0.61223308142017
C           -2.42188954203764        1.62056425455197       -1.21605083795702
C           -0.35524928599644       -0.47358160770201        1.79717435486733
C            1.01577916728102       -0.17907420346287        1.89706632419361
C            1.47725502093293        1.20776366285569        1.39980348400283
N            0.49562034671756        2.04199831536625        0.82168404272090
C           -0.70716981474710       -1.69233560600773        2.55881547620981
C            0.22093995441625       -2.57449860640433        3.12649501466574
N            1.58090049111886       -2.17424813139814        3.15638437077690
C            1.96478808897321       -0.94208374320044        2.70057741880254
C            3.20083998158938       -0.39917147016487        2.74431630357855
C            3.64731378842774        0.88859521776578        2.30656645901525
C            2.79192936742466        1.67487062252979        1.60777049576821
C           -2.02444680431575       -2.09208769437641        2.64249342472956
C           -2.42922085335164       -3.32173136482451        3.14928989668970
C           -1.48797629291312       -4.14810671576946        3.67403281042118
C           -0.16519502655915       -3.78477188390658        3.41849512477605
O           -3.07506071167530       -1.13480861703948        2.29476416542460
O           -2.17168795902671       -1.95369390563245       -0.26111249877265
C           -3.06818523932595        2.38443559136525       -2.38263606157258
C           -1.99863356688991       -5.40255139555467        4.34098189052321
H           -1.02598655278063        3.11597839728593       -1.02380710488038
H           -3.37609384188878       -0.20307893445504       -1.71063540672762
H            2.98479409598456        2.70143599413057        1.62922628306854
H            3.83973874859949       -0.89644540615365        3.41152239895338
H            0.57341710906485       -4.64056424505550        3.68360236856440
H           -3.33282221216057       -3.73375349627764        3.08179123815731
O           -2.80030535008960        3.52352148673536       -2.36262800303162
O           -3.86178633011467        1.73750673063123       -3.31044149890197
C           -4.65201463441874        2.68648651150001       -3.88695225014036
C            4.97617541441773        1.39689174212472        2.83846804002534
O            5.67453105338292        0.66847858643282        3.52136670699997
O            5.43112798576992        2.61183724086549        2.27584570302440
C            6.77973165161731        3.09227977712488        2.53825585498443
O           -3.15514772840436       -5.54341810637676        4.54008492633375
O           -0.80926965729832       -6.27812843367869        4.58258316267663
C           -1.22157113775853       -7.27387650264107        5.44674960077716
C           -4.40824960241106       -1.58214501573459        2.34540488296390
C           -3.03668960776278       -2.72952703347130       -1.27375698655234
H           -2.15256292278793       -7.69916065627454        4.96146170983184
H           -1.74517848934935       -6.79189618173143        6.34126777019902
H           -0.39091644587849       -7.85730275320933        5.63452842745031
H            7.14300583881687        2.14832410910618        3.26275365329485
H            6.86095473629683        4.21512975300818        2.65447488389239
H            7.32645259259598        2.95464654395278        1.60072546301510
H           -2.70995730686197       -2.54892855660149       -2.30627876520178
H           -4.09358451964696       -2.24291298576928       -1.11974593998873
H           -3.15938495360554       -3.71164886531519       -1.17619173289980
H           -5.23557952790303       -0.75867089469298        2.39297726525325
H           -4.68471260445213       -2.18774189732838        3.28949917725697
H           -4.46619746332417       -2.19598857940290        1.47560353198543
H           -5.09122271003878        2.43653667348260       -4.98384439741333
H           -4.03892364014094        3.57217462022077       -3.92524672551711
H           -5.67477382020968        2.89393071859117       -3.46331001387544
C           -2.03818866360616        4.18606476537982        3.55688033555648
C           -2.29070227175404        2.87854328153529        3.94731132660295
C           -1.43040297460891        2.26751038931768        4.90339126162789
C           -0.16417753875894        2.77637972128442        5.06574054072205
C            0.20892799728318        4.02766184876290        4.56715474766155
C           -0.74604109988294        4.76010773863040        3.85705623144708
C           -1.77114565410150        0.95980282826476        5.54704713425635
C           -0.63293272644565        0.35782087389775        6.09987654579668
C            0.63203095836344        0.88617968734287        6.03435358280547
N            0.86020275160290        2.11474231078601        5.61243582606523
C           -3.02042377664369        0.44071414892240        5.72304849097342
C           -3.12628620571127       -0.95325126948108        5.92859051904051
N           -1.88818813818804       -1.62247395086250        6.10007635900839
C           -0.76889072280942       -1.04989943952183        6.46038529281441
C            0.39296097548198       -1.84872180764370        6.73179352737927
C            1.62716127767243       -1.21644537081390        6.56078674419251
C            1.76473874006954        0.06815703954658        6.10053950208290
C           -4.26878965955076        1.07642020890737        6.01474728042864
C           -5.47731105693019        0.49525764740219        5.88138358446471
C           -5.52492810727816       -0.86069135141452        5.55651356689766
C           -4.39291106917978       -1.60630638087720        5.79275592605502
O           -4.17003985499680        2.48626407382588        6.15369503272335
O           -3.37452460995040        2.20247288180792        3.31844066747300
C           -0.33186723397607        6.11309018549310        3.23815043674436
C           -6.85286975947128       -1.51921370473258        5.69604029564603
H            1.32261738339264        4.23011120739755        4.50203489108070
H           -2.66215812514683        4.53039417648122        2.80389419621307
H            2.66255936227882        0.54628763768320        5.73899349546744
H            0.48811992559572       -2.88982177532160        7.23357550251802
H           -4.64436839773967       -2.71168640222430        5.81555939786865
H           -6.42356903979234        0.87561346794583        6.10309258051130
O            0.77237486761600        6.58227775435213        3.00424301411186
O           -1.41492915708361        6.89800025757305        2.97602948344595
C           -1.00109427002605        8.20604790989449        2.59867819093010
C            2.84303841081336       -2.00924502442225        6.88596365819757
O            3.00109128572733       -3.21479565366656        7.05381156440957
O            3.92427656195006       -1.12829002397649        6.88157425074475
C            4.98445100261121       -1.89960180089362        7.24899054062021
O           -7.39388981261494       -1.47036027283795        6.76582636188416
O           -7.29048816987681       -2.30248950392259        4.68001449499671
C           -8.52817630897115       -2.71169265531778        5.17675652705803
C           -4.90095310895075        3.26735244874575        7.15852960577002
C           -3.67584613827556        2.49966468706376        2.01750019163742
H           -9.29010778871719       -2.47325024108829        4.29401102555222
H           -9.06762996729811       -2.26373243853185        6.18165739140403
H           -8.77236940587806       -3.72307278749949        5.21227037510102
H            5.98687572085786       -1.38002563747451        7.35434826579349
H            5.34352385450871       -2.34442343979753        6.30867067991705
H            4.61090122108774       -2.87631252443792        7.92044816925933
H           -3.09152353413661        1.62061294094094        1.50236081431623
H           -3.45822156956167        3.43488328087837        1.56491027080551
H           -4.71162594894675        2.15064431595224        1.78218304482988
H           -5.44112823214401        4.08747932655715        6.74265884004892
H           -4.06439935814459        3.58586668400206        7.91710090134266
H           -5.59062512941909        2.69175795767471        7.73934626169713
H           -0.79997040076033        8.03630327779902        1.46028771815496
H           -0.04216734259857        8.43966374117736        3.12810377483034
H           -1.67609221655961        9.14844709526283        2.78432933419955
116
 energy: -22.662978815157 gnorm: 0.551008020510 xtb: 6.6.1 (8d0f1dd)
C           -2.85858155887232        0.18706639056096       -1.27588701428534
C           -2.06991801820639       -0.56470716929167       -0.41830903927741
C           -1.20294635059728        0.19367880692260        0.48200154965135
C           -0.97720066100629        1.59667395315106        0.41455096912860
C           -1.60484402070905        2.24205342086914       -0.69900212148866
C           -2.72594712930927        1.61818786878095       -1.41290343000068
C           -0.25961530755281       -0.63070106173116        1.26733614631460
C            0.93456865816405        0.04599763050797        1.59585723899051
C            1.10856035139241        1.48437877308912        1.49600876233872
N            0.11171404774156        2.21179822792379        1.05270477088387
C           -0.57750939649842       -1.73240634910056        2.11263138540927
C            0.56452246189042       -2.38698976802710        2.60319702271980
N            1.87774964877872       -2.05176256363628        2.49650049049530
C            2.01883850477908       -0.89469217857665        1.96436418956944
C            3.26001563981552       -0.28001923468796        2.29458928859597
C            3.33767371584017        1.04650953622630        2.42445005950036
C            2.44769104115537        1.89112435991196        1.82906095635920
C           -1.98065563243397       -2.19428129447263        2.45339451823451
C           -2.18210182452362       -3.28201650953266        3.31635015682022
C           -1.01362287417651       -4.04243264322643        3.56167091159425
C            0.18208657190920       -3.49355049781682        3.26017515106238
O           -3.00147095572850       -1.32834361663714        2.02455942125408
O           -1.84211937942005       -1.91616134508340       -0.77723199883920
C           -3.00909749283649        2.25354396600298       -2.65689753636357
C           -1.18525812198593       -5.44658357950034        4.09117393320154
H           -1.54141067201966        3.23459275853223       -0.92934112888159
H           -3.58137772284651       -0.30186195454464       -1.99221314140998
H            2.70359242661152        2.87553693780436        1.53857881006638
H            4.07084970781768       -0.98702396446730        2.65273565164121
H            1.00145239152849       -4.26547754533186        3.52179508643749
H           -3.07499653359754       -3.65677348615829        3.57999531793475
O           -2.57991379539882        3.41903392289727       -2.79723791553906