116
 energy: -22.928061455056 gnorm: 0.329736929581 xtb: 6.6.1 (8d0f1dd)
C           -3.31122850772930        0.79849766164622       -0.92477639677520
C           -2.44380812530352       -0.12270372891954       -0.27661132624697
C           -1.41337090092821        0.39579727573559        0.56335275196199
C           -0.89266158675590        1.65801491088749        0.27377586709581
C           -1.72665675402493        2.51431363229076       -0.49448366572522
C           -2.95444148494349        2.13954154133227       -1.01494489940871
C           -0.74098268209890       -0.43411532818871        1.49825021926784
C            0.56872586496315        0.03782116815119        1.86248088067890
C            1.03782416582094        1.29402317993033        1.50887470833621
N            0.31238977034758        2.07067427098208        0.65193736800696
C           -1.29695700510141       -1.39996043042223        2.41574187746061
C           -0.38243517664656       -2.18060797534842        3.13232615520648
N            0.91308504082021       -1.90366887689689        3.30325166013478
C            1.37712470144904       -0.74872102533751        2.81811050966982
C            2.52149331701875       -0.17739833758153        3.39379298866852
C            2.95849061756259        1.02681208890480        2.95105897606587
C            2.24288949469137        1.78498308775960        2.03503020483770
C           -2.74860936222260       -1.74497937691422        2.38401158947411
C           -3.09416315450955       -2.91614440870436        3.00571134491758
C           -2.16786021984049       -3.77788778654213        3.63251872101904
C           -0.85708937311598       -3.40495313382985        3.68547234358092
O           -3.71994433332149       -0.94984598373544        1.67726658385724
O           -2.55702603277562       -1.47241711578389       -0.57241635275616
C           -3.84297843593025        3.13357444054366       -1.60938954875544
C           -2.68769581069131       -5.03867041417370        4.30484659386931
H           -1.39666850744143        3.51251503834900       -0.76806311868865
H           -4.27662633836220        0.55105838579656       -1.33106614114542
H            2.66329581305412        2.73912661909249        1.72562431984580
H            3.05775395548473       -0.69369546277216        4.16536137542516
H           -0.24710966264510       -4.12034095424229        4.22946223699121
H           -4.11477991332403       -3.04712728052358        3.03244694615357
O           -4.21824883374556        4.03433712717988       -0.87713382485991
O           -4.44510595673734        2.90643496899600       -2.81853501752979
C           -5.44216520282800        3.83300025693726       -3.02488532025093
C            4.23586651889298        1.50004220933226        3.59165660008449
O            5.05927614697201        0.66079890002952        3.91714215179376
O            4.47001334453535        2.86385149488593        3.72605651435371
C            5.79457498613219        3.08584475587818        4.15829123132174
O           -3.82227255313510       -5.27347675879771        4.16636005494405
O           -1.85023202017753       -5.79767454267276        5.06656077253571
C           -2.55119635829503       -6.86252441382958        5.62930343183426
C           -5.07197156564436       -1.42399175670916        1.58830531863830
C           -1.33089900128490       -2.23622472573986       -0.99264499351172
H           -2.54510546830388       -7.76426885143998        4.99136022291012
H           -3.57194749219491       -6.44405511486021        5.74196173723541
H           -2.09133598235598       -7.02043774843818        6.64022264233588
H            5.72707967266424        3.46798026205549        5.10135971236643
H            6.34060091246885        3.78468702308830        3.50069950143490
H            6.17933064298187        2.03010500085905        4.19342358084693
H           -0.91862729772622       -2.57650129080332       -0.01361370304871
H           -0.49769766914251       -1.60651221708571       -1.34094446550576
H           -1.52632419730509       -2.94569707152159       -1.75361447637286
H           -5.11788846557077       -2.41810833635233        1.17520213188926
H           -5.67929807973498       -0.69619639428435        1.04301666067831
H           -5.57598832326623       -1.42383358739762        2.57928294206544
H           -6.13050215934830        3.76035386975488       -2.23272855695873
H           -5.86615610071888        3.45938329385866       -4.02668959924245
H           -5.13479557532099        4.87790991548477       -2.98314551356402
C           -1.38192942069774        3.73616555005018        2.91232598411686
C           -1.84821468128685        2.59982427735607        3.49755545445181
C           -1.05946531454833        2.05730632010638        4.60922730982276
C            0.19893954712228        2.69376791964407        4.86302140881997
C            0.50425395911860        3.94630308659851        4.28768785650746
C           -0.26031777722226        4.46998310053134        3.25072669343212
C           -1.20488993561782        0.74454293276906        5.14851520323437
C           -0.06287609782692        0.02744069315890        5.60930570802864
C            1.19208754369866        0.71421540266195        5.78882868583885
N            1.19428660993148        2.06344359410476        5.62744624321596
C           -2.41361422770794        0.07928500213936        5.25249410304426
C           -2.45851584031083       -1.32662100968547        5.60237876023992
N           -1.29466212405906       -1.98318595734370        5.89916817085159
C           -0.14475655767527       -1.32117560077092        5.98824682881008
C            0.97209270935794       -1.98958449505532        6.53157704134458
C            2.21982707914082       -1.36973967291181        6.68703967237737
C            2.30561929262884       -0.09745313075593        6.26436900324455
C           -3.73018485967715        0.71367583494582        5.25810242262992
C           -4.89964478833448       -0.06184623426677        5.21204641615509
C           -4.82617965800088       -1.39228978090841        5.46901303780036
C           -3.67144193418464       -1.98914944386360        5.67265433266067
O           -3.75568638935321        2.07705011038914        5.52067969627343
O           -2.94192434743730        1.91263938797883        3.01658762327703
C            0.21273512614467        5.50086066357994        2.34765104514621
C           -6.06660304520411       -2.17604633098929        5.80641622556876
H            1.41756699010566        4.38133362238595        4.66974005703471
H           -1.82880610647429        4.11982501512100        2.06992133318584
H            3.26888037378556        0.32655662585251        6.31721410015598
H            0.87146188387207       -3.08471526305024        6.57830423410869
H           -3.67716811065157       -3.05999292755990        5.83019634570050
H           -5.77379677507622        0.43595144608221        4.71017130754348
O            1.34459852619901        5.82615848916894        2.44941456579099
O           -0.74718748219123        6.07961784856304        1.59848183464284
C           -0.21473095568964        7.24015934882472        1.05753806029483
C            3.53228080814219       -2.00967610361154        7.02506769044485
O            3.64093082622715       -3.14437803815732        7.50071391725347
O            4.56565258381079       -1.22937033368332        6.69086985080897
C            5.72579357310716       -1.80692399125161        7.22246151275881
O           -7.04801223588612       -1.95726935745904        5.14194115322235
O           -6.01514389321278       -2.93743591896022        6.94765316328794
C           -7.21292732384718       -3.62681918543340        7.15115816329978
C           -4.95459780685163        2.65960679932188        5.86868674392943
C           -3.68284113682406        2.59129188358641        2.05479246020704
H           -7.43119628931628       -4.22607794725959        6.20622607140901
H           -8.06548455146707       -2.91765848248592        7.29781126410398
H           -7.07314693247270       -4.33087306029711        7.91223421050944
H            6.57332189837178       -1.29353136199234        6.78341268688262
H            5.74663761932316       -2.84282155125561        6.88089468184451
H            5.69426191474290       -1.72781984964892        8.29460302186842
H           -4.10481209541493        3.44288266176275        2.60483747673152
H           -4.49244774344916        1.87419893016926        1.82433103764650
H           -3.18901540870812        2.85154642679373        1.06781919454921
H           -5.55414326821421        2.76698137191684        4.93950725322359
H           -4.78658370641210        3.62090640967288        6.25983200635257
H           -5.43485580473958        1.97242995129449        6.65265772412460
H            0.89164886030839        7.38838561720231        1.13776105146914
H           -0.62894889903848        8.04195665205089        1.64837664327952
H           -0.59282546386754        7.45699159724320        0.03719083132488
116
 energy: -22.826881663131 gnorm: 0.408698499538 xtb: 6.6.1 (8d0f1dd)
C           -3.29828299488617        0.15406453592664       -1.77636510158481
C           -2.46906671081109       -0.50263288457380       -0.86899907328841
C           -1.88410596364003        0.22459300270963        0.26115153695569
C           -1.59594916887886        1.60605857896320       -0.01047359366964
C           -2.53018776270964        2.26231654083078       -0.96074259839087
C           -3.37716993219285        1.56478509532851       -1.81257572090578
C           -1.06192178468358       -0.37576254388914        1.30945622224868
C            0.19765449046420        0.25510608344641        1.45843722816550
C            0.29110219577873        1.67818513015495        1.22747515315317
N           -0.55111150895809        2.38920299241818        0.46491700535778
C           -1.35931374798551       -1.58798030277341        2.00103267757763
C           -0.30162190190195       -2.25964990371748        2.75896717822651
N            0.93146295751060       -1.63769223104002        2.82023997232558
C            1.08573558567815       -0.38266378593973        2.36070844324171
C            2.36547663571261        0.23171074027638        2.68203212336287
C            2.43460342880539        1.67485909132054        2.43903715433548
C            1.38767369791061        2.28214638256979        1.75608292936348
C           -2.73652031437654       -2.05753703160033        2.18184805364413
C           -2.91728068157286       -3.32937208555851        2.64928813202163
C           -1.76226440180052       -4.08734689138003        3.10742577858750
C           -0.49436920973918       -3.53345597708204        3.33687220917911
O           -3.65857127428770       -1.02412935589909        1.92348484218079
O           -2.21435353442311       -1.91628879041839       -1.06847906088555
C           -4.30942319060176        2.36968494195586       -2.60304786883013
C           -2.11417623719929       -5.43425216185879        3.68022567045268
H           -2.50309747366360        3.33227505609822       -1.16024083871072
H           -3.73595160136439       -0.43381955064241       -2.55212557069769
H            1.51792494541265        3.31598021079544        1.63500925296566
H            3.19133395977606       -0.10372287967637        3.16610066046097
H            0.36774648582042       -4.08380421990483        3.61331252032566
H           -3.91002230896808       -3.66821457010524        2.98465107125558
O           -3.92366402014533        3.22002069660590       -3.37760251315771
O           -5.67112655223413        2.14859331062730       -2.40386613929295
C           -6.46266804230325        3.03154053758787       -3.10837666185417
C            3.65789390855790        2.27504852666259        3.13082435637712
O            4.47223955088839        1.59021674270984        3.73638273400710
O            3.79151709132724        3.62945039389171        2.88393228434968
C            4.89830489108462        4.05298743671932        3.61229753501217
O           -3.25879894476683       -5.86688072496723        3.75992249864545
O           -1.00670378034856       -6.15699251605277        4.00178117721888
C           -1.20894433680681       -7.48741774477538        4.52583837285908
C           -4.96715021089675       -1.42174692245071        1.53668960517551
C           -1.98184100101980       -2.25294028262294       -2.37713753379728
H           -0.79993955796084       -8.17011262302228        3.82577492291444
H           -2.31277832850316       -7.57111218292103        4.80653193745602
H           -0.70134739656255       -7.72459282465351        5.52030634335580
H            4.58466837861043        3.77789981648002        4.62405856276147
H            5.24634221082600        5.06572875114419        3.18021694685871
H            5.80877368026105        3.40681089208815        3.54661360559142
H           -2.37252621460692       -3.30070728131229       -2.65801225315699
H           -0.92027110085535       -2.33500874298943       -2.55014513618968
H           -2.55084487353640       -1.58330895056161       -3.11666159873408
H           -5.30479754181361       -2.42683800270429        1.75829969639122
H           -5.04454817607733       -1.44547675987541        0.37911986889234
H           -5.80313361664836       -0.87346705033958        2.15025048408004
H           -6.14086055816649        4.08542488177409       -2.92269000925886
H           -7.45739053105310        2.77646752867849       -3.08969425096486
H           -6.12562606836064        3.04706419421012       -4.16392079195920
C           -0.99120161286886        3.71157717678597        3.55951161738726
C           -1.29808704095533        2.42730165493028        4.06357310007378
C           -0.44062309573587        1.88980758786170        5.05755666635455
C            0.84553514165980        2.48325178962834        5.25549277394711
C            1.14574129790687        3.74340636942763        4.69051142876706
C            0.19533449689003        4.34901354812350        3.89567731110863
C           -0.84207836621576        0.72429604513561        5.79391097657374
C            0.22355279768814       -0.04138681136219        6.25484343172626
C            1.52940537560175        0.46253556481764        6.16843484834171
N            1.79300945896135        1.78362978274441        6.00142887802340
C           -2.23503009510039        0.33937265201717        6.07872869930694
C           -2.36881059957818       -1.03846510553158        6.34934741745058
N           -1.24181100942395       -1.86147984542740        6.51104389602263
C           -0.01221457300885       -1.38428900529818        6.60608747000328
C            1.04186502589242       -2.08826752836703        7.17409635700183
C            2.33582214147311       -1.61498109811958        7.24418420923291
C            2.56734932396582       -0.39089863755558        6.57558703679844
C           -3.26779937893071        1.27445971777323        6.28994093136653
C           -4.49537375559502        0.63876133549984        6.08312621221475
C           -4.74906570767837       -0.70744517022452        5.84964600245248
C           -3.67869290146255       -1.50723071958913        6.29753519023493
O           -3.14251522717454        2.60915921513292        6.56135810969068
O           -2.30836179594956        1.69697134112279        3.54524273010060
C            0.58768402174837        5.51681796744914        3.06806079009283
C           -6.18821348975505       -1.13075356619610        5.71488282226511
H            2.04349745730639        4.35174546706424        4.58344855375999
H           -1.55170430950740        4.07858192123322        2.77917020662960
H            3.55892713299609        0.10924869341821        6.53312762611575
H            0.70914569593579       -3.04078568894898        7.66496524234640
H           -3.87593095290962       -2.60327919045570        6.28068685522831
H           -5.45425078179236        1.17600506097855        5.83843565346751
O            1.35049952106253        6.39161901735798        3.53628044235822
O            0.10329653272497        5.42567032033313        1.85218329109306
C            0.42091835850084        6.67940467133181        1.18339882744297
C            3.40462495888638       -2.40244265567688        7.84881658089654
O            3.13931599830458       -3.54377171842779        8.17622750619191
O            4.62128569382496       -1.76726862931575        8.27894973610919
C            5.38022395755743       -2.73141016401353        8.93129048238353
O           -7.09466941318186       -0.24387412801781        5.81790739429928
O           -6.54666185408146       -2.44823517121226        5.72605534510942
C           -7.90527341205516       -2.50726303398971        5.43307499192783
C           -4.33057947536959        3.24032437472673        7.00078836935642
C           -3.47847078895089        2.33358311132785        2.91660151222878
H           -8.07058484496535       -2.31331934469756        4.35703820164032
H           -8.39760004417342       -1.72286709413506        6.03693833679266
H           -8.39291493336896       -3.42798422944166        5.74806292960805
H            6.34874860644269       -2.27214936052222        9.16256241267651
H            5.47869437460095       -3.56349816998595        8.28960059577973
H            4.84015604488757       -3.07593051869188        9.86179664493679
H           -3.24480496509241        2.76147799859248        1.92878977754880
H           -4.08605348967201        2.97279115470071        3.69766495042406
H           -4.22800920200526        1.45686753157858        2.72554385262773
H           -4.97142069495467        3.47396147559288        6.10049492767112
H           -4.00010777550207        4.18369919257742        7.50812527452297
H           -4.70514104705338        2.67824029453949        7.76450370200704
H           -0.39630696636912        7.29252382005836        1.37042838522468
H            0.28811251803602        6.43913618074570        0.15432273980412
H            1.30789676595967        7.15784903595359        1.62952241076310
116
 energy: -22.840105504345 gnorm: 0.400873598735 xtb: 6.6.1 (8d0f1dd)
C           -3.28626313622980        0.00114951228990       -1.72406914560581
C           -2.58465830386690       -0.55765073476404       -0.57043103664760
C           -1.59798913679656        0.29333191651037        0.04771833102138
C           -1.50466800664815        1.66841123272416       -0.40307672529349
C           -2.19571753701327        2.13504281624451       -1.54323881884338
C           -3.05796855462025        1.29160023567806       -2.15550573071353
C           -0.98556260540615        0.00129551042782        1.28893187393560
C            0.22101030600867        0.69115337308668        1.55924229707637
C            0.41354119871918        1.90111674833683        0.88213522984165
N           -0.47674180538240        2.48135063156329        0.09782093371878
C           -1.27878290716892       -1.12739894682211        2.16829102763215
C           -0.13504774731924       -1.73276424606323        2.85284982942507
N            1.10762155818250       -1.16903414937823        2.91368132249040
C            1.26092183017912       -0.00370996948452        2.33030829659888
C            2.49155060141541        0.63916066664265        2.47615313677956
C            2.55961051475788        1.94138888570602        2.07240303294702
C            1.67534933040319        2.57687803282900        1.14929400321464
C           -2.66029987461324       -1.61150038374219        2.36412567979764
C           -2.75585661723816       -2.80216890439396        3.07652287371878
C           -1.76711681471663       -3.48503617512477        3.58282355475431
C           -0.47877109159672       -2.95215267801125        3.43500718689559
O           -3.63036440856001       -0.79097405723592        1.90028683085121
O           -2.88233015426237       -1.85635492594443       -0.14490199238714
C           -4.06401803082619        1.91477565056153       -3.07891155117363
C           -1.83294947988154       -4.86121577354790        4.13732109557006
H           -2.24633636076380        3.14797449676406       -1.90348619074378
H           -4.09827078135638       -0.42311389347236       -2.29216672870065
H            2.05320048412936        3.46249449202260        0.68376824269583
H            3.29211148785862        0.16092409169631        3.10161183125958
H            0.37302086613476       -3.48059033976831        3.75287142915436
H           -3.70922976051183       -3.30489305124580        3.09770953808879
O           -3.72737329089477        2.86545145849707       -3.78007804031939
O           -5.29354356136505        1.46398236563490       -2.96325478100690
C           -6.20158384966714        2.11668268462361       -3.81980374396797
C            3.84393259440162        2.68368465431390        2.32461192350576
O            4.50842727275482        2.54532874554062        3.29446845561141
O            3.93356882295552        3.70297773130353        1.43461494968051
C            4.64888019174405        4.88566988996399        1.85365986634401
O           -2.96641601360002       -5.35001822751118        4.27424730481406
O           -0.63318433482749       -5.41891857417165        4.44060710537785
C           -0.82031232905587       -6.76291502741816        4.77271422717284
C           -5.03802666587982       -1.09230835025998        2.20339230666621
C           -3.90946193285144       -2.56645321742517       -0.66590403874851
H           -0.03072093384876       -7.05589893990669        5.39943824376914
H           -0.71325955669111       -7.25938880260458        3.85034508323179
H           -1.78007541082018       -6.84447281616591        5.33091967376289
H            4.21536432300446        5.25255661803919        2.79637356366998
H            4.69243734802242        5.51188659758441        0.96117075712172
H            5.58791500102972        4.43411306359234        2.19182739396214
H           -4.81301308861213       -1.95878674215089       -0.42777518488504
H           -3.96696426138739       -3.51541949757597       -0.12155291665150
H           -3.87162305397418       -2.74292088307132       -1.81988709922168
H           -5.06981113023783       -1.68444948511306        3.16823054780732
H           -5.63472539530999       -1.38182800806945        1.21094964016087
H           -5.42586544482754       -0.07440405648577        2.59702295130742
H           -6.09908642844242        1.76956048903528       -4.83709452455170
H           -5.93629567538772        3.19861418806919       -3.53150419664231
H           -7.29107556993142        1.96048043753281       -3.71996998155280
C           -0.70565469181592        3.95595733615810        3.99076342432286
C           -1.24597061893902        2.77728493640616        4.41378526498586
C           -0.60094089311566        1.97108306387876        5.45951315460882
C            0.67408144530483        2.37746732785963        5.96096513789846
C            1.08298718413569        3.65625799559121        5.55397578843182
C            0.43885077815918        4.42319247896577        4.63160681409233
C           -1.01880288553927        0.64378873733915        5.88887481931644
C           -0.04660535169987       -0.15738020583343        6.50328010659404
C            1.28782506836704        0.36800603615152        6.88867700898586
N            1.61807023195755        1.60373487802694        6.50584741410493
C           -2.31356356052957        0.02711368544697        5.75424725059234
C           -2.50392973967297       -1.38995977915771        5.94017139507242
N           -1.45138963513805       -2.18206427481834        6.30100361197741
C           -0.28299456355490       -1.60467597027941        6.63846408067112
C            0.76015642784286       -2.43772460292187        6.95884572677524
C            1.94255178412084       -1.89082630361142        7.27851618074630
C            2.27562780620150       -0.54674341919929        7.21195572676323
C           -3.61541976849733        0.73364166637625        5.64069826694994
C           -4.79351456956244       -0.00019987661977        5.49643845137655
C           -4.92233095685082       -1.34436910550001        5.71735777149235
C           -3.73753296805930       -2.07778944593110        5.76582527189994
O           -3.59036518407629        2.07026732494500        5.99792313061886
O           -2.31447963721438        2.16598007352346        3.70267028651184
C            1.15448606936587        5.58990035105084        4.03668632165952
C           -6.27301255438496       -1.92930325813456        5.98718457531429
H            2.12127828057225        3.91418501760505        5.63021824316503
H           -1.14502346110323        4.55647227379216        3.27192849443101
H            3.17576439985411       -0.21697984305150        7.74207155609307
H            0.67053787819188       -3.53280425318888        7.00769489280146
H           -3.67518810559498       -3.17225872419032        5.97445894653836
H           -5.78159061046444        0.51846910860576        5.31231178770987
O            2.33007271658036        5.67146047799570        4.24558627954189
O            0.58049981579359        6.48730792178661        3.03122703340243
C            1.56489790935274        7.25937831062406        2.45931615654931
C            3.02083653765884       -2.87077202974514        7.71042253573797
O            2.96575569501782       -4.05937681724020        7.48159355388732
O            4.14278533234801       -2.35534170654223        8.28985255095544
C            5.11471996986871       -3.29096389380413        8.55216280106970
O           -6.71657275832980       -2.18269669778743        7.15047614412120
O           -7.05645942982034       -2.16193024605126        4.85566214503124
C           -8.34805074370006       -2.74107045550316        5.20222433528033
C           -4.70776538391024        2.75783445691238        5.54262846125330
C           -2.80067626580649        2.77331499594520        2.55973324757144
H           -8.35216568568820       -3.03170270450868        6.28263811393076
H           -8.42209806117597       -3.69813225114889        4.67357982238261
H           -9.17213086914764       -2.20361696519815        4.74351058198788
H            5.80717168517076       -3.50338807399188        7.73699294849156
H            4.60807078636672       -4.25081302416130        8.69188987558810
H            5.65725349068075       -2.97737942966448        9.45846445963923
H           -1.98054222667935        3.19916021608541        1.89408073741605
H           -3.27524739476536        3.76417879510896        2.91031311805240
H           -3.66978886477981        2.20470486855195        2.13815927936762
H           -4.88050974192697        2.23354553029350        4.64558985407119
H           -4.62933890805764        3.79628961052862        5.66386019125469
H           -5.54265936900162        2.47572304622981        6.26025073672385
H            1.11132775687622        7.43988857804559        1.38557666450133
H            2.63805652499685        6.79279646336291        2.67910056017880
H            1.49289380340828        8.29609166084265        2.84717735226537
116
 energy: -22.853370596622 gnorm: 0.398421523710 xtb: 6.6.1 (8d0f1dd)
C           -3.47990214208872        0.00256703657778       -1.82194307562613
C           -2.50988793305507       -0.61811434023804       -1.09011429503150
C           -1.67361474612741        0.20838922508410       -0.24592267226244
C           -1.56824879670149        1.62063160561448       -0.55480965564988
C           -2.48362224504989        2.16035563516280       -1.45305859782512
C           -3.47162198938147        1.40667418588355       -2.06469015404698
C           -0.95148408619697       -0.14451901928224        0.94437311840741
C            0.12930422381991        0.63047290348259        1.34875721975349
C            0.39949431412391        1.83566060391452        0.68745834759997
N           -0.50380579226838        2.35109785151318       -0.21785986857561
C           -1.37527910531984       -1.17147665117515        1.94575530197622
C           -0.29880734513302       -1.70609922129933        2.79920529146412
N            0.96160650660338       -1.04298133596470        2.93260396257721
C            0.99945003397589        0.16237041636365        2.37803779492682
C            2.06150743405220        1.00393411377994        2.72314573015717
C            2.39429757540128        2.07974269458244        2.00631221920328
C            1.52547602665111        2.49016408334572        1.00891873817068
C           -2.68874012582476       -1.75051990119835        2.08046619101910
C           -2.78029566443111       -2.83421990481359        2.97315309303028
C           -1.75260955483102       -3.33587983394652        3.72794371514844
C           -0.49552944680870       -2.82900748592222        3.60789517848088
O           -3.81673016970812       -1.20666150482043        1.49001513708848
O           -2.38588858554629       -2.04695394455913       -0.89387859604855
C           -4.33309329088646        1.99982359411699       -3.04262846848774
C           -2.10031568634383       -4.36196860590822        4.74728569736606
H           -2.51927620793859        3.16097711124381       -1.85664186506252
H           -4.30102811349423       -0.50952434071100       -2.27327510520736
H            1.65789117566572        3.40994041735415        0.60836787927427
H            2.73268415290580        0.69930067051803        3.59282542572523
H            0.14073675103893       -3.29532866809902        4.31366890329873
H           -3.81680508883212       -3.23678848754306        3.20299960537900
O           -5.07661382712608        2.90670065081366       -2.76588772901221