116
 energy: -22.928061455056 gnorm: 0.329736929581 xtb: 6.6.1 (8d0f1dd)
C           -3.31122850772930        0.79849766164622       -0.92477639677520
C           -2.44380812530352       -0.12270372891954       -0.27661132624697
C           -1.41337090092821        0.39579727573559        0.56335275196199
C           -0.89266158675590        1.65801491088749        0.27377586709581
C           -1.72665675402493        2.51431363229076       -0.49448366572522
C           -2.95444148494349        2.13954154133227       -1.01494489940871
C           -0.74098268209890       -0.43411532818871        1.49825021926784
C            0.56872586496315        0.03782116815119        1.86248088067890
C            1.03782416582094        1.29402317993033        1.50887470833621
N            0.31238977034758        2.07067427098208        0.65193736800696
C           -1.29695700510141       -1.39996043042223        2.41574187746061
C           -0.38243517664656       -2.18060797534842        3.13232615520648
N            0.91308504082021       -1.90366887689689        3.30325166013478
C            1.37712470144904       -0.74872102533751        2.81811050966982
C            2.52149331701875       -0.17739833758153        3.39379298866852
C            2.95849061756259        1.02681208890480        2.95105897606587
C            2.24288949469137        1.78498308775960        2.03503020483770
C           -2.74860936222260       -1.74497937691422        2.38401158947411
C           -3.09416315450955       -2.91614440870436        3.00571134491758
C           -2.16786021984049       -3.77788778654213        3.63251872101904
C           -0.85708937311598       -3.40495313382985        3.68547234358092
O           -3.71994433332149       -0.94984598373544        1.67726658385724
O           -2.55702603277562       -1.47241711578389       -0.57241635275616
C           -3.84297843593025        3.13357444054366       -1.60938954875544
C           -2.68769581069131       -5.03867041417370        4.30484659386931
H           -1.39666850744143        3.51251503834900       -0.76806311868865
H           -4.27662633836220        0.55105838579656       -1.33106614114542
H            2.66329581305412        2.73912661909249        1.72562431984580
H            3.05775395548473       -0.69369546277216        4.16536137542516
H           -0.24710966264510       -4.12034095424229        4.22946223699121
H           -4.11477991332403       -3.04712728052358        3.03244694615357
O           -4.21824883374556        4.03433712717988       -0.87713382485991
O           -4.44510595673734        2.90643496899600       -2.81853501752979
C           -5.44216520282800        3.83300025693726       -3.02488532025093
C            4.23586651889298        1.50004220933226        3.59165660008449
O            5.05927614697201        0.66079890002952        3.91714215179376
O            4.47001334453535        2.86385149488593        3.72605651435371
C            5.79457498613219        3.08584475587818        4.15829123132174
O           -3.82227255313510       -5.27347675879771        4.16636005494405
O           -1.85023202017753       -5.79767454267276        5.06656077253571
C           -2.55119635829503       -6.86252441382958        5.62930343183426
C           -5.07197156564436       -1.42399175670916        1.58830531863830
C           -1.33089900128490       -2.23622472573986       -0.99264499351172
H           -2.54510546830388       -7.76426885143998        4.99136022291012
H           -3.57194749219491       -6.44405511486021        5.74196173723541
H           -2.09133598235598       -7.02043774843818        6.64022264233588
H            5.72707967266424        3.46798026205549        5.10135971236643
H            6.34060091246885        3.78468702308830        3.50069950143490
H            6.17933064298187        2.03010500085905        4.19342358084693
H           -0.91862729772622       -2.57650129080332       -0.01361370304871
H           -0.49769766914251       -1.60651221708571       -1.34094446550576
H           -1.52632419730509       -2.94569707152159       -1.75361447637286
H           -5.11788846557077       -2.41810833635233        1.17520213188926
H           -5.67929807973498       -0.69619639428435        1.04301666067831
H           -5.57598832326623       -1.42383358739762        2.57928294206544
H           -6.13050215934830        3.76035386975488       -2.23272855695873
H           -5.86615610071888        3.45938329385866       -4.02668959924245
H           -5.13479557532099        4.87790991548477       -2.98314551356402
C           -1.38192942069774        3.73616555005018        2.91232598411686
C           -1.84821468128685        2.59982427735607        3.49755545445181
C           -1.05946531454833        2.05730632010638        4.60922730982276
C            0.19893954712228        2.69376791964407        4.86302140881997
C            0.50425395911860        3.94630308659851        4.28768785650746
C           -0.26031777722226        4.46998310053134        3.25072669343212
C           -1.20488993561782        0.74454293276906        5.14851520323437
C           -0.06287609782692        0.02744069315890        5.60930570802864
C            1.19208754369866        0.71421540266195        5.78882868583885
N            1.19428660993148        2.06344359410476        5.62744624321596
C           -2.41361422770794        0.07928500213936        5.25249410304426
C           -2.45851584031083       -1.32662100968547        5.60237876023992
N           -1.29466212405906       -1.98318595734370        5.89916817085159
C           -0.14475655767527       -1.32117560077092        5.98824682881008
C            0.97209270935794       -1.98958449505532        6.53157704134458
C            2.21982707914082       -1.36973967291181        6.68703967237737
C            2.30561929262884       -0.09745313075593        6.26436900324455
C           -3.73018485967715        0.71367583494582        5.25810242262992
C           -4.89964478833448       -0.06184623426677        5.21204641615509
C           -4.82617965800088       -1.39228978090841        5.46901303780036
C           -3.67144193418464       -1.98914944386360        5.67265433266067
O           -3.75568638935321        2.07705011038914        5.52067969627343
O           -2.94192434743730        1.91263938797883        3.01658762327703
C            0.21273512614467        5.50086066357994        2.34765104514621
C           -6.06660304520411       -2.17604633098929        5.80641622556876
H            1.41756699010566        4.38133362238595        4.66974005703471
H           -1.82880610647429        4.11982501512100        2.06992133318584
H            3.26888037378556        0.32655662585251        6.31721410015598
H            0.87146188387207       -3.08471526305024        6.57830423410869
H           -3.67716811065157       -3.05999292755990        5.83019634570050
H           -5.77379677507622        0.43595144608221        4.71017130754348
O            1.34459852619901        5.82615848916894        2.44941456579099
O           -0.74718748219123        6.07961784856304        1.59848183464284
C           -0.21473095568964        7.24015934882472        1.05753806029483
C            3.53228080814219       -2.00967610361154        7.02506769044485
O            3.64093082622715       -3.14437803815732        7.50071391725347
O            4.56565258381079       -1.22937033368332        6.69086985080897
C            5.72579357310716       -1.80692399125161        7.22246151275881
O           -7.04801223588612       -1.95726935745904        5.14194115322235
O           -6.01514389321278       -2.93743591896022        6.94765316328794
C           -7.21292732384718       -3.62681918543340        7.15115816329978
C           -4.95459780685163        2.65960679932188        5.86868674392943
C           -3.68284113682406        2.59129188358641        2.05479246020704
H           -7.43119628931628       -4.22607794725959        6.20622607140901
H           -8.06548455146707       -2.91765848248592        7.29781126410398
H           -7.07314693247270       -4.33087306029711        7.91223421050944
H            6.57332189837178       -1.29353136199234        6.78341268688262
H            5.74663761932316       -2.84282155125561        6.88089468184451
H            5.69426191474290       -1.72781984964892        8.29460302186842
H           -4.10481209541493        3.44288266176275        2.60483747673152
H           -4.49244774344916        1.87419893016926        1.82433103764650
H           -3.18901540870812        2.85154642679373        1.06781919454921
H           -5.55414326821421        2.76698137191684        4.93950725322359
H           -4.78658370641210        3.62090640967288        6.25983200635257
H           -5.43485580473958        1.97242995129449        6.65265772412460
H            0.89164886030839        7.38838561720231        1.13776105146914
H           -0.62894889903848        8.04195665205089        1.64837664327952
H           -0.59282546386754        7.45699159724320        0.03719083132488
116
 energy: -22.835312272937 gnorm: 0.421201688510 xtb: 6.6.1 (8d0f1dd)
C           -3.16086028075379        0.96015062502652       -1.19960714761997
C           -2.51932502178648        0.15054592372557       -0.28537029375376
C           -1.58565458804796        0.70874687782007        0.64149116972454
C           -0.99924293522372        1.91946930968530        0.24937275951398
C           -1.58576766422758        2.69544836778022       -0.73870179624916
C           -2.64820009107722        2.19843091284528       -1.50641159529146
C           -0.98612620231421        0.05026719615359        1.74956814557749
C            0.39597457249455        0.41038850697074        1.97428664185280
C            0.92459839265989        1.68304160358937        1.54859685228547
N            0.28537761703284        2.45109648452582        0.65668955929485
C           -1.42655200770294       -1.15216536072544        2.49948235347898
C           -0.39306937813271       -1.95465281920554        3.09944703873018
N            0.84550473487783       -1.48342067385401        3.29245732546800
C            1.27898856795957       -0.37218391561740        2.70347491507292
C            2.55432444189848        0.03604119197328        3.11004815652461
C            2.93627038050459        1.26707039900088        2.67126653471471
C            2.14274132781554        2.12738253713521        1.99164144628096
C           -2.77588504245326       -1.64598380216373        2.49817952478152
C           -3.02073750052042       -2.92877260952636        3.00447534167390
C           -1.98799158014956       -3.72801072856144        3.40140416788457
C           -0.71557125564674       -3.12890074444927        3.63442701810967
O           -3.88095834485460       -0.81370831619578        1.98203187347108
O           -2.87798795299626       -1.22653978018956       -0.19879908307336
C           -3.30194106057678        2.99185045369143       -2.51937012543513
C           -2.40042830030324       -4.92310906918291        4.21886595717819
H           -1.09838253690267        3.63676733922322       -1.07086244274282
H           -3.78606624178892        0.36341784168027       -1.89610081564396
H            2.42918265403243        3.10457468681709        1.78139426938351
H            3.15269337031132       -0.49073383168415        3.81051627615272
H            0.01628318519359       -3.57923897540662        4.11142626606764
H           -4.00652312103823       -3.26376657263760        2.81381122472378
O           -2.65358832236631        3.93255271342753       -2.95429649702355
O           -4.66179806097087        2.88195307015409       -2.74598679699911
C           -5.05115967181462        4.04558226898553       -3.49415536328054
C            4.26234026413490        1.48865938804628        3.31141041823248
O            4.78996697264590        0.64072337107273        4.02045804473130
O            4.98262366104770        2.57243683934922        2.92718824109977
C            6.12752237747795        2.70777510215439        3.75168054122521
O           -3.53658861504992       -5.39579910752350        4.06701838479091
O           -1.46720678368479       -5.46506630503677        5.04185399303801
C           -2.08134032001610       -6.39635004307178        5.97744755781601
C           -5.14075394253078       -1.08993352265734        2.55085225729730
C           -1.81614647783652       -1.96586073526504       -0.85827839904860
H           -2.96611566642948       -6.73344429182473        5.48100442972185
H           -2.27548230676290       -6.00626837223574        6.96825105625119
H           -1.33007250247541       -7.18168139818052        6.10408663663075
H            5.65244340839657        2.79920702185403        4.63876275889013
H            6.73789701451584        3.52287219144096        3.59267942554183
H            6.50153797354869        1.62960700798965        3.89229976666738
H           -1.95598818920472       -3.07196903758781       -0.95385269696585
H           -0.90353465556611       -1.97124181062918       -0.28771223555325
H           -1.35198539301285       -1.47150395329801       -1.72562596709710
H           -4.87291234098326       -0.95761199254858        3.61778892818249
H           -5.63050035812066       -1.95705160110247        2.14327636381756
H           -5.83111226144485       -0.28655713749229        2.32184770191057
H           -5.26641467818220        4.92010574700993       -2.79669776379015
H           -5.81689334651129        3.64772929899149       -4.12288539300928
H           -4.24333603591311        4.27563541057306       -4.15424638222976
C           -1.70698303008579        3.67848557104696        3.46444035095105
C           -1.88049455500626        2.39454595152208        3.90817340239661
C           -1.01854674156420        1.85975057066750        4.89606707386869
C            0.26326245869850        2.41419173861452        4.89685292261343
C            0.64698443947452        3.57802857275997        4.14277828944955
C           -0.42037183594392        4.24684575914530        3.51543290774809
C           -1.22757818251748        0.65441855443752        5.57857944562326
C           -0.10884058036676       -0.14045159095751        5.88995509451155
C            1.12937437130742        0.53555475852346        5.83681398894966
N            1.39214673456299        1.77518896521060        5.44829372577756
C           -2.54763084127681        0.09843088510930        5.90869685269421
C           -2.53685864062593       -1.23141041402894        6.34609170149063
N           -1.44356858590265       -1.95683244133704        6.57914658142894
C           -0.20860564678799       -1.39341887156579        6.53498054002812
C            1.03098873541057       -2.04424618526655        6.71060350510658
C            2.22974400730292       -1.38359432073218        6.65924409844906
C            2.27484183482516       -0.07715032769903        6.30989788084833
C           -3.71618955306164        0.87088654013240        5.85516508895194
C           -4.90914209303956        0.20429379140577        5.90708914317420
C           -4.92375439452538       -1.17373477016432        6.00024243211115
C           -3.79843812257636       -1.86271962540895        6.39726658118937
O           -3.72213537017411        2.30421456054437        5.87186526137389
O           -2.86519332032196        1.54181188079212        3.45446723548916
C           -0.29444497611611        5.23361264845596        2.47280419324613
C           -6.12432648078769       -2.00649251567590        5.68268686958555
H            1.59974999736373        3.88425395869549        4.03875408210626
H           -2.40648707150215        4.16772506054689        2.78483138128461
H            3.14427515050829        0.49844945596422        6.18928396233261
H            1.04953877672753       -3.10953437818234        6.95624931878622
H           -3.82909409911487       -2.98715134264812        6.32497694004665
H           -5.85204182883094        0.67981453604568        5.86274684871936
O            0.69631347781640        5.87036842922310        2.20257442762099
O           -1.50581197412102        5.39348766345230        1.86775326509943
C           -1.43888970149413        6.29868329752547        0.79005328027989
C            3.42848782317511       -2.10693383709060        6.97867259078480
O            3.32116076508284       -3.21084506623574        7.51042495115104
O            4.73172472979155       -1.56286350766284        6.71494620501942
C            5.52475298464026       -2.46486329888336        7.35395318906512
O           -7.22245845585517       -1.39539412989303        5.58334774834765
O           -5.88584193079960       -3.30719483340527        5.63247355008528
C           -6.75741273776648       -4.06472834058023        4.79684727345839
C           -4.75136628694818        2.91182923961973        6.59280810279998
C           -3.54079114057674        2.03335202528341        2.33776577695107
H           -6.50189348910110       -4.07359452723908        3.67535073517457
H           -7.76415499421212       -3.63153051721838        4.87133801822159
H           -6.89831035879287       -5.04362111519670        5.19058524763989
H            6.59897536713827       -2.06312247527124        7.25289145204446
H            5.35545932040164       -3.52279416467151        6.93978720204045
H            5.26166757392767       -2.37790175243041        8.45140130631374
H           -4.13710780068867        1.22578242968997        1.77549144052490
H           -2.77932147812686        2.39851726228120        1.57581115229843
H           -4.16678789685602        2.94907663880880        2.47608826952066
H           -5.79519454283305        3.09919380658228        6.14676009790909
H           -4.34665590379368        3.89443047500971        6.93129874256441
H           -4.78203380017115        2.29890564757079        7.50475531097938
H           -2.14412401293364        7.03993140354972        0.86090544116751
H           -1.63576051817001        5.76671852776463       -0.13739690940441
H           -0.46584624006666        6.68462290566615        0.85819201078198
116
 energy: -22.853867226689 gnorm: 0.401691504484 xtb: 6.6.1 (8d0f1dd)
C           -3.38575006388642        0.33829163178321       -1.00889744675157
C           -2.40856321495885       -0.48487865294365       -0.36014400595110
C           -1.53022557136777        0.18886171870684        0.52792638059211
C           -1.30430886506553        1.60528408996621        0.44885645558126
C           -2.08661979229611        2.27155494909055       -0.47887599433877
C           -3.23570582678441        1.76643528434997       -1.06533237371693
C           -0.88727441023707       -0.53837802461624        1.44141808678705
C            0.26219677500396       -0.00608394060461        2.07030805235183
C            0.58328054539261        1.37126652935077        1.83137735354761
N           -0.23481055570203        2.15084290963790        1.10095869075027
C           -1.35174349681868       -1.70201234801837        2.23171746317992
C           -0.31340035091972       -2.52900705379822        2.81175497061077
N            1.05213038326237       -2.22929893148086        2.88238925755750
C            1.23262017700011       -0.88369370559352        2.75369830023497
C            2.45730604332581       -0.33482764803520        3.11460811432414
C            2.80785508533569        0.99244769455993        2.86764360427076
C            1.86397213509004        1.85773511188020        2.28715875429375
C           -2.75690939057091       -2.08520401175595        2.38673025996837
C           -3.09242689661076       -3.25181381314735        3.05352628646618
C           -2.03452998763655       -4.13351746479944        3.47811076009012
C           -0.76421941952724       -3.77686589701378        3.34814616809493
O           -3.66297694260226       -1.19699712154549        1.93327923469207
O           -2.35608201016321       -1.88507571231183       -0.59824534811892
C           -4.25252295832936        2.56170030186940       -1.73722452730178
C           -2.40308013430239       -5.44459849885383        4.11286901391876
H           -1.87852884744364        3.32153770716760       -0.45936286363946
H           -4.20396243422203       -0.08418685208244       -1.68244756614613
H            2.02759445018690        2.91413626331734        2.37839470262970
H            3.19556278626883       -0.84495091015365        3.68035669403367
H           -0.10521463439111       -4.41258601100202        3.92756409745030
H           -4.13957523346948       -3.39775466629268        3.21537549645719
O           -4.90368638708456        3.38183305786631       -1.14329292615145
O           -4.23685160320282        2.41482924721224       -3.08139786152389
C           -5.14483262947673        3.08094098103387       -3.87102518833729
C            4.21602179309321        1.40671537731297        3.19335033571341
O            4.95698054919743        0.63862218527072        3.79999985876323
O            4.50623396918709        2.66478798593842        2.92154903392760
C            5.88264235656006        3.00220450440322        2.98179691533192
O           -3.59512223213877       -5.66246245684903        4.20150662131717
O           -1.36947383998804       -6.26127848493779        4.57790380366283
C           -1.73364016449592       -7.53111584407114        4.70271916505613
C           -5.12220766069543       -1.58430632738163        2.13257938578678
C           -1.11613629339503       -2.46006227421273       -0.92672427539547
H           -1.28944682529095       -7.97066401366012        5.59659020462535
H           -1.54928514257778       -8.18768271383806        3.85545713952175
H           -2.87322950256444       -7.63032868831479        4.92010022113540
H            6.19127360176660        2.89310311180543        4.08047002329080
H            5.87110811149649        4.13210773098299        2.79987502176246
H            6.32633600230246        2.24008163316638        2.41440151851677
H           -1.02128313452612       -2.41113747723930       -1.95735293551787
H           -1.12967165811796       -3.48435187608568       -0.68835272863299
H           -0.37325309756377       -1.89799787934090       -0.32409500310423
H           -5.40460648815335       -1.90824817180828        3.06587189860281
H           -5.30115464190570       -2.45429313898651        1.48087864300470
H           -5.77801079428992       -0.73214999328126        1.89707214462512
H           -4.71155292325030        4.02668187153201       -4.25561928572214
H           -6.09685426807222        3.35487737138897       -3.34328905898064
H           -5.44654537706872        2.33772825902146       -4.67017124592480
C           -1.39604306644023        4.21803812743491        3.29108601298763
C           -1.81144164919884        3.02875576310396        3.90924073904415
C           -0.90479540315295        2.42541454876604        4.88097292390103
C            0.42790433841382        2.91301893679528        5.08943282965788
C            0.73682505924764        4.14163424161717        4.49601947053170
C           -0.23898019975054        4.79381578550627        3.70378432616636
C           -1.14203371276771        1.19098382649016        5.58046574284517
C           -0.04552027854447        0.38961067642207        5.95038322403227
C            1.30367551534375        1.00224618169315        6.04385086111528
N            1.51551600153540        2.22257523265655        5.47267685502149
C           -2.42736776329915        0.49784533801953        5.75321501898473
C           -2.48667361474689       -0.95249990093683        5.85163266995826
N           -1.34134637582276       -1.68749211990637        6.06343489184670
C           -0.17721199563494       -1.01871812286038        6.26316747079743
C            0.89182452608365       -1.66483011684578        6.82045320450354
C            2.07401337316726       -0.98265983921207        6.88567605063984
C            2.40124665032652        0.32938733615359        6.49121168564652
C           -3.72850779152235        1.19694424350657        5.61302691421727
C           -4.88612985082137        0.39675067548165        5.54902756128087
C           -4.82113526669182       -1.00767643865293        5.47753265965785
C           -3.65987809156042       -1.68389902420777        5.72025147031496
O           -3.85262531577302        2.60638614431172        5.67120897780966
O           -2.91723034997634        2.40607504753505        3.43933691013325
C            0.17723321137151        6.05027913051196        3.04784347775500
C           -6.16066723184671       -1.68718857639637        5.35336138521259
H            1.72110294563970        4.36611701914960        4.26556190864017
H           -1.98282375878692        4.84932001140590        2.61192361467322
H            3.30426881639829        0.86897364777253        6.61505670866649
H            0.85621820562014       -2.80194021341517        6.95370763918442
H           -3.51947773273206       -2.77264155963095        5.98463746746558
H           -5.75432236975497        0.95846707233048        5.39609960766616
O            1.34169945471942        6.45443143767957        3.19452933201323
O           -0.75737293783902        6.64280599747475        2.21017752480874
C           -0.02230585410807        7.41884391437654        1.36043997881368
C            3.13531430941631       -1.97319313340639        7.29694250911010
O            2.93768808955818       -3.06658581436171        7.79416150449181
O            4.40838688593479       -1.48468174955650        7.16611742068696
C            5.37628923392809       -2.40114696938944        7.48901253998819
O           -7.21906461462372       -1.18874691093907        5.54233236407738
O           -6.04427259686787       -3.03266779099881        5.11158806912657
C           -7.30224202723079       -3.69585040745037        5.17511188976668
C           -4.24363209020391        3.09305849698676        6.93898002074099
C           -3.70711424906524        3.07425998880904        2.55587287124445
H           -7.93080082854445       -3.06197473170224        4.46176665042107
H           -7.80188715418196       -3.47495824370426        6.12091839554318
H           -7.22486138133709       -4.73998033760198        4.95281557977844
H            5.03130721251081       -3.24003415043908        8.00790887633001
H            6.17080277528666       -1.92772881669750        7.98198032685519
H            5.89221383004937       -2.82146865460534        6.59794331272968
H           -4.32512565096308        2.30350089659865        1.95640889747490
H           -3.09366350666668        3.69905669239173        1.80230448506560
H           -4.36879085732848        3.74832006880368        3.13995341014408
H           -5.24870013574374        2.92931219439353        7.07374468866711
H           -4.12125204781249        4.18163271682112        6.72423267103581
H           -3.69284447464012        3.00927751126205        7.92072870076991
H            0.76776355351743        7.82123714373258        1.98156554787953
H           -0.68672582464983        8.13071014221513        0.67697412339761
H            0.38705898743988        6.63145483610750        0.69104777277397
116
 energy: -22.863597723485 gnorm: 0.382043081340 xtb: 6.6.1 (8d0f1dd)
C           -3.44235175939728        0.03878446459767       -0.91541512413108
C           -2.55542584880062       -0.80776598574683       -0.20910172718185
C           -1.48579399687176       -0.08187639131847        0.44343006929746
C           -1.08095270512773        1.26833838971344        0.14650634864013
C           -1.98583881471731        2.06039701260616       -0.52411145249029
C           -3.17618483260264        1.45822138773122       -1.05304757585950
C           -0.85723041040502       -0.68389689713424        1.60291894903370
C            0.46992438456407       -0.17825364653289        1.90558840848459
C            0.89652677997472        1.07816853073162        1.34321753115871
N            0.13150951000229        1.82271962908591        0.52950243928712
C           -1.36224980258914       -1.93459004898868        2.23575003063143
C           -0.31904991713171       -2.73954881144443        2.72044815458241
N            0.89274320759100       -2.31367832300286        3.01377536933267
C            1.30576049803295       -0.99865724361050        2.73167836217104
C            2.56006680350217       -0.54353621691171        3.07652420170555
C            2.87941186143863        0.78219151915297        2.61968939950303
C            2.07757686441102        1.53587389306155        1.81949061348204
C           -2.74503388686145       -2.35839104895179        2.38505195486364
C           -2.96200474752326       -3.69277564047519        2.70357714676317
C           -1.95721373590640       -4.59981407683694        2.95531736180259
C           -0.71333319843181       -4.09086779660267        2.98764169946056
O           -3.79576273258103       -1.41794939467612        2.22953666722566
O           -2.70654487199212       -2.16813735249054       -0.12990024094665
C           -4.00371418681497        2.36313805429924       -1.91425980658146
C           -2.27508607246086       -6.00773902986559        3.50454516729138
H           -1.85220746878958        3.11453104499284       -0.61881548096173
H           -4.33952669574137       -0.43631190476390       -1.31241791153844
H            2.19752646139956        2.60830507858985        1.75181704346562
H            3.15620828155153       -1.09547094540748        3.80619649756281
H            0.21369526842165       -4.74230511835934        3.28471039736902
H           -3.92320462999497       -3.93132344727022        2.92901161556812
O           -3.48040099657315        3.19154297046820       -2.66775455901818