202
 energy: -401.093705325447 gnorm: 0.234102405456 xtb: 6.7.1 (edcfbbe)
C           -0.40540000000000        4.60200000000000        0.46510000000000
C            0.09500000000000        3.56470000000000        1.24370000000000
C            1.50960000000000        3.43930000000000        1.43460000000000
C            2.30550000000000        4.58560000000000        1.14060000000000
C            1.73830000000000        5.64080000000000        0.40580000000000
C            0.41270000000000        5.63920000000000        0.04300000000000
C            2.13810000000000        2.28730000000000        2.02050000000000
C            3.39530000000000        2.53520000000000        2.59790000000000
C            4.03530000000000        3.79850000000000        2.42190000000000
N            3.55060000000000        4.76420000000000        1.62340000000000
C            1.72400000000000        0.90760000000000        1.95190000000000
C            2.54370000000000       -0.05100000000000        2.62990000000000
N            3.58580000000000        0.26770000000000        3.43160000000000
C            4.04850000000000        1.52440000000000        3.35770000000000
C            5.24950000000000        1.83310000000000        4.00520000000000
C            5.84080000000000        3.07350000000000        3.87100000000000
C            5.25030000000000        4.03130000000000        3.07260000000000
C            0.71750000000000        0.38710000000000        1.05720000000000
C            0.71010000000000       -0.97130000000000        0.76040000000000
C            1.52360000000000       -1.88040000000000        1.40940000000000
C            2.38010000000000       -1.42530000000000        2.37620000000000
O           -0.78230000000000        2.75550000000000        1.93310000000000
O           -0.26900000000000        1.09800000000000        0.40060000000000
C           -0.17090000000000        6.81180000000000       -0.64330000000000
C            1.48030000000000       -3.30930000000000        1.03130000000000
C            7.09630000000000        3.39450000000000        4.57950000000000
C           -1.74750000000000       -1.41730000000000        2.23420000000000
C           -2.44180000000000       -0.45540000000000        1.51980000000000
C           -3.33850000000000       -0.84220000000000        0.47090000000000
C           -3.35600000000000       -2.22710000000000        0.11790000000000
C           -2.55700000000000       -3.14460000000000        0.82740000000000
C           -1.79710000000000       -2.75400000000000        1.90010000000000
C           -4.36200000000000        0.01060000000000       -0.07310000000000
C           -5.36410000000000       -0.63430000000000       -0.81640000000000
C           -5.17980000000000       -1.97750000000000       -1.25450000000000
N           -4.17040000000000       -2.75080000000000       -0.82370000000000
C           -4.63400000000000        1.39120000000000        0.24470000000000
C           -5.99280000000000        1.82910000000000        0.19100000000000
N           -6.95010000000000        1.18720000000000       -0.50760000000000
C           -6.59980000000000        0.02720000000000       -1.09100000000000
C           -7.54090000000000       -0.62070000000000       -1.89870000000000
C           -7.30690000000000       -1.88020000000000       -2.41700000000000
C           -6.14450000000000       -2.54960000000000       -2.09000000000000
C           -3.65190000000000        2.38600000000000        0.60210000000000
C           -4.05890000000000        3.50120000000000        1.33240000000000
C           -5.40790000000000        3.78340000000000        1.50650000000000
C           -6.34780000000000        3.00170000000000        0.87690000000000
O           -2.18540000000000        0.82960000000000        1.92500000000000
O           -2.34500000000000        2.30070000000000        0.15370000000000
C           -1.02120000000000       -3.68960000000000        2.73580000000000
C           -5.85730000000000        4.91930000000000        2.33830000000000
C           -8.33130000000000       -2.54750000000000       -3.24960000000000
B           -1.39150000000000        1.74330000000000        1.10200000000000
O            7.61040000000000        4.48460000000000        4.42080000000000
O            7.60350000000000        2.43180000000000        5.40130000000000
C            8.74180000000000        2.92610000000000        6.02790000000000
O            0.67450000000000       -3.60930000000000       -0.02970000000000
C            0.70670000000000       -4.97560000000000       -0.28260000000000
O            2.13950000000000       -4.12790000000000        1.64070000000000
O           -0.44920000000000       -3.23590000000000        3.70730000000000
O           -0.97390000000000       -5.00590000000000        2.38850000000000
C           -0.06560000000000       -5.64010000000000        3.23110000000000
O           -9.46180000000000       -2.10240000000000       -3.28870000000000
O           -7.92870000000000       -3.66220000000000       -3.92650000000000
C           -8.98470000000000       -4.15380000000000       -4.68560000000000
O           -7.04810000000000        5.10260000000000        2.50070000000000
O           -4.89310000000000        5.69470000000000        2.90990000000000
C           -5.49580000000000        6.61010000000000        3.76650000000000
O            0.54860000000000        7.57990000000000       -1.25030000000000
O           -1.52120000000000        6.96760000000000       -0.51890000000000
C           -1.91970000000000        8.10160000000000       -1.21630000000000
H           -9.33360000000000       -3.36330000000000       -5.35500000000000
H           -9.79490000000000       -4.45120000000000       -4.01600000000000
H           -8.63780000000000       -5.01260000000000       -5.26410000000000
H           -4.72700000000000        7.22310000000000        4.24160000000000
H           -6.04420000000000        6.05190000000000        4.53220000000000
H           -6.18880000000000        7.23220000000000        3.19430000000000
H           -2.99970000000000        8.22570000000000       -1.11080000000000
H           -1.65380000000000        7.97620000000000       -2.26920000000000
H           -1.39480000000000        8.96890000000000       -0.80720000000000
H           -0.21320000000000       -6.72090000000000        3.18180000000000
H           -0.22290000000000       -5.26820000000000        4.24840000000000
H            0.94640000000000       -5.36940000000000        2.91240000000000
H            0.18680000000000       -5.49220000000000        0.52710000000000
H            1.74840000000000       -5.30370000000000       -0.32800000000000
H            0.20640000000000       -5.17130000000000       -1.23330000000000
H            9.12550000000000        2.17170000000000        6.71830000000000
H            8.46640000000000        3.83470000000000        6.57510000000000
H            9.48830000000000        3.16580000000000        5.26640000000000
H           -8.48550000000000       -0.14240000000000       -2.08850000000000
H           -5.99980000000000       -3.55240000000000       -2.44880000000000
H           -7.38530000000000        3.27620000000000        0.94930000000000
H           -2.59900000000000       -4.18590000000000        0.56580000000000
H           -3.31920000000000        4.15410000000000        1.75930000000000
H           -1.13890000000000       -1.10060000000000        3.06530000000000
H           -1.45970000000000        4.63870000000000        0.26070000000000
H            0.01430000000000       -1.32920000000000        0.02330000000000
H            3.01380000000000       -2.13180000000000        2.88190000000000
H            2.34220000000000        6.49820000000000        0.16650000000000
H            5.73330000000000        4.98610000000000        2.96350000000000
H            5.73030000000000        1.08420000000000        4.60790000000000
C           -0.16740000000000        3.35990000000000        4.75360000000000
C            0.38300000000000        2.42070000000000        5.63020000000000
C            1.78920000000000        2.46810000000000        5.89700000000000
C            2.47190000000000        3.68130000000000        5.58510000000000
C            1.82380000000000        4.65730000000000        4.81190000000000
C            0.53580000000000        4.49250000000000        4.37140000000000
C            2.50380000000000        1.41070000000000        6.55110000000000
C            3.72320000000000        1.80980000000000        7.13110000000000
C            4.26480000000000        3.10780000000000        6.88530000000000
N            3.69440000000000        3.99290000000000        6.05420000000000
C            2.16930000000000        0.00620000000000        6.63040000000000
C            2.99270000000000       -0.79090000000000        7.48510000000000
N            4.04020000000000       -0.33540000000000        8.20290000000000
C            4.43940000000000        0.92120000000000        7.97730000000000
C            5.62090000000000        1.35450000000000        8.58580000000000
C            6.13890000000000        2.60990000000000        8.34710000000000
C            5.47160000000000        3.46850000000000        7.49680000000000
C            1.19310000000000       -0.70500000000000        5.82870000000000
C            1.12760000000000       -2.09670000000000        5.89850000000000
C            1.89600000000000       -2.83340000000000        6.78040000000000
C            2.79150000000000       -2.17460000000000        7.57340000000000
O           -0.42120000000000        1.54290000000000        6.33680000000000
O            0.27870000000000       -0.15300000000000        4.94400000000000
C           -0.11960000000000        5.57070000000000        3.59920000000000
C            1.79100000000000       -4.30280000000000        6.91480000000000
C            7.41640000000000        3.01220000000000        8.97420000000000
C           -2.11470000000000       -2.76700000000000        6.34060000000000
C           -2.48710000000000       -1.56470000000000        5.73610000000000
C           -3.51780000000000       -1.58140000000000        4.70910000000000
C           -3.92370000000000       -2.87230000000000        4.23630000000000
C           -3.43490000000000       -4.03680000000000        4.84550000000000
C           -2.59060000000000       -3.99600000000000        5.91980000000000
C           -4.32140000000000       -0.47000000000000        4.24440000000000
C           -5.45390000000000       -0.76800000000000        3.46440000000000
C           -5.62310000000000       -2.06780000000000        2.91550000000000
N           -4.83480000000000       -3.09320000000000        3.26130000000000
C           -4.22040000000000        0.91300000000000        4.60660000000000
C           -5.36840000000000        1.75450000000000        4.51680000000000
N           -6.46710000000000        1.42500000000000        3.81410000000000
C           -6.45940000000000        0.21890000000000        3.22350000000000
C           -7.53440000000000       -0.10490000000000        2.38920000000000
C           -7.64560000000000       -1.34410000000000        1.79330000000000
C           -6.69910000000000       -2.31350000000000        2.05550000000000
C           -2.98900000000000        1.53110000000000        4.98890000000000
C           -3.03510000000000        2.73110000000000        5.69910000000000
C           -4.20220000000000        3.47990000000000        5.76250000000000
C           -5.33090000000000        3.02020000000000        5.12560000000000
O           -1.78810000000000       -0.48580000000000        6.26120000000000
O           -1.80900000000000        0.99580000000000        4.51500000000000
C           -2.27730000000000       -5.24820000000000        6.64290000000000
C           -4.18740000000000        4.81010000000000        6.40750000000000
C           -8.79360000000000       -1.62710000000000        0.90730000000000
B           -0.93310000000000        0.45890000000000        5.51800000000000
O            7.96840000000000        4.03630000000000        8.62270000000000
O            7.91260000000000        2.17000000000000        9.92680000000000
C            9.09270000000000        2.69290000000000       10.44380000000000
O            0.98630000000000       -4.98120000000000        6.04780000000000
C            0.90430000000000       -6.30060000000000        6.47770000000000
O            2.42520000000000       -4.84720000000000        7.79900000000000
O           -1.60750000000000       -5.22660000000000        7.65580000000000
O           -2.82820000000000       -6.38450000000000        6.11890000000000
C           -2.62380000000000       -7.45840000000000        6.98060000000000
O           -9.64520000000000       -0.77620000000000        0.73890000000000
O           -8.82230000000000       -2.85260000000000        0.30960000000000
C           -9.95710000000000       -2.94410000000000       -0.49020000000000
O           -5.17360000000000        5.51860000000000        6.36930000000000
O           -3.01680000000000        5.16460000000000        7.01170000000000
C           -3.13630000000000        6.43370000000000        7.56450000000000
O            0.54150000000000        6.51380000000000        3.21200000000000
O           -1.46060000000000        5.44710000000000        3.38050000000000
C           -1.92600000000000        6.55370000000000        2.67950000000000
H           -9.96100000000000       -2.10220000000000       -1.19060000000000
H          -10.84330000000000       -2.89480000000000        0.14750000000000
H           -9.93190000000000       -3.88790000000000       -1.03910000000000
H           -2.21650000000000        6.67300000000000        8.10280000000000
H           -3.98910000000000        6.44090000000000        8.24830000000000
H           -3.30080000000000        7.15490000000000        6.76070000000000
H           -3.00740000000000        6.46590000000000        2.56220000000000
H           -1.44360000000000        6.58000000000000        1.70030000000000
H           -1.67380000000000        7.45800000000000        3.23850000000000
H           -3.19790000000000       -8.31490000000000        6.62130000000000
H           -2.96000000000000       -7.17530000000000        7.98140000000000
H           -1.56220000000000       -7.70680000000000        7.00790000000000
H            0.39910000000000       -6.29500000000000        7.44910000000000
H            1.91600000000000       -6.70100000000000        6.58730000000000
H            0.33620000000000       -6.89330000000000        5.75880000000000
H            9.45650000000000        2.03490000000000       11.23590000000000
H            8.88920000000000        3.68960000000000       10.84390000000000
H            9.83150000000000        2.76360000000000        9.64220000000000
H           -8.29540000000000        0.63100000000000        2.19940000000000
H           -6.81240000000000       -3.28930000000000        1.61950000000000
H           -6.20650000000000        3.64310000000000        5.09010000000000
H           -3.80180000000000       -4.99000000000000        4.50920000000000
H           -2.14890000000000        3.11450000000000        6.17140000000000
H           -1.42040000000000       -2.73630000000000        7.16100000000000
H           -1.15690000000000        3.22010000000000        4.35720000000000
H            0.46330000000000       -2.61110000000000        5.22730000000000
H            3.40190000000000       -2.74960000000000        8.24790000000000
H            2.34720000000000        5.56260000000000        4.56040000000000
H            5.89610000000000        4.43520000000000        7.29160000000000
H            6.15190000000000        0.68430000000000        9.23730000000000
202
 energy: -401.148942442191 gnorm: 0.112450247044 xtb: 6.7.1 (edcfbbe)
C           -0.41392667312453        4.59995404623775        0.48498333905192
C            0.08360014293417        3.56372861446628        1.26251477670484
C            1.48674676511305        3.43739072581009        1.44966483975745
C            2.29762506091981        4.58210778175471        1.14598720780401
C            1.74285525531728        5.64598541750384        0.40612263391851
C            0.41404378012190        5.63757269716401        0.05308606699543
C            2.12401478525152        2.28761007117320        2.02013221736951
C            3.38490602245534        2.53492274644160        2.59782659035414
C            4.02705350470709        3.79775262961007        2.42217847989879
N            3.53580275685102        4.74930883955777        1.62332915453373
C            1.70854802533771        0.91353117991110        1.93424312668505
C            2.53637933407219       -0.04675699734293        2.61862553967752
N            3.57197908157321        0.27232859116461        3.41224536343581
C            4.03904727098907        1.52058956758283        3.35410004420145
C            5.24351138045755        1.82319274319991        4.01318775249443
C            5.83338501916737        3.06850536127329        3.87441763095127
C            5.24776759984167        4.03599494686573        3.07216126607392
C            0.69257161712142        0.39389526903907        1.06112053173799
C            0.69360757367422       -0.96391038738764        0.76121998759476
C            1.52444879214052       -1.87458757936196        1.40712139459640
C            2.37961062681002       -1.42805435897526        2.38259825450633
O           -0.77693355507454        2.75904353599497        1.93570661381902
O           -0.26487991009007        1.09095465496608        0.39580590691743
C           -0.14941518739282        6.80963709696464       -0.65262005045408
C            1.48921631543172       -3.30603208201318        1.04509904354472
C            7.09210404888056        3.40963210854630        4.57113867692381
C           -1.74090912211724       -1.41255670183349        2.23191936055299
C           -2.42578674889679       -0.44238929282092        1.51732984089029
C           -3.33445091856147       -0.82690344816519        0.48536178010527
C           -3.35920398414893       -2.21983900847843        0.12425662598571
C           -2.56016259619416       -3.15401045231466        0.81701735585005
C           -1.80670995911316       -2.76083275980774        1.89244512688887
C           -4.35684943595053        0.01753898511791       -0.06610361910093
C           -5.36062008200554       -0.63167987120243       -0.81091859376707
C           -5.17785622325213       -1.97733892053935       -1.24425375662169
N           -4.17053542584822       -2.73582992307710       -0.80969524549346
C           -4.61244588394929        1.39704589374507        0.24159657790348
C           -5.98268507837968        1.82602708207337        0.19323658023251
N           -6.92920423617880        1.18028438261013       -0.49933155578917
C           -6.59654219217966        0.02679534992261       -1.08682451812032
C           -7.54494497554593       -0.61828149691206       -1.89711028822795
C           -7.29848686997654       -1.88140525998611       -2.41879597610650
C           -6.13573565167673       -2.55806058259953       -2.09130660253649
C           -3.63837523010899        2.38332251824767        0.59001919060114
C           -4.04594019100033        3.49651814074350        1.31853768790675
C           -5.40359026722713        3.77534866551571        1.50324155504534
C           -6.35197923271625        2.99923939413029        0.87817136137854
O           -2.18649453564091        0.81937495186432        1.92730928737402
O           -2.35379393449453        2.28829574401288        0.14734537687037
C           -1.02676054923601       -3.67790408517239        2.73804259245938
C           -5.87520371140180        4.90604151736927        2.33215130191947
C           -8.33451222288643       -2.53161646620952       -3.25105261990658
B           -1.39126562807490        1.73877556602285        1.10320544420301
O            7.61728019299850        4.48639355337975        4.42184698609232
O            7.59062300536538        2.45420285066937        5.38362616296836
C            8.75045550676571        2.92509525207760        6.02671633164355
O            0.69448007659946       -3.60323431587590       -0.00604221015448
C            0.70709920517493       -4.98124499908034       -0.28852940949362
O            2.13986122010133       -4.13477967857482        1.63876288572457
O           -0.44810975874343       -3.23977761154187        3.70547362608126
O           -0.97528854253767       -4.97761631258694        2.39383507257728
C           -0.06526887322348       -5.65281633993299        3.23311548399182
O           -9.46104872154379       -2.09742376485337       -3.31107228473671
O           -7.93597860279913       -3.63611361938684       -3.91549551413165
C           -8.98694573194133       -4.15817169384064       -4.69041940538321
O           -7.05422871090794        5.10623954980973        2.50192133215341
O           -4.91934414295644        5.67195640031108        2.89900965675316
C           -5.50034587922354        6.61816889517217        3.76542328699451
O            0.54930653352157        7.58438667068256       -1.25889060381713
O           -1.48827657678060        6.96181582202224       -0.53079812006928
C           -1.92338501553140        8.10636486991501       -1.22104718100413
H           -9.34903722038047       -3.37978467652754       -5.36726554338266
H           -9.80605002183751       -4.45987175183146       -4.03235870329340
H           -8.62244669818690       -5.01272127489748       -5.25763559414350
H           -4.71797160130633        7.21816676660010        4.22701735505780
H           -6.05515684284658        6.08401241260327        4.54010205824898
H           -6.19176653042827        7.25026465840624        3.20441739363698
H           -3.00051877406680        8.21124931298349       -1.10139518673076
H           -1.66589258854802        7.99896364794191       -2.27777784921890
H           -1.40772247303824        8.98305179163051       -0.81996534724714
H           -0.22642919143894       -6.72631346303993        3.16312461383084
H           -0.21347908474607       -5.29677244408254        4.25436097456363
H            0.95365127057200       -5.39176196263600        2.92885981096747
H            0.18735519784818       -5.51296297335124        0.51052870355066
H            1.74319974083848       -5.32671332205278       -0.33719299105801
H            0.20363319010238       -5.15453287054335       -1.23784391947155
H            9.11664094131800        2.15956840104594        6.70895128072309
H            8.49971177898684        3.83539466855368        6.57885199815269
H            9.50728215534013        3.16598987202111        5.27707810305690
H           -8.48868385738238       -0.13339688901916       -2.09031764879559
H           -5.98654294169698       -3.56212587085838       -2.44934792301149
H           -7.39177883200111        3.27564840733878        0.94009896431689
H           -2.60758932755149       -4.19432562170584        0.54763307061448
H           -3.30566723805355        4.14959602525680        1.74921612705547
H           -1.13345809425174       -1.09433355512326        3.06559478379496
H           -1.46707903333724        4.62759299480083        0.26220144780818
H            0.00708091248213       -1.32091614920473        0.01255450939538
H            3.01735821994243       -2.12985271002616        2.89511180476539
H            2.35249624081169        6.50174484019586        0.16842048876441
H            5.73331115832788        4.99200071349628        2.95787572869171
H            5.72584133027861        1.06916317492129        4.61205472703082
C           -0.17450756276640        3.35123119507231        4.76706224127905
C            0.37280360500568        2.41890723943198        5.64823524525562
C            1.76982374238817        2.46385743439788        5.90621180196410
C            2.46961493237843        3.67551403484498        5.58273546836427
C            1.83091995430786        4.66112732412618        4.80694167105891
C            0.53904665861370        4.48428081609619        4.37472289884840
C            2.49344295945343        1.40941902913265        6.54735416180810
C            3.71784395502611        1.80633491737474        7.12624841644980
C            4.26072994123340        3.10428863583257        6.88308066322161
N            3.68530802341223        3.97709736023992        6.05215257963915
C            2.15520350155410        0.00954172147871        6.61165345473886
C            2.98769119956653       -0.78877935047384        7.47521596249195
N            4.02779696571027       -0.33324727967423        8.18471589321394
C            4.43584616656800        0.91482117219302        7.97057455261671
C            5.61982463475094        1.34230527757350        8.59169407173366
C            6.13442412838445        2.60384972767445        8.35061909037971
C            5.47224636336713        3.47062243392609        7.49369608255712
C            1.17949559229201       -0.69841536481541        5.82628163188896
C            1.12629076275365       -2.08985623005024        5.89189705842461
C            1.90205519325865       -2.83080430182432        6.77659116675326
C            2.79595871733247       -2.17694296087710        7.58159325398501
O           -0.40935776381629        1.54477368376429        6.34340967873037
O            0.28391127779546       -0.15680299136294        4.94685790175309
C           -0.09961511826801        5.56585376723586        3.59139839103749
C            1.80580403953265       -4.29861382457995        6.93063112109698
C            7.40898877680764        3.02637928154862        8.97084774303984
C           -2.10997380257301       -2.76155371300141        6.33666209613268
C           -2.46338007668061       -1.55490522270003        5.72952623714736
C           -3.50270921567601       -1.56568255518959        4.71952423779284
C           -3.91764273645280       -2.86273654806249        4.23975424272766
C           -3.43663416301676       -4.04243766435589        4.83195533252093
C           -2.59854171942836       -3.99521272907149        5.91441585281107
C           -4.30873990045893       -0.46425994152008        4.24580916969693
C           -5.44571964830957       -0.76539350513966        3.46605083142449
C           -5.61722688810625       -2.06764029184090        2.92083361787086
N           -4.82865174157119       -3.07877199416951        3.27652371875028
C           -4.19884380733477        0.91607007376383        4.59800362198469
C           -5.36053182897207        1.75258449444545        4.51478319230676
N           -6.44985408011628        1.41606440090809        3.81810669451168
C           -6.45212966849327        0.21982444037242        3.22308490167727
C           -7.53351331147136       -0.09908541532865        2.38626722482101
C           -7.63749984334937       -1.34734763906215        1.79105381395372
C           -6.69124970229505       -2.32330188695412        2.05079199066007
C           -2.97603588162810        1.53166147516546        4.96722039590647
C           -3.02286970295354        2.72417169536450        5.68660662245132
C           -4.20088163132146        3.46982976267122        5.76108251112656
C           -5.33657875767623        3.02264356158684        5.12457686531945
O           -1.78920847045734       -0.49616829962359        6.26622521438023
O           -1.82574534402315        0.99056043906205        4.50562488484119
C           -2.26970674779433       -5.23377636055475        6.65095772616322
C           -4.20142773289920        4.79910460589223        6.40939245514061
C           -8.79541895352171       -1.60926709339544        0.90967276461629
B           -0.93821841238453        0.45895718801533        5.51504460811427
O            7.96534136132049        4.04801510547292        8.64270473515353
O            7.90066126633122        2.19031551800522        9.90872093308894
C            9.09792198728711        2.69305036674159       10.44849791399142
O            1.00151114667491       -4.96538787799473        6.07766775343987
C            0.90578816077677       -6.30988877636745        6.48075942667311
O            2.42600225338123       -4.85599000373407        7.80660976775168
O           -1.61248718884574       -5.22755300184982        7.66411884028266
O           -2.81844496685505       -6.35907607629752        6.13534302437724
C           -2.62429136488051       -7.46427606485648        6.98384388361460
O           -9.65235832749763       -0.77701310280496        0.73725266369555
O           -8.82045890067987       -2.82377607079780        0.32113190970168
C           -9.96478012879089       -2.94833519379976       -0.48938956078022
O           -5.17562009854665        5.51471562491753        6.39376126703466
O           -3.04025669930938        5.15483934258469        6.99835284598107
C           -3.13388163640382        6.43680456263503        7.56708385861058
O            0.54060088385139        6.51590810596065        3.20147737350199
O           -1.42820086283374        5.45016149261349        3.39259360950831
C           -1.92735799890554        6.55854322571527        2.68283968273371
H           -9.99173746746153       -2.11460296026394       -1.19557638072023
H          -10.85823629667805       -2.90366838245254        0.13677339436160
H           -9.92116664105147       -3.89423209230885       -1.02649393412858
H           -2.20967145752982        6.65946955463897        8.09787095623390
H           -3.98309873376673        6.46272952075248        8.25547220282039
H           -3.30008812903278        7.17121726176670        6.77452471512018
H           -3.00336966041518        6.45384619113257        2.57258737446919
H           -1.45504763346109        6.59922862943914        1.70069696329523