116
 energy: -22.928061455056 gnorm: 0.329736929581 xtb: 6.6.1 (8d0f1dd)
C           -3.31122850772930        0.79849766164622       -0.92477639677520
C           -2.44380812530352       -0.12270372891954       -0.27661132624697
C           -1.41337090092821        0.39579727573559        0.56335275196199
C           -0.89266158675590        1.65801491088749        0.27377586709581
C           -1.72665675402493        2.51431363229076       -0.49448366572522
C           -2.95444148494349        2.13954154133227       -1.01494489940871
C           -0.74098268209890       -0.43411532818871        1.49825021926784
C            0.56872586496315        0.03782116815119        1.86248088067890
C            1.03782416582094        1.29402317993033        1.50887470833621
N            0.31238977034758        2.07067427098208        0.65193736800696
C           -1.29695700510141       -1.39996043042223        2.41574187746061
C           -0.38243517664656       -2.18060797534842        3.13232615520648
N            0.91308504082021       -1.90366887689689        3.30325166013478
C            1.37712470144904       -0.74872102533751        2.81811050966982
C            2.52149331701875       -0.17739833758153        3.39379298866852
C            2.95849061756259        1.02681208890480        2.95105897606587
C            2.24288949469137        1.78498308775960        2.03503020483770
C           -2.74860936222260       -1.74497937691422        2.38401158947411
C           -3.09416315450955       -2.91614440870436        3.00571134491758
C           -2.16786021984049       -3.77788778654213        3.63251872101904
C           -0.85708937311598       -3.40495313382985        3.68547234358092
O           -3.71994433332149       -0.94984598373544        1.67726658385724
O           -2.55702603277562       -1.47241711578389       -0.57241635275616
C           -3.84297843593025        3.13357444054366       -1.60938954875544
C           -2.68769581069131       -5.03867041417370        4.30484659386931
H           -1.39666850744143        3.51251503834900       -0.76806311868865
H           -4.27662633836220        0.55105838579656       -1.33106614114542
H            2.66329581305412        2.73912661909249        1.72562431984580
H            3.05775395548473       -0.69369546277216        4.16536137542516
H           -0.24710966264510       -4.12034095424229        4.22946223699121
H           -4.11477991332403       -3.04712728052358        3.03244694615357
O           -4.21824883374556        4.03433712717988       -0.87713382485991
O           -4.44510595673734        2.90643496899600       -2.81853501752979
C           -5.44216520282800        3.83300025693726       -3.02488532025093
C            4.23586651889298        1.50004220933226        3.59165660008449
O            5.05927614697201        0.66079890002952        3.91714215179376
O            4.47001334453535        2.86385149488593        3.72605651435371
C            5.79457498613219        3.08584475587818        4.15829123132174
O           -3.82227255313510       -5.27347675879771        4.16636005494405
O           -1.85023202017753       -5.79767454267276        5.06656077253571
C           -2.55119635829503       -6.86252441382958        5.62930343183426
C           -5.07197156564436       -1.42399175670916        1.58830531863830
C           -1.33089900128490       -2.23622472573986       -0.99264499351172
H           -2.54510546830388       -7.76426885143998        4.99136022291012
H           -3.57194749219491       -6.44405511486021        5.74196173723541
H           -2.09133598235598       -7.02043774843818        6.64022264233588
H            5.72707967266424        3.46798026205549        5.10135971236643
H            6.34060091246885        3.78468702308830        3.50069950143490
H            6.17933064298187        2.03010500085905        4.19342358084693
H           -0.91862729772622       -2.57650129080332       -0.01361370304871
H           -0.49769766914251       -1.60651221708571       -1.34094446550576
H           -1.52632419730509       -2.94569707152159       -1.75361447637286
H           -5.11788846557077       -2.41810833635233        1.17520213188926
H           -5.67929807973498       -0.69619639428435        1.04301666067831
H           -5.57598832326623       -1.42383358739762        2.57928294206544
H           -6.13050215934830        3.76035386975488       -2.23272855695873
H           -5.86615610071888        3.45938329385866       -4.02668959924245
H           -5.13479557532099        4.87790991548477       -2.98314551356402
C           -1.38192942069774        3.73616555005018        2.91232598411686
C           -1.84821468128685        2.59982427735607        3.49755545445181
C           -1.05946531454833        2.05730632010638        4.60922730982276
C            0.19893954712228        2.69376791964407        4.86302140881997
C            0.50425395911860        3.94630308659851        4.28768785650746
C           -0.26031777722226        4.46998310053134        3.25072669343212
C           -1.20488993561782        0.74454293276906        5.14851520323437
C           -0.06287609782692        0.02744069315890        5.60930570802864
C            1.19208754369866        0.71421540266195        5.78882868583885
N            1.19428660993148        2.06344359410476        5.62744624321596
C           -2.41361422770794        0.07928500213936        5.25249410304426
C           -2.45851584031083       -1.32662100968547        5.60237876023992
N           -1.29466212405906       -1.98318595734370        5.89916817085159
C           -0.14475655767527       -1.32117560077092        5.98824682881008
C            0.97209270935794       -1.98958449505532        6.53157704134458
C            2.21982707914082       -1.36973967291181        6.68703967237737
C            2.30561929262884       -0.09745313075593        6.26436900324455
C           -3.73018485967715        0.71367583494582        5.25810242262992
C           -4.89964478833448       -0.06184623426677        5.21204641615509
C           -4.82617965800088       -1.39228978090841        5.46901303780036
C           -3.67144193418464       -1.98914944386360        5.67265433266067
O           -3.75568638935321        2.07705011038914        5.52067969627343
O           -2.94192434743730        1.91263938797883        3.01658762327703
C            0.21273512614467        5.50086066357994        2.34765104514621
C           -6.06660304520411       -2.17604633098929        5.80641622556876
H            1.41756699010566        4.38133362238595        4.66974005703471
H           -1.82880610647429        4.11982501512100        2.06992133318584
H            3.26888037378556        0.32655662585251        6.31721410015598
H            0.87146188387207       -3.08471526305024        6.57830423410869
H           -3.67716811065157       -3.05999292755990        5.83019634570050
H           -5.77379677507622        0.43595144608221        4.71017130754348
O            1.34459852619901        5.82615848916894        2.44941456579099
O           -0.74718748219123        6.07961784856304        1.59848183464284
C           -0.21473095568964        7.24015934882472        1.05753806029483
C            3.53228080814219       -2.00967610361154        7.02506769044485
O            3.64093082622715       -3.14437803815732        7.50071391725347
O            4.56565258381079       -1.22937033368332        6.69086985080897
C            5.72579357310716       -1.80692399125161        7.22246151275881
O           -7.04801223588612       -1.95726935745904        5.14194115322235
O           -6.01514389321278       -2.93743591896022        6.94765316328794
C           -7.21292732384718       -3.62681918543340        7.15115816329978
C           -4.95459780685163        2.65960679932188        5.86868674392943
C           -3.68284113682406        2.59129188358641        2.05479246020704
H           -7.43119628931628       -4.22607794725959        6.20622607140901
H           -8.06548455146707       -2.91765848248592        7.29781126410398
H           -7.07314693247270       -4.33087306029711        7.91223421050944
H            6.57332189837178       -1.29353136199234        6.78341268688262
H            5.74663761932316       -2.84282155125561        6.88089468184451
H            5.69426191474290       -1.72781984964892        8.29460302186842
H           -4.10481209541493        3.44288266176275        2.60483747673152
H           -4.49244774344916        1.87419893016926        1.82433103764650
H           -3.18901540870812        2.85154642679373        1.06781919454921
H           -5.55414326821421        2.76698137191684        4.93950725322359
H           -4.78658370641210        3.62090640967288        6.25983200635257
H           -5.43485580473958        1.97242995129449        6.65265772412460
H            0.89164886030839        7.38838561720231        1.13776105146914
H           -0.62894889903848        8.04195665205089        1.64837664327952
H           -0.59282546386754        7.45699159724320        0.03719083132488
116
 energy: -22.750094029996 gnorm: 0.430308558687 xtb: 6.6.1 (8d0f1dd)
C           -2.75745584299335        0.16453707690273       -1.90128742053548
C           -2.36776126042143       -0.65451342027760       -0.84244153194099
C           -1.44352371074289       -0.16571668553977        0.09965932427775
C           -0.91372021542868        1.13949579713935       -0.30706528693177
C           -1.43285224722343        1.99022393794657       -1.33922935738140
C           -2.50293638249872        1.53911660293352       -2.00931130477528
C           -0.92115218109253       -0.90408689376409        1.23673320250260
C            0.37516802308921       -0.49299024368094        1.56111127578889
C            0.89360652056433        0.81048279348026        1.11725496161549
N            0.12983614715646        1.65346736476337        0.36563126509846
C           -1.48130901234145       -2.02835389259620        1.90699139305419
C           -0.66507555442814       -2.86466887101125        2.82594883064395
N            0.66024907266056       -2.46074719279956        3.03592939412815
C            1.14045927190228       -1.40759457125570        2.34618918196152
C            2.44758337957583       -0.96542744173874        2.65489406233462
C            2.78522941910975        0.36303091574047        2.57505294227341
C            1.98615646129841        1.25532884260434        1.85137378832519
C           -2.90599280462442       -2.17490665544635        2.05120399907062
C           -3.40690518457228       -3.21283818881019        2.92807907261128
C           -2.51885999926695       -4.18767317085600        3.46112964866370
C           -1.20541329487278       -3.93601396103961        3.48042541200846
O           -3.70089260921221       -1.13489529717960        1.50668598501105
O           -2.96347821883764       -2.00835047627307       -0.97457838938752
C           -3.30100927025838        2.41935799067529       -2.85345130455231
C           -3.13843055567363       -5.27466264018888        4.28709213653804
H           -1.27133332442783        3.03829305812777       -1.41243685214852
H           -3.43814879432748       -0.27091105244016       -2.61547059290177
H            2.36157854055587        2.30349713743892        1.82820429767816
H            2.88214336006253       -1.72049658981150        3.29462773405548
H           -0.62989558991671       -4.78529876131498        3.76920752686822
H           -4.33270179617716       -3.21876591681930        3.41882056669851
O           -2.86211952517476        3.54943930761259       -3.07007294073795
O           -4.35416775742603        1.86418023606796       -3.53713584165374
C           -4.95002607981837        2.87660348396305       -4.28117374757586
C            4.01051408225614        0.89822376374369        3.21205306939823
O            4.77120763302855        0.06004726950882        3.70306032009812
O            4.25527183605933        2.23484375329650        2.95470396686338
C            5.61148132486349        2.60671420158717        3.08911855716172
O           -4.12102152880026       -5.89904598771499        3.88418551834652
O           -2.37743223225286       -5.55627741975185        5.39469236031278
C           -2.96095945456368       -6.63401355410294        6.16351005603907
C           -4.81217135466546       -0.49138035260931        2.03576756121045
C           -2.35448542961503       -2.84968927399170       -1.74886479864237
H           -4.06838501071118       -6.54124507522664        6.09797830894681
H           -2.37991629531678       -6.79672480500772        7.14009177349933
H           -2.80359224978586       -7.61663971178178        5.65311463004905
H            6.28735035305747        1.78559163356376        2.74071036054132
H            5.67130150775210        3.09019921504279        4.01867901289366
H            6.00312015400224        3.39760418715222        2.43269814903317
H           -2.76142083964062       -3.87399842628149       -1.60401218896215
H           -1.28039196243606       -3.04134610811583       -1.57839079884232
H           -2.42408324604660       -2.40301444338738       -2.85826803650340
H           -5.44575074870149       -1.29323320850657        2.01752082376874
H           -5.51109040346608        0.21027711845576        1.44091365613093
H           -4.67003471564145       -0.21120341962645        3.01434345144775
H           -4.83472996439828        3.90794385132039       -3.74007968617691
H           -5.94226145208500        2.59724182465621       -4.68163623178374
H           -4.15083561748220        3.09644231670659       -5.10825178946158
C           -1.88098187570767        4.33413432259129        4.10900270460097
C           -1.90242096663337        2.93516793665109        4.43292449364335
C           -0.90239692309372        2.42781066169129        5.29843498656736
C            0.30885967989247        3.19500612703564        5.45091953307680
C            0.40126298446877        4.49133886718443        4.83847468265999
C           -0.71738775987047        5.04869111760321        4.21487160751022
C           -0.90289188754335        1.12966323816848        5.94469672662536
C            0.25730400826500        0.46119862087286        6.25449571469760
C            1.39724106950925        1.29684758650373        6.33396800837531
N            1.40535005809315        2.68617648048752        6.12596883513395
C           -2.18348098092382        0.27129685486984        6.04718005005024
C           -2.12144854752778       -1.07698181269304        5.93089142597389
N           -0.96046684665148       -1.72725218373434        5.91910238862489
C            0.25297167138655       -1.03130243241225        6.21257907227596
C            1.43583525097754       -1.66742521595633        6.39256077827203
C            2.50660490446670       -0.95423157956572        6.77803578822906
C            2.46674531652326        0.48394864672721        6.77645548724797
C           -3.38373551747146        0.96062176971814        6.41850063307263
C           -4.64493356041705        0.35386265915706        6.12264532264902
C           -4.56240002107544       -0.99685126947986        5.66634660241629
C           -3.37805445583446       -1.78750118256103        5.69008069092018
O           -3.21196383826522        2.20134793430883        6.95035414382951
O           -2.93983712580193        2.23346893147976        3.80157755131472
C           -0.68211835085605        6.48636812215826        3.85708999630278
C           -5.85772374481864       -1.63741742213966        5.49311399073942
H            1.27488306500476        5.12367832578463        4.95098612544179
H           -2.65639967382237        4.85486465944872        3.63409626036468
H            3.48251894200933        1.01504029200941        6.91006676234053
H            1.55371143492717       -2.69784514137521        6.13300318921297
H           -3.05742153995843       -2.78365618501130        5.43636431837863
H           -5.62365866729059        0.80580691673972        6.14767585992884
O            0.33625226090290        7.12214412894723        4.16541265926603
O           -1.72566610351698        6.99760088455435        3.16902886244980
C           -1.40866285846654        8.37425865405505        2.90813399550281
C            3.69051142524710       -1.64366850657481        7.30168758600246
O            3.67542431066623       -2.81300670538356        7.52983314517005
O            4.84155306165421       -0.84713597722123        7.46884366317494
C            6.08969804577783       -1.45488411469852        7.26089427428711
O           -6.90971699460056       -1.11656384103341        6.00963122273775
O           -5.82666959870542       -2.79165975860179        4.83295982236678
C           -7.19343190584522       -3.15300948034082        4.64590379319173
C           -4.34379823437872        3.10813702163658        7.07528868106794
C           -2.72800991916207        2.11312320366776        2.36359796867531
H           -6.94455070003538       -4.14409181595766        4.41711967922289
H           -7.66976862207247       -2.74275384558826        3.73841849383207
H           -7.85301776366210       -3.19664678482105        5.47351497425347
H            6.03508842367910       -2.04471236440122        6.30996243026808
H            6.42928547287211       -2.10272089095579        8.17037731871326
H            6.74245106064395       -0.58833080172241        7.11431877222743
H           -3.46250717927917        1.31307541568725        2.13965337220351
H           -1.83141666677015        1.35160619813004        2.12086267513813
H           -2.68185961903370        3.11113965309936        1.92166082686491
H           -5.10818130813690        2.92088637447389        6.39436946295669
H           -3.84016866207121        4.00561887098236        6.77429492893275
H           -4.69246794083613        2.97552666717340        8.06817952560683
H           -1.60008319195666        8.56116397342407        1.82154840988683
H           -0.33150659644561        8.66605948322000        3.28872864219486
H           -1.85676691414067        9.27587510847557        3.54397437314044
116
 energy: -22.716062245512 gnorm: 0.490042396084 xtb: 6.6.1 (8d0f1dd)
C           -3.14628200497847       -0.70852779500018       -1.78537962029965
C           -2.67977465256151       -1.35292165105785       -0.59582698564730
C           -1.85949192227457       -0.39342871300079        0.17335468095095
C           -1.13217558944534        0.72362127590144       -0.29403440924028
C           -1.57770598968135        1.13436003570928       -1.54914665601982
C           -2.51687648416313        0.47503501190528       -2.19460336375955
C           -1.15668740113771       -0.89969695798204        1.42302724737595
C            0.19218558787351       -0.60484011963515        1.77374725337090
C            0.71564154942523        0.58902031009340        1.25749037314868
N           -0.04336246537829        1.34295210897757        0.40569312519518
C           -1.57173513378897       -2.07180243770285        2.01641778319159
C           -0.62928800685323       -2.85901888509836        2.83783576839871
N            0.50915464843376       -2.50069090783172        3.29935005862044
C            0.93597405265189       -1.41303791782319        2.68652747660697
C            2.17863237206153       -0.88578045076368        3.17356493049263
C            2.72562766431187        0.32887989425647        2.65212640715676
C            1.93656227990507        1.01550351906109        1.70763777358127
C           -3.08223422171580       -2.19317981406428        2.16600392385819
C           -3.45231931063671       -3.47700962121990        2.63526441810520
C           -2.48433190761192       -4.40007332829080        3.19866224037195
C           -1.14941823093454       -4.06871794883254        3.35399783884334
O           -3.81689779403542       -1.04217624142854        1.78748993067087
O           -2.69723233201055       -2.74113933661441       -0.35003396062836
C           -2.98928851793208        1.22839930772879       -3.46229867260006
C           -2.93639423231341       -5.80839773587330        3.72511691515557
H           -1.13454130928964        1.90712592402550       -2.08577783992650
H           -3.86020718702462       -1.06888728335665       -2.53372094793625
H            2.43807830820106        1.91391396464485        1.30589223699723
H            2.73394488364288       -1.35706720752439        3.95823497241812
H           -0.44745401604381       -4.75386300142192        3.82559688008352
H           -4.43925378558705       -3.82490893288767        2.71159426237106
O           -2.51879739023835        2.33898771454024       -3.82931524505089
O           -3.89112298289150        0.49782664222671       -4.23161029018048
C           -4.20112532197100        1.15804914229343       -5.42353629414736
C            3.97905813418085        0.99805333212140        2.94412002432958
O            4.34480162912710        1.02689573555393        4.09423527306378
O            4.52950651015498        1.69539537593332        1.83660323125703
C            5.70852907950144        2.48277097423015        2.20964353164451
O           -3.95204857162483       -6.17260872704317        3.16776259837691
O           -2.27713662749875       -6.22771386772386        4.76156122121637
C           -3.04020749250323       -7.24924694632253        5.20157311623525
C           -5.10559236609309       -0.92261436530851        1.50028828885417
C           -3.68039234533677       -3.43413707915420       -1.11452293805980
H           -4.04140037519906       -6.80738823170449        5.13323738129270
H           -3.07812555978938       -7.57341039176390        6.19821932212950
H           -2.87335178773689       -8.03291957175371        4.50453134682267
H            6.67747094481781        2.03770949182373        2.54143207986942
H            5.18198503712778        3.26843182525336        2.90140058159648
H            5.95821292843266        3.03253218176945        1.28158663396310
H           -4.55257597522176       -2.83228274790073       -0.82418205586905
H           -3.86826909919857       -4.45793794820182       -0.76959483155226
H           -3.18560283811180       -3.49518235186186       -2.15519650136917
H           -5.24912830189492       -0.35748629441544        0.58549070912517
H           -5.48881903132799       -0.20644161867016        2.26516716089359
H           -5.83859616523772       -1.70699941422942        1.61879772559373
H           -4.34268383755658        2.15946215673995       -5.10922466532170
H           -5.04018157976145        0.94236492357623       -6.12756114677633
H           -3.27627797077947        1.30833875752925       -5.91890572710026
C           -1.67985836502379        5.24256771166423        5.06251270398120
C           -1.73688789287524        3.86562950115684        4.65326785675992
C           -0.76405005928255        3.03758637070700        5.36364956080363
C            0.38554905942149        3.50173333997761        6.01736180940460
C            0.52341412395498        4.90250655170838        6.08874119806696
C           -0.46656982708419        5.76226829699492        5.62474046933766
C           -1.02601959014840        1.60692185340750        5.69960689230617
C            0.08364375828483        0.87659684757095        5.92289049797644
C            1.37340888215248        1.44082313289617        6.36762887984642
N            1.40375711711567        2.78200965802625        6.53074712298986
C           -2.24362224850296        0.93675829807872        5.85939259215854
C           -2.12711998521786       -0.49341592430187        5.66650635433423
N           -1.06067413912976       -1.20158943433251        5.43921383708789
C            0.05820054226643       -0.56310639924419        5.84088334038159
C            1.20719225012871       -1.33080980458177        5.95400477675617
C            2.46170838966538       -0.58874187587860        6.33687146132450
C            2.47979388429004        0.70626192505471        6.58641053122430
C           -3.49173256218185        1.48507787332850        6.07726426622265
C           -4.56870600694199        0.53547023180602        6.13348811813619
C           -4.56655384178380       -0.79723811536418        5.80241199410097
C           -3.36056199372943       -1.32355361579876        5.45982240599611
O           -3.48643394134446        2.83966808651241        6.14315687271269
O           -2.52215096143282        3.49953298800717        3.49098209140932
C           -0.29169905328686        7.32251586345263        5.79796157566217
C           -5.76593977771284       -1.74925648844351        5.94409233086258
H            1.41566415354586        5.46984294913317        6.42856367160129
H           -2.44145868700176        5.91285442837095        4.65062066261998
H            3.48506236137354        1.25049596630122        6.71712776656849
H            1.17657778648045       -2.36190257314146        5.54753931718850
H           -3.28242690096035       -2.31496967650764        5.33863410636730
H           -5.55395687681854        0.88617803484790        6.18252958747463
O            0.09440889197087        7.84298866964618        6.83867535748334
O           -0.76176968699212        8.07297590329768        4.77979495683982
C           -0.50421658447192        9.48722629760217        5.00841559761936
C            3.56276779872474       -1.48693111270241        6.42729987197892
O            3.60226771797799       -2.53214203578455        5.79337290440759
O            4.59317341184649       -1.00137189980721        7.30067112746315
C            5.75786208572509       -1.78393060695872        7.17365558744675
O           -6.81969835945129       -1.53026364855793        6.57531434838322
O           -5.64881252468108       -2.62875816343828        4.87669036957989
C           -6.83220855660686       -3.31188820407695        4.82199801663270
C           -4.75643218952916        3.31597759196509        6.65522013781431
C           -1.86042347173654        2.99455307238971        2.32926951517017
H           -7.27451306930642       -2.92748378160816        3.88873063639290
H           -7.50093123830237       -2.99256989127929        5.62704379698884
H           -6.79223076422254       -4.48803450561945        4.69777343774963
H            5.69752502163342       -2.28312908013235        6.17239993408126
H            6.01427435700797       -2.32115131806227        8.02547402274771
H            6.48983898780757       -1.04660658182316        6.98878578257415
H           -2.91751992858714        2.80504739194178        1.75707942796616
H           -1.27147056528169        2.13501251898817        2.46168650430436
H           -1.30637552037020        3.95808203584631        2.06096541711858
H           -4.82480030202409        3.11544008019336        7.73610845661604
H           -5.55021825265595        2.88232263511033        6.07550692682432
H           -4.71310934701747        4.36228700051745        6.49269141012039
H           -0.61851174984359        9.98167357067339        4.14322658238105
H            0.38577778806895        9.71454119602171        5.58210511157001
H           -1.19207185152212        9.89264555589466        5.68886125528613
116
 energy: -22.714271543645 gnorm: 0.482013866075 xtb: 6.6.1 (8d0f1dd)
C           -2.95932461594194       -0.70921549760643       -2.32869934882316
C           -2.35300231574896       -1.48938009930154       -1.35659678556891
C           -1.55105507279650       -0.75830591576804       -0.34366655849175
C           -0.94884399111028        0.52705137953552       -0.76393816988350
C           -1.57333826061869        1.26129176380187       -1.88746296516284
C           -2.60106743139479        0.60568723589009       -2.56407062959626
C           -1.20803150089439       -1.23491347438436        1.06448694570815
C            0.15159930372193       -0.84703609982529        1.37048295588436
C            0.77053828493280        0.23931380530290        0.69954309759687
N            0.16030654613720        0.99372083451573       -0.28399594427655
C           -1.71019860344428       -2.43755899693627        1.76176439534433
C           -0.83599803026999       -2.94466478920239        2.85555963848865
N            0.36299079587605       -2.32898794331159        3.10062440804597
C            1.02359989092806       -1.53426604576581        2.28804917188627
C            2.34382635921494       -1.00798391685554        2.59193666497154
C            2.73188696436331        0.30000884673318        2.02610281435088
C            1.89112055804764        0.89422147033084        1.13802713225273
C           -3.08511545949959       -2.75011352310383        1.70595271505594
C           -3.59248242717912       -3.48833990281426        2.80351458615920
C           -2.73132411586329       -4.22486455218717        3.69973338072079
C           -1.39750817504672       -3.83609910759291        3.77437043907988
O           -4.03560326296182       -2.02862952173907        0.83700999231615
O           -2.34582952624100       -2.83622519271077       -1.16660401724752
C           -3.04804662124306        1.32624710426995       -3.73727616940377
C           -3.15661988714857       -5.17558762352483        4.71456580089814
H           -1.07004365552351        2.17899064851459       -2.18493488432468
H           -3.59830601309064       -1.14934354799856       -3.10315563321725
H            2.09004440195028        1.80637329503288        0.66268027746838
H            3.05353651908763       -1.47935650063633        3.23195057480875
H           -0.87667788321293       -4.50503457660610        4.41889406803634
H           -4.62618664142073       -3.87740046601459        2.64660720126117
O           -3.46232002639972        2.47666233632383       -3.63230111236182