116
 energy: -22.928061455056 gnorm: 0.329736929581 xtb: 6.6.1 (8d0f1dd)
C           -3.31122850772930        0.79849766164622       -0.92477639677520
C           -2.44380812530352       -0.12270372891954       -0.27661132624697
C           -1.41337090092821        0.39579727573559        0.56335275196199
C           -0.89266158675590        1.65801491088749        0.27377586709581
C           -1.72665675402493        2.51431363229076       -0.49448366572522
C           -2.95444148494349        2.13954154133227       -1.01494489940871
C           -0.74098268209890       -0.43411532818871        1.49825021926784
C            0.56872586496315        0.03782116815119        1.86248088067890
C            1.03782416582094        1.29402317993033        1.50887470833621
N            0.31238977034758        2.07067427098208        0.65193736800696
C           -1.29695700510141       -1.39996043042223        2.41574187746061
C           -0.38243517664656       -2.18060797534842        3.13232615520648
N            0.91308504082021       -1.90366887689689        3.30325166013478
C            1.37712470144904       -0.74872102533751        2.81811050966982
C            2.52149331701875       -0.17739833758153        3.39379298866852
C            2.95849061756259        1.02681208890480        2.95105897606587
C            2.24288949469137        1.78498308775960        2.03503020483770
C           -2.74860936222260       -1.74497937691422        2.38401158947411
C           -3.09416315450955       -2.91614440870436        3.00571134491758
C           -2.16786021984049       -3.77788778654213        3.63251872101904
C           -0.85708937311598       -3.40495313382985        3.68547234358092
O           -3.71994433332149       -0.94984598373544        1.67726658385724
O           -2.55702603277562       -1.47241711578389       -0.57241635275616
C           -3.84297843593025        3.13357444054366       -1.60938954875544
C           -2.68769581069131       -5.03867041417370        4.30484659386931
H           -1.39666850744143        3.51251503834900       -0.76806311868865
H           -4.27662633836220        0.55105838579656       -1.33106614114542
H            2.66329581305412        2.73912661909249        1.72562431984580
H            3.05775395548473       -0.69369546277216        4.16536137542516
H           -0.24710966264510       -4.12034095424229        4.22946223699121
H           -4.11477991332403       -3.04712728052358        3.03244694615357
O           -4.21824883374556        4.03433712717988       -0.87713382485991
O           -4.44510595673734        2.90643496899600       -2.81853501752979
C           -5.44216520282800        3.83300025693726       -3.02488532025093
C            4.23586651889298        1.50004220933226        3.59165660008449
O            5.05927614697201        0.66079890002952        3.91714215179376
O            4.47001334453535        2.86385149488593        3.72605651435371
C            5.79457498613219        3.08584475587818        4.15829123132174
O           -3.82227255313510       -5.27347675879771        4.16636005494405
O           -1.85023202017753       -5.79767454267276        5.06656077253571
C           -2.55119635829503       -6.86252441382958        5.62930343183426
C           -5.07197156564436       -1.42399175670916        1.58830531863830
C           -1.33089900128490       -2.23622472573986       -0.99264499351172
H           -2.54510546830388       -7.76426885143998        4.99136022291012
H           -3.57194749219491       -6.44405511486021        5.74196173723541
H           -2.09133598235598       -7.02043774843818        6.64022264233588
H            5.72707967266424        3.46798026205549        5.10135971236643
H            6.34060091246885        3.78468702308830        3.50069950143490
H            6.17933064298187        2.03010500085905        4.19342358084693
H           -0.91862729772622       -2.57650129080332       -0.01361370304871
H           -0.49769766914251       -1.60651221708571       -1.34094446550576
H           -1.52632419730509       -2.94569707152159       -1.75361447637286
H           -5.11788846557077       -2.41810833635233        1.17520213188926
H           -5.67929807973498       -0.69619639428435        1.04301666067831
H           -5.57598832326623       -1.42383358739762        2.57928294206544
H           -6.13050215934830        3.76035386975488       -2.23272855695873
H           -5.86615610071888        3.45938329385866       -4.02668959924245
H           -5.13479557532099        4.87790991548477       -2.98314551356402
C           -1.38192942069774        3.73616555005018        2.91232598411686
C           -1.84821468128685        2.59982427735607        3.49755545445181
C           -1.05946531454833        2.05730632010638        4.60922730982276
C            0.19893954712228        2.69376791964407        4.86302140881997
C            0.50425395911860        3.94630308659851        4.28768785650746
C           -0.26031777722226        4.46998310053134        3.25072669343212
C           -1.20488993561782        0.74454293276906        5.14851520323437
C           -0.06287609782692        0.02744069315890        5.60930570802864
C            1.19208754369866        0.71421540266195        5.78882868583885
N            1.19428660993148        2.06344359410476        5.62744624321596
C           -2.41361422770794        0.07928500213936        5.25249410304426
C           -2.45851584031083       -1.32662100968547        5.60237876023992
N           -1.29466212405906       -1.98318595734370        5.89916817085159
C           -0.14475655767527       -1.32117560077092        5.98824682881008
C            0.97209270935794       -1.98958449505532        6.53157704134458
C            2.21982707914082       -1.36973967291181        6.68703967237737
C            2.30561929262884       -0.09745313075593        6.26436900324455
C           -3.73018485967715        0.71367583494582        5.25810242262992
C           -4.89964478833448       -0.06184623426677        5.21204641615509
C           -4.82617965800088       -1.39228978090841        5.46901303780036
C           -3.67144193418464       -1.98914944386360        5.67265433266067
O           -3.75568638935321        2.07705011038914        5.52067969627343
O           -2.94192434743730        1.91263938797883        3.01658762327703
C            0.21273512614467        5.50086066357994        2.34765104514621
C           -6.06660304520411       -2.17604633098929        5.80641622556876
H            1.41756699010566        4.38133362238595        4.66974005703471
H           -1.82880610647429        4.11982501512100        2.06992133318584
H            3.26888037378556        0.32655662585251        6.31721410015598
H            0.87146188387207       -3.08471526305024        6.57830423410869
H           -3.67716811065157       -3.05999292755990        5.83019634570050
H           -5.77379677507622        0.43595144608221        4.71017130754348
O            1.34459852619901        5.82615848916894        2.44941456579099
O           -0.74718748219123        6.07961784856304        1.59848183464284
C           -0.21473095568964        7.24015934882472        1.05753806029483
C            3.53228080814219       -2.00967610361154        7.02506769044485
O            3.64093082622715       -3.14437803815732        7.50071391725347
O            4.56565258381079       -1.22937033368332        6.69086985080897
C            5.72579357310716       -1.80692399125161        7.22246151275881
O           -7.04801223588612       -1.95726935745904        5.14194115322235
O           -6.01514389321278       -2.93743591896022        6.94765316328794
C           -7.21292732384718       -3.62681918543340        7.15115816329978
C           -4.95459780685163        2.65960679932188        5.86868674392943
C           -3.68284113682406        2.59129188358641        2.05479246020704
H           -7.43119628931628       -4.22607794725959        6.20622607140901
H           -8.06548455146707       -2.91765848248592        7.29781126410398
H           -7.07314693247270       -4.33087306029711        7.91223421050944
H            6.57332189837178       -1.29353136199234        6.78341268688262
H            5.74663761932316       -2.84282155125561        6.88089468184451
H            5.69426191474290       -1.72781984964892        8.29460302186842
H           -4.10481209541493        3.44288266176275        2.60483747673152
H           -4.49244774344916        1.87419893016926        1.82433103764650
H           -3.18901540870812        2.85154642679373        1.06781919454921
H           -5.55414326821421        2.76698137191684        4.93950725322359
H           -4.78658370641210        3.62090640967288        6.25983200635257
H           -5.43485580473958        1.97242995129449        6.65265772412460
H            0.89164886030839        7.38838561720231        1.13776105146914
H           -0.62894889903848        8.04195665205089        1.64837664327952
H           -0.59282546386754        7.45699159724320        0.03719083132488
116
 energy: -22.749960481809 gnorm: 0.441972610954 xtb: 6.6.1 (8d0f1dd)
C           -3.46609884882524       -0.06128288025404       -2.02644835437455
C           -2.71546251622750       -0.77677329459351       -1.08435977904439
C           -1.79681753468070       -0.11339980796905       -0.28248083855040
C           -1.47982174076666        1.24248121870901       -0.56931885451316
C           -2.35092626557926        2.07019309757780       -1.48636559338677
C           -3.28525343069850        1.36456219401349       -2.34539502201469
C           -1.03128744041554       -0.75455828012422        0.82498853265544
C            0.23059365492947       -0.26003712565810        1.15899671198035
C            0.53208772541735        1.09333002691953        0.74107919448222
N           -0.43123877779334        1.82584651956786        0.13770776572031
C           -1.48201711232442       -1.71358400768240        1.82358592363195
C           -0.58922712142219       -2.34864579063634        2.81076166597075
N            0.65796130979901       -1.96471308491201        2.89026511586878
C            0.96405792382934       -0.85523235218560        2.27018158470424
C            2.08444685343635       -0.13805238664358        2.78721058026874
C            2.45774856759447        1.11199371764098        2.27072994501343
C            1.67711938039699        1.76912828430932        1.27150247619013
C           -2.86758614249499       -2.03911163838616        1.80517311523123
C           -3.28103417505715       -3.18188012508294        2.42840495757945
C           -2.36845819032743       -3.96467908230079        3.14064914875954
C           -0.98951310232457       -3.51970168815485        3.38953348174031
O           -3.74965608739394       -1.13671718383043        1.16542631944136
O           -2.94827226067926       -2.17740035379319       -0.93465593782216
C           -4.12466899035232        2.22343444927980       -3.24376505717914
C           -2.71269392697466       -5.20740994289311        3.96549708246612
H           -2.30780369407825        3.15638706517012       -1.50353380050570
H           -3.95173205256524       -0.83537453888611       -2.59646238877992
H            1.91690671306060        2.80629038081265        1.01299902503729
H            2.60322452057391       -0.50825682810455        3.62357602488478
H           -0.32313458400995       -4.04200980931088        3.93384752188953
H           -4.27847673150487       -3.60455233637034        2.31021897651928
O           -3.51950753661631        2.89743635835966       -4.08617058632991
O           -5.49358044104144        2.22946126948082       -3.02548068924520
C           -5.96446788037454        3.18851231478247       -4.00018800068638
C            3.61754540325693        1.67533148653854        3.07057088698786
O            4.34140283082986        1.38151868941412        4.05928837194377
O            3.95874372375815        2.92564645214528        2.44926724400685
C            4.74332556757393        3.69857147378663        3.18359193748086
O           -3.82308221719968       -5.32781532499991        4.49172131818526
O           -1.72555953652188       -6.03608151165605        4.38042729742553
C           -2.08414937165549       -7.13812327290673        5.22275669284735
C           -5.15028743640005       -0.91627689135066        1.45806804350062
C           -2.02514117795505       -3.03710117431010       -1.61590670444379
H           -1.59179728734669       -7.95997101565139        4.78813449144890
H           -3.18589312939030       -7.23387620741065        5.18100567659453
H           -1.63987342146236       -7.14735359847629        6.20418268110460
H            5.62003626620283        3.08982903709056        3.44624910899870
H            4.14157732379444        4.18044434307851        4.02961010167481
H            5.10805414345986        4.49948954144864        2.59067616219092
H           -1.41960380100293       -2.46581326660931       -2.21683730085061
H           -2.52780694578614       -3.97816466030563       -1.80819248619947
H           -1.39579963813276       -3.34215650785089       -0.63752494680855
H           -5.79713485401413       -1.57821230905887        0.80851761097544
H           -5.42738496404797        0.08391466769118        1.17721485767698
H           -5.20457860250140       -0.96130715401486        2.47384574126984
H           -6.93779274789081        3.56325831427136       -3.57466375506828
H           -6.18855747696420        2.81531898074268       -4.91602776993037
H           -5.13937363843374        3.96337213063171       -4.16950736325535
C           -1.19195737791242        4.09968933831770        3.87779099207797
C           -1.45113637167283        2.80057584720152        4.32877256310892
C           -0.42876612142200        2.17292443245824        5.19252595812390
C            0.85111342853161        2.69580916700468        5.48250760351896
C            1.04377556108055        3.91085167366558        4.95921484469425
C            0.09252815213038        4.57557116138948        4.13318879002435
C           -0.64663565596124        0.87544590335456        5.65780622015048
C            0.51835396957513        0.05360928192145        5.90638633683445
C            1.71698260763213        0.67038675471509        6.08998459129234
N            2.00044689077278        1.96991218358269        5.90608943520477
C           -1.90349246297925        0.30004496198865        6.07079134843342
C           -2.07620109607267       -1.03126249534485        5.97068828886542
N           -1.05257484269498       -1.84291827321001        6.17748095843854
C            0.17316371910682       -1.28874783309460        6.23252402739409
C            1.26155312708068       -1.95933355858605        6.84323772034436
C            2.44966232294221       -1.35019527233825        6.98412725767975
C            2.74398975447045       -0.12336439216891        6.49971110335738
C           -3.06701557916535        1.09285105925966        6.28518591579666
C           -4.33499256450804        0.56466869693962        6.17951292438272
C           -4.52716560932408       -0.76116627257131        5.88345684378412
C           -3.39353706165686       -1.57400715184316        5.83391626924325
O           -2.94459974147679        2.46690934077792        6.66478252014954
O           -2.52232276369343        1.94334408456637        3.85792682751148
C            0.28098828011274        6.06067462451916        4.10176880287011
C           -5.88009709520604       -1.36241505734969        5.98682499263132
H            1.92914692963436        4.52797193140605        5.28507519182211
H           -1.87307074025952        4.70130047308708        3.28049103660430
H            3.75415886494351        0.22034359616603        6.38276512117042
H            1.40701714250330       -2.99731322383265        7.01780086220505
H           -3.48341749521117       -2.59383492118862        5.59637162083285
H           -5.26802117243821        1.25838105700573        6.33803108508872
O            1.30395168517149        6.40125896221877        4.72390344346862
O           -0.72897239020872        6.67118257031431        3.38771774385386
C           -0.05484071506167        7.81775195396956        2.90834032625883
C            3.54841577446095       -2.06389667061787        7.68602207291750
O            3.37789096451049       -3.21026831974124        7.94582620157810
O            4.62886341576545       -1.29348388333638        7.97205312680293
C            5.59388519191485       -1.78398283929516        8.87367582941247
O           -6.70585231690816       -0.67747668536362        6.59551660148113
O           -6.22198872844444       -2.59709224566314        5.53622654764462
C           -7.51617933469153       -2.94285318925648        6.08329879819461
C           -4.08133663530129        3.41529630300920        6.46409928324689
C           -2.88812008150181        1.64283065411776        2.48578383490236
H           -8.17051811584057       -2.04378493148856        6.20757007726765
H           -7.10328467392380       -3.36784453492194        6.98869426804792
H           -7.87464913291418       -3.80331172359805        5.45108948737524
H            6.51076702279999       -1.28409906029876        8.46800381342099
H            5.65575438252788       -2.81667774549698        8.72752938171320
H            5.41408097440420       -1.36755259694856        9.86735618841806
H           -3.15094359231835        0.59738251404209        2.57617794978920
H           -1.97195041957879        1.68855917885672        1.88623303621455
H           -3.87948053226208        2.03304704933473        2.26997270432393
H           -4.27067365346305        3.23171479821939        5.46017682791488
H           -3.84588710354162        4.42126351789972        6.52092493764583
H           -4.89012120576263        3.35073516645134        7.23817864522703
H           -0.81415064636484        8.58990627602419        2.65128065235162
H            0.61694444796142        7.69831648396146        2.01537176004729
H            0.46850793081742        8.22415053036952        3.70437765236349
116
 energy: -22.753555263258 gnorm: 0.441013829547 xtb: 6.6.1 (8d0f1dd)
C           -3.29451228777698       -0.39314396391587       -2.13932779317071
C           -2.57689999087012       -0.84545447358393       -1.02451816436351
C           -1.94598783466712        0.10883141057177       -0.15812552954120
C           -1.50231801409001        1.35199117911473       -0.78054353484250
C           -2.33365781306633        1.79740211094535       -1.84564980781062
C           -3.06200442970809        0.91593882000889       -2.65556778995026
C           -1.35320512472072       -0.28077667749382        1.10573258963040
C           -0.20636069294487        0.44368417171752        1.44808964051881
C            0.25625057526273        1.61859713563598        0.77806235402848
N           -0.46535283522783        2.11243278814661       -0.30438800341289
C           -1.73328584221248       -1.26157087064250        2.05101039659230
C           -0.68142757883430       -2.00607891936520        2.72098820550516
N            0.60501495631665       -1.55530234141478        2.80387694159551
C            0.74823142265978       -0.20550938887119        2.37563358274996
C            1.80823454926363        0.51330526736508        2.92387746950611
C            2.13372300081121        1.71278662411653        2.32591609752118
C            1.48620670653999        2.19306374801488        1.22808478557249
C           -3.14666081447763       -1.60127048426185        2.35068800379890
C           -3.47013825529990       -2.72216443932373        3.08399102475322
C           -2.40869120214621       -3.44929977222597        3.68958084063570
C           -1.08402063166773       -3.23815349515611        3.26346673865072
O           -4.11395556259724       -0.77475262564101        1.75606281857292
O           -2.60997165985481       -2.24711765394443       -0.78712393408023
C           -3.91706433900668        1.11634186681931       -3.90691918506050
C           -2.73637526008429       -4.72682416920105        4.44953306362690
H           -2.02769358747207        2.75803360315588       -2.21824046888152
H           -4.00143402294333       -1.16006095021933       -2.56002996973730
H            1.76188877329506        3.18889189278098        0.87192077217773
H            2.37468497657264        0.05292770409679        3.70860012354466
H           -0.40321752218799       -3.91005485718574        3.59889571775035
H           -4.49019416592828       -3.18371711639710        3.02872928118303
O           -4.64718968074843        2.09019261690309       -3.96819534761253
O           -4.14680259349346       -0.03516116311883       -4.66673522883591
C           -5.33542726513318       -0.01846202590397       -5.36594908227582
C            3.21151103756219        2.59788580145356        2.78027821677383
O            4.05706230172789        1.96693327848250        3.36381969942274
O            2.99970977408124        3.91336211000798        2.35370379364922
C            4.21711918023291        4.56154709875036        2.74115722211094
O           -3.90004131147019       -4.92848895890018        4.77945810054785
O           -1.66580043685877       -5.62683560269206        4.70606288825534
C           -2.02027503414953       -6.82912945810070        5.47677408384555
C           -5.51491086740840       -1.18539139113765        1.81881015660144
C           -2.53996503748171       -3.22534468711631       -1.92524759883378
H           -2.64795386315539       -6.43560549912065        6.35709925529193
H           -1.17657260525359       -7.37501532223683        5.74056415774126
H           -2.77102987591680       -7.37210612956261        4.87459430302769
H            3.82043113822827        4.82470616196309        3.78608423986613
H            4.51050688424257        5.30723829092707        2.06415372382633
H            5.06805006843098        3.89055968246250        2.82617178535105
H           -1.46444724189482       -2.93953617570736       -2.39202301951289
H           -3.11323631977416       -2.89472432935010       -2.89755959875719
H           -2.63120836455598       -4.24387887322485       -1.66208175954837
H           -5.48800417309116       -2.18310267047720        1.37882101982566
H           -6.21303050564767       -0.60179123818011        1.10702284541814
H           -5.86592529748609       -1.38185979582918        2.72438860564303
H           -6.19995508105537        0.55711659240905       -4.88463793262224
H           -5.62748682425394       -1.10673847453803       -5.54827745731135
H           -5.35917512719860        0.55189561106615       -6.35158287715379
C           -0.60181952416415        4.55966087523300        4.65660801476854
C           -1.12523323036146        3.28084773753619        4.74994773346301
C           -0.25962379747619        2.33214372399779        5.50305878219120
C            1.16627417719381        2.68331305520450        5.71356476809487
C            1.54036264633507        4.02784211773087        5.46650790143113
C            0.72189979414722        5.02508061677743        5.00737776319024
C           -0.81514545806901        1.05943438773458        5.95326918986428
C            0.24259962198313        0.10851372307776        6.01140114812558
C            1.62306190527183        0.55367832381667        6.21593248581850
N            2.08875863925796        1.79692656245996        5.98489479866551
C           -2.12177335401144        0.59950195371990        6.15518372667242
C           -2.34206604965510       -0.83599575994694        6.00371981781497
N           -1.34928964252504       -1.70088338549813        6.23411434996736
C           -0.07804525478896       -1.25184640458160        6.25740744861384
C            0.97111784981477       -2.19203240535630        6.51194411715339
C            2.22414248838565       -1.69319112082378        6.81703015756560
C            2.57885953944173       -0.35615612648521        6.73212869810164
C           -3.39354630467995        1.34019650260114        6.47841700413523
C           -4.60322788951522        0.63207545740733        6.15868191037071
C           -4.73199897768805       -0.78560357927165        5.86936126208532
C           -3.56482874379213       -1.51298614075527        5.76850852187625
O           -3.26713130651948        2.66302225955386        6.88868636317244
O           -2.38353052221139        3.02431303014481        4.24531372614955
C            1.26106783321033        6.31374970287076        4.70771748410296
C           -6.13099560511264       -1.46865882707207        5.73168738289689
H            2.60480202679692        4.35823385821608        5.53264707460344
H           -1.30610783304624        5.34154609643490        4.37882228301155
H            3.56659909026962        0.20771742457149        6.81645810908118
H            0.78507843659314       -3.27872603632087        6.41429885951219
H           -3.59010162460361       -2.65380111335902        5.64083876517055
H           -5.40206786771550        1.32565710261810        5.98384195730671
O            2.40775321109857        6.61047566329695        5.04026983949613
O            0.33500652035018        7.33119064707354        4.33060186642651
C            1.22385410939311        8.44771950367773        4.01027707534731
C            3.30238296366167       -2.64668262891082        6.94702393555494
O            3.00621880686796       -3.87004518898973        6.88858428792766
O            4.64405901617983       -2.12606807426725        7.08792395326720
C            5.68414894058346       -3.10673923369432        7.22329723305446
O           -7.13834079727286       -0.90828569855208        5.88290319491738
O           -6.03252082769117       -2.84568209453806        5.72296174499067
C           -7.15134874402458       -3.42051672987702        5.27031556436927
C           -4.20473407218463        3.06380000719325        7.90230330504706
C           -2.34658322704692        1.98648572618272        3.22606980136124
H           -7.99090021395158       -2.82161210701309        5.66257181433886
H           -7.14060710959279       -4.52110963489783        5.49247446460443
H           -7.43216639306779       -3.06766739000706        4.25016681546396
H            5.34922845993045       -4.10705446813175        7.64004437869787
H            6.53297895639749       -2.70557153168881        7.79122612536695
H            6.33479444029999       -3.37723067378917        6.30837016873830
H           -1.28667801591510        1.73156529909327        3.12078280887244
H           -2.69650273746892        2.40239161973828        2.25650623577061
H           -2.60096838302312        1.01695120812236        3.51860639898110
H           -5.07402989183329        3.41180157537978        7.38525900868162
H           -3.85799449108957        3.96964968283240        8.39213391696135
H           -4.15973751856554        2.14362274557256        8.40355672213113
H            1.99632152146674        8.72751188516605        4.73633504710654
H            0.62259221362703        9.27762109848739        3.79909978273978
H            1.61782719781029        8.29882419625403        2.95259708293878
116
 energy: -22.792833899880 gnorm: 0.425330216643 xtb: 6.6.1 (8d0f1dd)
C           -3.08507619599186       -0.51326043369482       -2.31502085962060
C           -2.38208081217919       -1.06158743416970       -1.25502207935168
C           -1.78009840865617       -0.04062645816915       -0.35336799569369
C           -1.40313584676354        1.20262347762644       -0.98846957781055
C           -2.12014716949400        1.57507795100329       -2.11327972451655
C           -2.91503134927798        0.71489655223708       -2.75057675321045
C           -1.13169002850674       -0.39514338588520        0.89726232859717
C           -0.01276880532768        0.45724665611727        1.21056703651253
C            0.13196392903640        1.68107121282284        0.53076202797919
N           -0.54559512366851        2.12895862994190       -0.55207806537877
C           -1.47046173349997       -1.47103695272043        1.79085807648162
C           -0.41529219009990       -1.78599030029104        2.67531273542429
N            0.82938762666253       -1.13186818464963        2.73532879825466
C            0.95473567997481        0.10970826334952        2.20326191878884
C            1.96777465803979        0.96907863738209        2.48163026840594
C            1.88632132120802        2.28396016283064        2.04969869746195
C            0.93765255169596        2.62072631033346        1.12499720324619
C           -2.72723601022280       -2.09321501618745        2.02529106585817
C           -2.84169766296861       -3.05814182076416        3.02295956859048
C           -1.85592104025288       -3.36285760202005        4.00292475274855
C           -0.60301073205057       -2.78609614936283        3.66951458522794
O           -3.88654724773332       -1.59081729532874        1.28004391335634
O           -2.44645543854133       -2.46177540360219       -1.04831824270949
C           -3.45599592838435        1.13096903746193       -4.11732896552514
C           -1.87267419894884       -4.41017028600445        5.01260724553608
H           -1.86617991281392        2.46952042313211       -2.64126115185341
H           -3.68712678088195       -1.15472209381064       -3.00110270913201
H            0.96775814523931        3.65733965128088        0.70569317232556
H            2.62496073084620        0.83882033057907        3.30902860581211
H            0.29352215630536       -3.00002176920911        4.12865233941759
H           -3.81536770012871       -3.58902676779054        2.99200184374850
O           -3.32970760583292        2.26497766162993       -4.41605165665344