Optimization of monomers started
      -----------------------------------------------------------      
     |                   =====================                   |     
     |                           x T B                           |     
     |                   =====================                   |     
     |                         S. Grimme                         |     
     |          Mulliken Center for Theoretical Chemistry        |     
     |                    University of Bonn                     |     
      -----------------------------------------------------------      

   * xtb version 6.7.1 (edcfbbe) compiled by 'runner@Mac-1732539442253.local' on 2024-11-25

   xtb is free software: you can redistribute it and/or modify it under
   the terms of the GNU Lesser General Public License as published by
   the Free Software Foundation, either version 3 of the License, or
   (at your option) any later version.
   
   xtb is distributed in the hope that it will be useful,
   but WITHOUT ANY WARRANTY; without even the implied warranty of
   MERCHANTABILITY or FITNESS FOR A PARTICULAR PURPOSE.  See the
   GNU Lesser General Public License for more details.
   
   Cite this work as:
   * C. Bannwarth, E. Caldeweyher, S. Ehlert, A. Hansen, P. Pracht,
     J. Seibert, S. Spicher, S. Grimme, WIREs Comput. Mol. Sci., 2020, 11,
     e01493. DOI: 10.1002/wcms.1493
   
   for GFN2-xTB:
   * C. Bannwarth, S. Ehlert and S. Grimme., J. Chem. Theory Comput., 2019,
     15, 1652-1671. DOI: 10.1021/acs.jctc.8b01176
   for GFN1-xTB:
   * S. Grimme, C. Bannwarth, P. Shushkov, J. Chem. Theory Comput., 2017,
     13, 1989-2009. DOI: 10.1021/acs.jctc.7b00118
   for GFN0-xTB:
   * P. Pracht, E. Caldeweyher, S. Ehlert, S. Grimme, ChemRxiv, 2019, preprint.
     DOI: 10.26434/chemrxiv.8326202.v1
   for GFN-FF:
   * S. Spicher and S. Grimme, Angew. Chem. Int. Ed., 2020, 59, 15665-15673.
     DOI: 10.1002/anie.202004239
   
   for ALPB and GBSA implicit solvation:
   * S. Ehlert, M. Stahn, S. Spicher, S. Grimme, J. Chem. Theory Comput.,
     2021, 17, 4250-4261. DOI: 10.1021/acs.jctc.1c00471
   
   for ddCOSMO and CPCM-X implicit solvation:
   * M. Stahn, S. Ehlert, S. Grimme, J. Phys. Chem. A,
     2023, XX, XXXX-XXXX. DOI: 10.1021/acs.jpca.3c04382
   
   for DFT-D4:
   * E. Caldeweyher, C. Bannwarth and S. Grimme, J. Chem. Phys., 2017,
     147, 034112. DOI: 10.1063/1.4993215
   * E. Caldeweyher, S. Ehlert, A. Hansen, H. Neugebauer, S. Spicher,
     C. Bannwarth and S. Grimme, J. Chem. Phys., 2019, 150, 154122.
     DOI: 10.1063/1.5090222
   * E. Caldeweyher, J.-M. Mewes, S. Ehlert and S. Grimme, Phys. Chem. Chem. Phys.
     2020, 22, 8499-8512. DOI: 10.1039/D0CP00502A
   
   for sTDA-xTB:
   * S. Grimme and C. Bannwarth, J. Chem. Phys., 2016, 145, 054103.
     DOI: 10.1063/1.4959605
   
   in the mass-spec context:
   * V. Asgeirsson, C. Bauer and S. Grimme, Chem. Sci., 2017, 8, 4879.
     DOI: 10.1039/c7sc00601b
   * J. Koopman and S. Grimme, ACS Omega 2019, 4, 12, 15120-15133.
     DOI: 10.1021/acsomega.9b02011
   
   for metadynamics refer to:
   * S. Grimme, J. Chem. Theory Comput., 2019, 155, 2847-2862
     DOI: 10.1021/acs.jctc.9b00143
   
   for SPH calculations refer to:
   * S. Spicher and S. Grimme, J. Chem. Theory Comput., 2021, 17, 1701-1714
     DOI: 10.1021/acs.jctc.0c01306
   
   for ONIOM refer to:
   * C. Plett, A. Katbashev, S. Ehlert, S. Grimme, M. Bursch,
     Phys. Chem. Chem. Phys., 2023, 25, 17860-17868. DOI: 10.1039/D3CP02178E
   
   for DIPRO refer to:
   * J. Kohn, N. Gildemeister, S. Grimme, D. Fazzi, A. Hansen,
     J. Chem. Phys., 2023, just accepted.
   
   for PTB refer to:
   * S. Grimme, M. Mueller, A. Hansen, J. Chem. Phys., 2023, 158, 124111.
     DOI: 10.1063/5.0137838
   
   with help from (in alphabetical order)
   P. Atkinson, C. Bannwarth, F. Bohle, G. Brandenburg, E. Caldeweyher
   M. Checinski, S. Dohm, S. Ehlert, S. Ehrlich, I. Gerasimov, C. Hölzer
   A. Katbashev, J. Kohn, J. Koopman, C. Lavigne, S. Lehtola, F. März, M. Müller,
   F. Musil, H. Neugebauer, J. Pisarek, C. Plett, P. Pracht, F. Pultar,
   J. Seibert, P. Shushkov, S. Spicher, M. Stahn, M. Steiner, T. Strunk,
   J. Stückrath, T. Rose, and J. Unsleber
   
 * started run on 2025/03/11 at 13:58:21.215     
   ID    Z sym.   atoms
    1    6 C      1-21, 25-44, 47, 52-75
    2    8 O      22, 23, 45, 46, 48-51
    3    5 B      24
    4    1 H      76-141

           -------------------------------------------------
          |                Calculation Setup                |
           -------------------------------------------------

          program call               : xtb Katherine1.mol --opt tight --cycles 500 --chrg -1 --uhf 2 --spinpol --tblite
          coordinate file            : Katherine1.mol
          omp threads                :                     8

########################################################################
[WARNING] Please study the warnings concerning your input carefully
-1- prog_main: Charge in sdf/mol input was overwritten
########################################################################
repulsion energy          2.8095451010688E+00 Eh
dispersion energy         2.8033149374234E-03 Eh
interaction energy        0.0000000000000E+00 Eh
number of electrons       3.8200000000000E+02 e
integral cutoff           1.9311100799991E+01 bohr

------------------------------------------------------------
  cycle        total energy    energy error   density error
------------------------------------------------------------
      1     -208.1765921153  -2.1098894E+02   1.0920567E-01
      2     -209.0155337847  -8.3894167E-01   5.2941150E-02
      3     -209.0064685648   9.0652198E-03   2.8292035E-02
      4     -209.0779318942  -7.1463329E-02   1.3827702E-02
      5     -209.1247254210  -4.6793527E-02   5.1414225E-03
      6     -209.1296829571  -4.9575361E-03   2.8900536E-03
      7     -209.1313824981  -1.6995410E-03   1.7031798E-03
      8     -209.1319160954  -5.3359727E-04   6.9846213E-04
      9     -209.1319616081  -4.5512688E-05   4.5418763E-04
     10     -209.1319782358  -1.6627684E-05   2.2580603E-04
     11     -209.1319803977  -2.1619100E-06   1.3241374E-04
     12     -209.1319827404  -2.3427820E-06   6.3529228E-05
     13     -209.1319829885  -2.4805291E-07   3.2263410E-05
     14     -209.1319830913  -1.0277981E-07   1.5270773E-05
------------------------------------------------------------

electronic energy        -2.1194433150728E+02 Eh
total energy             -2.0913198309128E+02 Eh

 total:                                   1.826 sec
 - repulsion                              0.001 sec (  0%)
 - dispersion                             0.025 sec (  1%)
 - coulomb                                0.006 sec (  0%)
 - hamiltonian                            0.024 sec (  1%)
 - scc                                    1.770 sec ( 96%)

      ----------------------------------------------------------- 
     |                   =====================                   |
     |                        A N C O P T                        |
     |                   =====================                   |
     |               Approximate Normal Coordinate               |
     |                Rational Function Optimizer                |
      ----------------------------------------------------------- 
      ----------------------------------------------------------- 
     |                   =====================                   |
     |                        A N C O P T                        |
     |                   =====================                   |
     |               Approximate Normal Coordinate               |
     |                Rational Function Optimizer                |
      ----------------------------------------------------------- 

          ...................................................
          :                      SETUP                      :
          :.................................................:
          :   optimization level             tight          :
          :   max. optcycles                   500          :
          :   ANC micro-cycles                  20          :
          :   degrees of freedom               417          :
          :.................................................:
          :   RF solver                   davidson          :
          :   write xtbopt.log                true          :
          :   linear?                        false          :
          :   energy convergence         0.1000000E-05 Eh   :
          :   grad. convergence          0.8000000E-03 Eh/α :
          :   maxmium RF displ.          1.0000000          :
          :   Hlow (freq-cutoff)         0.1000000E-01      :
          :   Hmax (freq-cutoff)         5.0000000          :
          :   S6 in model hess.         20.0000000          :
          ...................................................

generating ANC from exact Hessian ...
Using Lindh-Hessian (1995)
 Shifting diagonal of input Hessian by    9.9756641174003954E-003
 Lowest  eigenvalues of input Hessian
    0.000000    0.000000    0.000000    0.000000    0.000000    0.000000
    0.010000    0.010015    0.010017    0.010101    0.010130    0.010326
    0.010335    0.010393    0.010519    0.010634    0.010734    0.010761
 Highest eigenvalues
    1.991351    1.993531    2.194923    2.196995    2.223459    2.224924


........................................................................
.............................. CYCLE    1 ..............................
........................................................................
------------------------------------------------------------
  cycle        total energy    energy error   density error
------------------------------------------------------------
      1     -209.1319827860  -2.1194433E+02   2.9134463E-05
      2     -209.1319827294   5.6631791E-08   2.9445567E-05
      3     -209.1319831114  -3.8197749E-07   5.2673765E-06
------------------------------------------------------------

 total:                                   0.698 sec
 * total energy  :  -209.1319831 Eh     change       -0.2007474E-07 Eh
   gradient norm :     0.2281725 Eh/α   predicted     0.0000000E+00 (-100.00%)
   displ. norm   :     0.5573864 α      lambda       -0.1025699E+00
   maximum displ.:     0.2020050 α      in ANC's #162, #241, #224, ...

........................................................................
.............................. CYCLE    2 ..............................
........................................................................
------------------------------------------------------------
  cycle        total energy    energy error   density error
------------------------------------------------------------
      1     -209.2055837690  -2.1213503E+02   6.6576350E-03
      2     -209.2059014437  -3.1767466E-04   4.3843118E-03
      3     -209.2050281684   8.7327531E-04   3.1689641E-03
      4     -209.2076190658  -2.5908974E-03   7.3914004E-04
      5     -209.2077896532  -1.7058744E-04   3.1556535E-04
      6     -209.2078046249  -1.4971729E-05   2.1541449E-04
      7     -209.2078062601  -1.6351770E-06   1.0834791E-04
      8     -209.2078086059  -2.3457745E-06   4.2106702E-05
      9     -209.2078087594  -1.5351864E-07   2.4319399E-05
     10     -209.2078087986  -3.9178303E-08   1.0104929E-05
------------------------------------------------------------

 total:                                   1.478 sec
 * total energy  :  -209.2078088 Eh     change       -0.7582569E-01 Eh
   gradient norm :     0.1226144 Eh/α   predicted    -0.6722975E-01 ( -11.34%)
   displ. norm   :     0.5675113 α      lambda       -0.5044647E-01
   maximum displ.:     0.2172126 α      in ANC's #154, #90, #162, ...

........................................................................
.............................. CYCLE    3 ..............................
........................................................................
------------------------------------------------------------
  cycle        total energy    energy error   density error
------------------------------------------------------------
      1     -209.2385423371  -2.1227565E+02   4.8264491E-03
      2     -209.2390438648  -5.0152768E-04   3.3731168E-03
      3     -209.2390623337  -1.8468862E-05   2.0401492E-03
      4     -209.2399873746  -9.2504088E-04   5.4548567E-04
      5     -209.2400639858  -7.6611271E-05   2.5678092E-04
      6     -209.2400729499  -8.9641135E-06   1.6372018E-04
      7     -209.2400722171   7.3284249E-07   9.7298901E-05
      8     -209.2400748782  -2.6610655E-06   3.0458783E-05
      9     -209.2400749532  -7.5046756E-08   1.8321413E-05
------------------------------------------------------------

 total:                                   1.259 sec
 * total energy  :  -209.2400750 Eh     change       -0.3226615E-01 Eh
   gradient norm :     0.0379994 Eh/α   predicted    -0.3334688E-01 (   3.35%)
   displ. norm   :     0.5627202 α      lambda       -0.1444764E-01
   maximum displ.:     0.1709291 α      in ANC's #90, #36, #30, ...

........................................................................
.............................. CYCLE    4 ..............................
........................................................................
------------------------------------------------------------
  cycle        total energy    energy error   density error
------------------------------------------------------------
      1     -209.2506433732  -2.1232217E+02   3.3008215E-03
      2     -209.2506949949  -5.1621667E-05   1.9504045E-03
      3     -209.2503936288   3.0136602E-04   1.0620985E-03
      4     -209.2507516620  -3.5803320E-04   1.5947751E-04
      5     -209.2507598817  -8.2196558E-06   8.1688008E-05
      6     -209.2507605998  -7.1807773E-07   4.6406444E-05
      7     -209.2507605615   3.8301437E-08   2.1281139E-05
      8     -209.2507606804  -1.1894366E-07   9.3522933E-06
------------------------------------------------------------

 total:                                   1.014 sec
 * total energy  :  -209.2507607 Eh     change       -0.1068573E-01 Eh
   gradient norm :     0.0226552 Eh/α   predicted    -0.9511270E-02 ( -10.99%)
   displ. norm   :     0.6179223 α      lambda       -0.8079545E-02
   maximum displ.:     0.2252721 α      in ANC's #30, #21, #36, ...

........................................................................
.............................. CYCLE    5 ..............................
........................................................................
------------------------------------------------------------
  cycle        total energy    energy error   density error
------------------------------------------------------------
      1     -209.2568414789  -2.1235762E+02   2.8145849E-03
      2     -209.2568603981  -1.8919203E-05   1.6506848E-03
      3     -209.2567004272   1.5997089E-04   7.1321139E-04
      4     -209.2568801280  -1.7970079E-04   1.0419742E-04
      5     -209.2568838148  -3.6867536E-06   5.0686009E-05
      6     -209.2568841085  -2.9369687E-07   2.7237674E-05
      7     -209.2568841077   8.2292217E-10   1.2118142E-05
------------------------------------------------------------

 total:                                   1.078 sec
 * total energy  :  -209.2568841 Eh     change       -0.6123427E-02 Eh
   gradient norm :     0.0161048 Eh/α   predicted    -0.5582274E-02 (  -8.84%)
   displ. norm   :     0.6163819 α      lambda       -0.4619619E-02
   maximum displ.:     0.2743552 α      in ANC's #21, #30, #33, ...

........................................................................
.............................. CYCLE    6 ..............................
........................................................................
------------------------------------------------------------
  cycle        total energy    energy error   density error
------------------------------------------------------------
      1     -209.2603762558  -2.1237859E+02   2.2990306E-03
      2     -209.2603930900  -1.6834199E-05   1.3626300E-03
      3     -209.2602894402   1.0364981E-04   5.6102557E-04
      4     -209.2604057694  -1.1632925E-04   8.0637444E-05
      5     -209.2604080770  -2.3076106E-06   3.7033463E-05
      6     -209.2604083530  -2.7594655E-07   1.8082625E-05
------------------------------------------------------------

 total:                                   1.006 sec
 * total energy  :  -209.2604084 Eh     change       -0.3524245E-02 Eh
   gradient norm :     0.0091418 Eh/α   predicted    -0.3187370E-02 (  -9.56%)
   displ. norm   :     0.6250495 α      lambda       -0.2934003E-02
   maximum displ.:     0.3413405 α      in ANC's #21, #30, #33, ...

........................................................................
.............................. CYCLE    7 ..............................
........................................................................
------------------------------------------------------------
  cycle        total energy    energy error   density error
------------------------------------------------------------
      1     -209.2627060502  -2.1239325E+02   1.8562229E-03
      2     -209.2627118950  -5.8448563E-06   1.0964886E-03
      3     -209.2626642858   4.7609180E-05   3.2975229E-04
      4     -209.2627165921  -5.2306302E-05   5.0026067E-05
      5     -209.2627172754  -6.8325548E-07   2.4004263E-05
      6     -209.2627173304  -5.4969576E-08   1.1977236E-05
------------------------------------------------------------

 total:                                   0.847 sec
 * total energy  :  -209.2627173 Eh     change       -0.2308977E-02 Eh
   gradient norm :     0.0102377 Eh/α   predicted    -0.2040141E-02 ( -11.64%)
   displ. norm   :     0.6373926 α      lambda       -0.2220613E-02
   maximum displ.:     0.3689287 α      in ANC's #21, #30, #6, ...

........................................................................
.............................. CYCLE    8 ..............................
........................................................................
------------------------------------------------------------
  cycle        total energy    energy error   density error
------------------------------------------------------------
      1     -209.2645225973  -2.1240193E+02   1.5738091E-03
      2     -209.2645361856  -1.3588295E-05   9.3432098E-04
      3     -209.2645073278   2.8857824E-05   2.7845097E-04
      4     -209.2645386542  -3.1326365E-05   6.5790579E-05
      5     -209.2645404090  -1.7548007E-06   2.1659311E-05
      6     -209.2645404753  -6.6288607E-08   1.3279407E-05
------------------------------------------------------------

 total:                                   0.793 sec
 * total energy  :  -209.2645405 Eh     change       -0.1823145E-02 Eh
   gradient norm :     0.0090910 Eh/α   predicted    -0.1561390E-02 ( -14.36%)
   displ. norm   :     0.6641608 α      lambda       -0.1927951E-02
   maximum displ.:     0.3718866 α      in ANC's #21, #6, #13, ...

........................................................................
.............................. CYCLE    9 ..............................
........................................................................
------------------------------------------------------------
  cycle        total energy    energy error   density error
------------------------------------------------------------
      1     -209.2661720564  -2.1240467E+02   1.5481768E-03
      2     -209.2661747436  -2.6872565E-06   9.2648699E-04
      3     -209.2660905955   8.4148117E-05   4.0771574E-04
      4     -209.2661826934  -9.2097924E-05   4.0023645E-05
      5     -209.2661830677  -3.7421347E-07   2.0951854E-05
      6     -209.2661830990  -3.1297333E-08   1.0764693E-05
------------------------------------------------------------

 total:                                   0.784 sec
 * total energy  :  -209.2661831 Eh     change       -0.1642624E-02 Eh
   gradient norm :     0.0088484 Eh/α   predicted    -0.1389196E-02 ( -15.43%)
   displ. norm   :     0.7198667 α      lambda       -0.1837858E-02
   maximum displ.:     0.3796407 α      in ANC's #21, #6, #13, ...

........................................................................
.............................. CYCLE   10 ..............................
........................................................................
------------------------------------------------------------
  cycle        total energy    energy error   density error
------------------------------------------------------------
      1     -209.2677205657  -2.1240738E+02   1.5638655E-03
      2     -209.2677310366  -1.0470830E-05   9.2450080E-04
      3     -209.2676579864   7.3050151E-05   4.0929562E-04
      4     -209.2677382068  -8.0220346E-05   6.1391733E-05
      5     -209.2677396168  -1.4100754E-06   2.4098045E-05
      6     -209.2677396848  -6.7996126E-08   1.5016945E-05
------------------------------------------------------------

 total:                                   0.765 sec
 * total energy  :  -209.2677397 Eh     change       -0.1556586E-02 Eh
   gradient norm :     0.0072561 Eh/α   predicted    -0.1395128E-02 ( -10.37%)
   displ. norm   :     0.7366197 α      lambda       -0.1582247E-02
   maximum displ.:     0.3453549 α      in ANC's #21, #6, #3, ...

........................................................................
.............................. CYCLE   11 ..............................
........................................................................
------------------------------------------------------------
  cycle        total energy    energy error   density error
------------------------------------------------------------
      1     -209.2690562946  -2.1240521E+02   1.5558370E-03
      2     -209.2690606651  -4.3705224E-06   9.2541508E-04
      3     -209.2689867306   7.3934488E-05   3.9543870E-04
      4     -209.2690677940  -8.1063323E-05   4.5036851E-05
      5     -209.2690683576  -5.6362131E-07   2.3766016E-05
      6     -209.2690684229  -6.5320080E-08   1.3465406E-05
------------------------------------------------------------

 total:                                   0.683 sec
 * total energy  :  -209.2690684 Eh     change       -0.1328738E-02 Eh
   gradient norm :     0.0066713 Eh/α   predicted    -0.1220397E-02 (  -8.15%)
   displ. norm   :     0.7200407 α      lambda       -0.1316717E-02
   maximum displ.:     0.3140512 α      in ANC's #6, #21, #3, ...

........................................................................
.............................. CYCLE   12 ..............................
........................................................................
------------------------------------------------------------
  cycle        total energy    energy error   density error
------------------------------------------------------------
      1     -209.2701619942  -2.1240857E+02   1.3763786E-03
      2     -209.2701705489  -8.5546028E-06   8.1407525E-04
      3     -209.2701247856   4.5763262E-05   3.2124266E-04
      4     -209.2701745990  -4.9813416E-05   5.8311733E-05
      5     -209.2701759021  -1.3030913E-06   2.2025597E-05
      6     -209.2701759708  -6.8715565E-08   1.3038146E-05
------------------------------------------------------------

 total:                                   0.839 sec
 * total energy  :  -209.2701760 Eh     change       -0.1107548E-02 Eh
   gradient norm :     0.0076564 Eh/α   predicted    -0.9996908E-03 (  -9.74%)
   displ. norm   :     0.7107299 α      lambda       -0.1128266E-02
   maximum displ.:     0.3251037 α      in ANC's #6, #3, #2, ...

........................................................................
.............................. CYCLE   13 ..............................
........................................................................
------------------------------------------------------------
  cycle        total energy    energy error   density error
------------------------------------------------------------
      1     -209.2711328298  -2.1240904E+02   1.2685825E-03
      2     -209.2711380960  -5.2661559E-06   7.5493847E-04
      3     -209.2711089892   2.9106805E-05   2.5934210E-04
      4     -209.2711406967  -3.1707496E-05   4.5962788E-05
      5     -209.2711414870  -7.9034996E-07   2.0260801E-05
      6     -209.2711415697  -8.2676308E-08   1.0923370E-05
------------------------------------------------------------

 total:                                   0.844 sec
 * total energy  :  -209.2711416 Eh     change       -0.9655989E-03 Eh
   gradient norm :     0.0062430 Eh/α   predicted    -0.8490984E-03 ( -12.07%)
   displ. norm   :     0.7033556 α      lambda       -0.1007093E-02
   maximum displ.:     0.3281394 α      in ANC's #6, #3, #2, ...

........................................................................
.............................. CYCLE   14 ..............................
........................................................................
------------------------------------------------------------
  cycle        total energy    energy error   density error
------------------------------------------------------------
      1     -209.2720019189  -2.1241294E+02   1.1719552E-03
      2     -209.2720070252  -5.1062786E-06   6.9507588E-04
      3     -209.2719877067   1.9318467E-05   2.1525623E-04
      4     -209.2720084485  -2.0741803E-05   4.8381090E-05
      5     -209.2720094019  -9.5341113E-07   1.8664941E-05
------------------------------------------------------------

 total:                                   0.666 sec
 * total energy  :  -209.2720094 Eh     change       -0.8678322E-03 Eh
   gradient norm :     0.0064225 Eh/α   predicted    -0.7526617E-03 ( -13.27%)
   displ. norm   :     0.7054898 α      lambda       -0.9190822E-03
   maximum displ.:     0.3293841 α      in ANC's #6, #3, #2, ...

........................................................................
.............................. CYCLE   15 ..............................
........................................................................
------------------------------------------------------------
  cycle        total energy    energy error   density error
------------------------------------------------------------
      1     -209.2727618022  -2.1241580E+02   1.1622322E-03
      2     -209.2727706498  -8.8476084E-06   6.8807302E-04
      3     -209.2727569134   1.3736475E-05   2.1314267E-04
      4     -209.2727723218  -1.5408418E-05   4.7356940E-05
      5     -209.2727731608  -8.3901369E-07   1.7037629E-05
------------------------------------------------------------

 total:                                   0.594 sec
 * total energy  :  -209.2727732 Eh     change       -0.7637589E-03 Eh
   gradient norm :     0.0084438 Eh/α   predicted    -0.6882619E-03 (  -9.88%)
   displ. norm   :     0.6921728 α      lambda       -0.8413864E-03
   maximum displ.:     0.3319605 α      in ANC's #3, #6, #2, ...

........................................................................
.............................. CYCLE   16 ..............................
........................................................................
------------------------------------------------------------
  cycle        total energy    energy error   density error
------------------------------------------------------------
      1     -209.2734355714  -2.1241633E+02   1.1222221E-03
      2     -209.2734464725  -1.0901179E-05   6.7002739E-04
      3     -209.2734091132   3.7359378E-05   3.1523067E-04
      4     -209.2734509065  -4.1793300E-05   6.2360683E-05
      5     -209.2734526266  -1.7201218E-06   1.9017137E-05
      6     -209.2734527220  -9.5383854E-08   9.6214981E-06
------------------------------------------------------------

 total:                                   0.928 sec
 * total energy  :  -209.2734527 Eh     change       -0.6795612E-03 Eh
   gradient norm :     0.0071458 Eh/α   predicted    -0.6222504E-03 (  -8.43%)
   displ. norm   :     0.6545733 α      lambda       -0.6732783E-03
   maximum displ.:     0.3334735 α      in ANC's #3, #2, #6, ...

........................................................................
.............................. CYCLE   17 ..............................
........................................................................
------------------------------------------------------------
  cycle        total energy    energy error   density error
------------------------------------------------------------
      1     -209.2740283270  -2.1241823E+02   9.7974498E-04
      2     -209.2740301666  -1.8396761E-06   5.8231767E-04
      3     -209.2740026355   2.7531108E-05   2.4029646E-04
      4     -209.2740327810  -3.0145489E-05   2.9358766E-05
      5     -209.2740330467  -2.6565377E-07   1.3492818E-05
------------------------------------------------------------

 total:                                   0.647 sec
 * total energy  :  -209.2740330 Eh     change       -0.5803247E-03 Eh
   gradient norm :     0.0050328 Eh/α   predicted    -0.4808798E-03 ( -17.14%)
   displ. norm   :     0.6172693 α      lambda       -0.5824214E-03
   maximum displ.:     0.3354904 α      in ANC's #3, #2, #6, ...

........................................................................
.............................. CYCLE   18 ..............................
........................................................................
------------------------------------------------------------
  cycle        total energy    energy error   density error
------------------------------------------------------------
      1     -209.2745400785  -2.1241912E+02   8.4496131E-04
      2     -209.2745415810  -1.5025608E-06   4.9922656E-04
      3     -209.2745319275   9.6535875E-06   1.6168322E-04
      4     -209.2745426006  -1.0673158E-05   2.3803493E-05
      5     -209.2745427747  -1.7411415E-07   1.2528497E-05
------------------------------------------------------------

 total:                                   0.586 sec
 * total energy  :  -209.2745428 Eh     change       -0.5097281E-03 Eh
   gradient norm :     0.0043091 Eh/α   predicted    -0.4021742E-03 ( -21.10%)
   displ. norm   :     0.6001984 α      lambda       -0.5441908E-03
   maximum displ.:     0.3444592 α      in ANC's #3, #2, #6, ...

........................................................................
.............................. CYCLE   19 ..............................
........................................................................
------------------------------------------------------------
  cycle        total energy    energy error   density error
------------------------------------------------------------
      1     -209.2750184067  -2.1242023E+02   7.4559754E-04
      2     -209.2750195959  -1.1892031E-06   4.4137881E-04
      3     -209.2750142026   5.3933749E-06   1.2963782E-04
      4     -209.2750202553  -6.0526940E-06   2.0384817E-05
      5     -209.2750203587  -1.0344843E-07   1.1699661E-05
------------------------------------------------------------

 total:                                   0.615 sec
 * total energy  :  -209.2750204 Eh     change       -0.4775840E-03 Eh
   gradient norm :     0.0044987 Eh/α   predicted    -0.3701207E-03 ( -22.50%)
   displ. norm   :     0.6015616 α      lambda       -0.5365009E-03
   maximum displ.:     0.3575743 α      in ANC's #3, #2, #1, ...

........................................................................
.............................. CYCLE   20 ..............................
........................................................................
------------------------------------------------------------
  cycle        total energy    energy error   density error
------------------------------------------------------------
      1     -209.2754939303  -2.1242045E+02   6.9782295E-04
      2     -209.2754948725  -9.4218666E-07   4.1538255E-04
      3     -209.2754858640   9.0085192E-06   1.4977204E-04
      4     -209.2754957753  -9.9112847E-06   2.2052492E-05
      5     -209.2754959268  -1.5154905E-07   1.0291190E-05
------------------------------------------------------------

 total:                                   0.736 sec
 * total energy  :  -209.2754959 Eh     change       -0.4755681E-03 Eh
   gradient norm :     0.0052079 Eh/α   predicted    -0.3653251E-03 ( -23.18%)
   displ. norm   :     0.6177372 α      lambda       -0.5530601E-03
   maximum displ.:     0.3750423 α      in ANC's #3, #2, #1, ...
 * RMSD in coord.:     0.8337450 α      energy gain  -0.1435128E+00 Eh

generating ANC from exact Hessian ...
Using Lindh-Hessian (1995)
 Shifting diagonal of input Hessian by    9.9660007309930743E-003
 Lowest  eigenvalues of input Hessian
    0.000000    0.000000    0.000000    0.000000    0.000000    0.000000
    0.010000    0.010028    0.010030    0.010111    0.010155    0.010386
    0.010410    0.010465    0.010606    0.010714    0.010807    0.010840
 Highest eigenvalues
    2.082479    2.083381    2.228401    2.228570    2.248387    2.248793


........................................................................
.............................. CYCLE   21 ..............................
........................................................................
------------------------------------------------------------
  cycle        total energy    energy error   density error
------------------------------------------------------------
      1     -209.2759980984  -2.1242046E+02   7.1698481E-04
      2     -209.2759989375  -8.3908930E-07   4.2494188E-04
      3     -209.2759921817   6.7558229E-06   1.3145630E-04
      4     -209.2759995999  -7.4182506E-06   1.9795183E-05
      5     -209.2759997279  -1.2800825E-07   9.5532314E-06
------------------------------------------------------------

 total:                                   0.759 sec
 * total energy  :  -209.2759997 Eh     change       -0.5038011E-03 Eh
   gradient norm :     0.0056171 Eh/α   predicted     0.0000000E+00 (-100.00%)
   displ. norm   :     0.1056136 α      lambda       -0.1629496E-03
   maximum displ.:     0.0818138 α      in ANC's #2, #24, #3, ...

........................................................................
.............................. CYCLE   22 ..............................
........................................................................
------------------------------------------------------------
  cycle        total energy    energy error   density error
------------------------------------------------------------
      1     -209.2761543015  -2.1242055E+02   2.6680167E-04
      2     -209.2761544515  -1.4999694E-07   1.5775909E-04
      3     -209.2761509183   3.5331911E-06   8.9069084E-05
      4     -209.2761548974  -3.9790979E-06   9.4655250E-06
      5     -209.2761549236  -2.6178725E-08   4.2279527E-06
------------------------------------------------------------

 total:                                   0.664 sec
 * total energy  :  -209.2761549 Eh     change       -0.1551957E-03 Eh
   gradient norm :     0.0037704 Eh/α   predicted    -0.8509468E-04 ( -45.17%)
   displ. norm   :     0.3035393 α      lambda       -0.4024670E-03
   maximum displ.:     0.2125895 α      in ANC's #2, #3, #24, ...

........................................................................
.............................. CYCLE   23 ..............................
........................................................................
------------------------------------------------------------
  cycle        total energy    energy error   density error
------------------------------------------------------------
      1     -209.2764845488  -2.1242066E+02   7.5247644E-04
      2     -209.2764855526  -1.0038218E-06   4.4239389E-04
      3     -209.2764795883   5.9643236E-06   1.2139720E-04
      4     -209.2764861383  -6.5500098E-06   2.3280250E-05
      5     -209.2764863207  -1.8244228E-07   1.1646757E-05
------------------------------------------------------------

 total:                                   0.788 sec
 * total energy  :  -209.2764863 Eh     change       -0.3313971E-03 Eh
   gradient norm :     0.0028650 Eh/α   predicted    -0.2197814E-03 ( -33.68%)
   displ. norm   :     0.3867046 α      lambda       -0.3607039E-03
   maximum displ.:     0.2722167 α      in ANC's #2, #3, #13, ...

........................................................................
.............................. CYCLE   24 ..............................
........................................................................
------------------------------------------------------------
  cycle        total energy    energy error   density error
------------------------------------------------------------
      1     -209.2767814987  -2.1242030E+02   8.8354996E-04
      2     -209.2767828603  -1.3616647E-06   5.1857394E-04
      3     -209.2767781730   4.6873193E-06   1.2710184E-04
      4     -209.2767835912  -5.4182078E-06   2.0688139E-05
      5     -209.2767836745  -8.3314603E-08   1.3304084E-05
------------------------------------------------------------

 total:                                   0.701 sec
 * total energy  :  -209.2767837 Eh     change       -0.2973538E-03 Eh
   gradient norm :     0.0052985 Eh/α   predicted    -0.2073577E-03 ( -30.27%)
   displ. norm   :     0.3533548 α      lambda       -0.2771291E-03
   maximum displ.:     0.2504060 α      in ANC's #2, #3, #13, ...

........................................................................
.............................. CYCLE   25 ..............................
........................................................................
------------------------------------------------------------
  cycle        total energy    energy error   density error
------------------------------------------------------------
      1     -209.2770321762  -2.1242016E+02   7.3459696E-04
      2     -209.2770331306  -9.5445088E-07   4.2987437E-04
      3     -209.2770308707   2.2599194E-06   1.0086839E-04
      4     -209.2770336123  -2.7416238E-06   1.3949980E-05
      5     -209.2770336244  -1.2123706E-08   9.3048885E-06
------------------------------------------------------------

 total:                                   0.606 sec
 * total energy  :  -209.2770336 Eh     change       -0.2499499E-03 Eh
   gradient norm :     0.0060438 Eh/α   predicted    -0.1558751E-03 ( -37.64%)
   displ. norm   :     0.3491197 α      lambda       -0.2939018E-03
   maximum displ.:     0.2459088 α      in ANC's #2, #3, #13, ...

........................................................................
.............................. CYCLE   26 ..............................
........................................................................
------------------------------------------------------------
  cycle        total energy    energy error   density error
------------------------------------------------------------
      1     -209.2773054651  -2.1242046E+02   6.6317112E-04
      2     -209.2773063357  -8.7057293E-07   3.8859470E-04
      3     -209.2773004692   5.8664994E-06   1.2485258E-04
      4     -209.2773069426  -6.4734327E-06   2.0732307E-05
      5     -209.2773070961  -1.5350602E-07   9.5374396E-06
------------------------------------------------------------

 total:                                   0.583 sec
 * total energy  :  -209.2773071 Eh     change       -0.2734716E-03 Eh
   gradient norm :     0.0052661 Eh/α   predicted    -0.1648623E-03 ( -39.72%)
   displ. norm   :     0.4082860 α      lambda       -0.3570598E-03
   maximum displ.:     0.2870768 α      in ANC's #2, #3, #13, ...

........................................................................
.............................. CYCLE   27 ..............................
........................................................................
------------------------------------------------------------
  cycle        total energy    energy error   density error
------------------------------------------------------------
      1     -209.2776319823  -2.1242080E+02   7.1748742E-04
      2     -209.2776333800  -1.3976546E-06   4.1912734E-04
      3     -209.2776277250   5.6550423E-06   1.4030982E-04
      4     -209.2776341875  -6.4625712E-06   1.8850246E-05
      5     -209.2776342834  -9.5885667E-08   1.0796171E-05
------------------------------------------------------------

 total:                                   0.582 sec
 * total energy  :  -209.2776343 Eh     change       -0.3271873E-03 Eh
   gradient norm :     0.0040583 Eh/α   predicted    -0.2082913E-03 ( -36.34%)
   displ. norm   :     0.4618895 α      lambda       -0.3764301E-03
   maximum displ.:     0.3265091 α      in ANC's #2, #3, #13, ...

........................................................................
.............................. CYCLE   28 ..............................
........................................................................
------------------------------------------------------------
  cycle        total energy    energy error   density error
------------------------------------------------------------
      1     -209.2779744368  -2.1242095E+02   7.5255142E-04
      2     -209.2779759776  -1.5408556E-06   4.4281966E-04
      3     -209.2779665583   9.4192871E-06   1.5568137E-04
      4     -209.2779769539  -1.0395565E-05   2.5639451E-05
      5     -209.2779771833  -2.2939699E-07   1.1976384E-05
------------------------------------------------------------

 total:                                   0.679 sec
 * total energy  :  -209.2779772 Eh     change       -0.3428999E-03 Eh
   gradient norm :     0.0038550 Eh/α   predicted    -0.2283777E-03 ( -33.40%)
   displ. norm   :     0.4683177 α      lambda       -0.3507353E-03
   maximum displ.:     0.3330297 α      in ANC's #2, #3, #13, ...

........................................................................
.............................. CYCLE   29 ..............................
........................................................................
------------------------------------------------------------
  cycle        total energy    energy error   density error
------------------------------------------------------------
      1     -209.2783000427  -2.1242111E+02   7.1159787E-04
      2     -209.2783014990  -1.4563546E-06   4.1723050E-04
      3     -209.2782953638   6.1352486E-06   1.3372138E-04
      4     -209.2783022653  -6.9014733E-06   2.0267816E-05
      5     -209.2783023754  -1.1017696E-07   1.1839586E-05
------------------------------------------------------------

 total:                                   0.747 sec
 * total energy  :  -209.2783024 Eh     change       -0.3251921E-03 Eh
   gradient norm :     0.0042326 Eh/α   predicted    -0.2138444E-03 ( -34.24%)
   displ. norm   :     0.4570720 α      lambda       -0.3338628E-03
   maximum displ.:     0.3258607 α      in ANC's #2, #3, #1, ...

........................................................................
.............................. CYCLE   30 ..............................
........................................................................
------------------------------------------------------------
  cycle        total energy    energy error   density error
------------------------------------------------------------
      1     -209.2786158255  -2.1242143E+02   6.4942933E-04
      2     -209.2786168380  -1.0124850E-06   3.8409926E-04
      3     -209.2786011885   1.5649476E-05   1.8487088E-04
      4     -209.2786185364  -1.7347874E-05   2.0699591E-05
      5     -209.2786186561  -1.1968862E-07   1.0432749E-05
------------------------------------------------------------

 total:                                   0.712 sec
 * total energy  :  -209.2786187 Eh     change       -0.3162806E-03 Eh
   gradient norm :     0.0042259 Eh/α   predicted    -0.2018061E-03 ( -36.19%)
   displ. norm   :     0.4671555 α      lambda       -0.3469366E-03
   maximum displ.:     0.3327141 α      in ANC's #2, #3, #1, ...

........................................................................
.............................. CYCLE   31 ..............................
........................................................................
------------------------------------------------------------
  cycle        total energy    energy error   density error
------------------------------------------------------------
      1     -209.2789479520  -2.1242179E+02   6.2495128E-04
      2     -209.2789491227  -1.1706671E-06   3.6795165E-04
      3     -209.2789431694   5.9532268E-06   1.2383435E-04
      4     -209.2789499089  -6.7394180E-06   1.5961220E-05
      5     -209.2789499653  -5.6446453E-08   9.4169900E-06
------------------------------------------------------------

 total:                                   0.595 sec
 * total energy  :  -209.2789500 Eh     change       -0.3313092E-03 Eh
   gradient norm :     0.0037254 Eh/α   predicted    -0.2113253E-03 ( -36.22%)
   displ. norm   :     0.5029066 α      lambda       -0.3780277E-03
   maximum displ.:     0.3573498 α      in ANC's #2, #3, #1, ...

........................................................................
.............................. CYCLE   32 ..............................
........................................................................
------------------------------------------------------------
  cycle        total energy    energy error   density error
------------------------------------------------------------
      1     -209.2793098898  -2.1242202E+02   6.3489787E-04
      2     -209.2793109012  -1.0113192E-06   3.7331881E-04
      3     -209.2793073056   3.5955740E-06   9.7285267E-05
      4     -209.2793112968  -3.9912472E-06   1.9072692E-05
      5     -209.2793114152  -1.1832967E-07   9.9284337E-06
------------------------------------------------------------

 total:                                   0.670 sec
 * total energy  :  -209.2793114 Eh     change       -0.3614499E-03 Eh
   gradient norm :     0.0031661 Eh/α   predicted    -0.2368189E-03 ( -34.48%)
   displ. norm   :     0.5447203 α      lambda       -0.4058104E-03
   maximum displ.:     0.3862247 α      in ANC's #2, #3, #1, ...

........................................................................
.............................. CYCLE   33 ..............................
........................................................................
------------------------------------------------------------
  cycle        total energy    energy error   density error
------------------------------------------------------------
      1     -209.2796983793  -2.1242204E+02   6.4746398E-04
      2     -209.2796992985  -9.1927157E-07   3.8146654E-04
      3     -209.2796955169   3.7816536E-06   1.0219135E-04
      4     -209.2796997780  -4.2610994E-06   1.6190140E-05
      5     -209.2796998489  -7.0958038E-08   8.9642477E-06
------------------------------------------------------------

 total:                                   0.814 sec
 * total energy  :  -209.2796998 Eh     change       -0.3884338E-03 Eh
   gradient norm :     0.0030865 Eh/α   predicted    -0.2631136E-03 ( -32.26%)
   displ. norm   :     0.5780843 α      lambda       -0.4227920E-03
   maximum displ.:     0.4089498 α      in ANC's #2, #3, #1, ...

........................................................................
.............................. CYCLE   34 ..............................
........................................................................
------------------------------------------------------------
  cycle        total energy    energy error   density error
------------------------------------------------------------
      1     -209.2801042346  -2.1242194E+02   6.4859669E-04
      2     -209.2801049470  -7.1233066E-07   3.8162507E-04
      3     -209.2801001301   4.8168742E-06   1.0609326E-04
      4     -209.2801053989  -5.2687795E-06   1.9502004E-05
      5     -209.2801055318  -1.3292373E-07   8.6998208E-06
------------------------------------------------------------

 total:                                   0.659 sec
 * total energy  :  -209.2801055 Eh     change       -0.4056828E-03 Eh
   gradient norm :     0.0034197 Eh/α   predicted    -0.2820410E-03 ( -30.48%)
   displ. norm   :     0.6038707 α      lambda       -0.4348972E-03
   maximum displ.:     0.4261899 α      in ANC's #2, #3, #1, ...

........................................................................
.............................. CYCLE   35 ..............................
........................................................................
------------------------------------------------------------
  cycle        total energy    energy error   density error
------------------------------------------------------------
      1     -209.2805229052  -2.1242183E+02   6.4403793E-04
      2     -209.2805235261  -6.2092982E-07   3.7999154E-04
      3     -209.2805201846   3.3415483E-06   9.3177572E-05
      4     -209.2805239140  -3.7294210E-06   1.5738450E-05
      5     -209.2805239809  -6.6929488E-08   8.3188290E-06
------------------------------------------------------------

 total:                                   0.801 sec
 * total energy  :  -209.2805240 Eh     change       -0.4184491E-03 Eh
   gradient norm :     0.0036417 Eh/α   predicted    -0.2967439E-03 ( -29.08%)
   displ. norm   :     0.6301712 α      lambda       -0.4492003E-03
   maximum displ.:     0.4438401 α      in ANC's #2, #3, #1, ...

........................................................................
.............................. CYCLE   36 ..............................
........................................................................
------------------------------------------------------------
  cycle        total energy    energy error   density error
------------------------------------------------------------
      1     -209.2809556522  -2.1242181E+02   6.4750215E-04
      2     -209.2809562034  -5.5126762E-07   3.8127063E-04
      3     -209.2809540923   2.1111850E-06   7.2547120E-05
      4     -209.2809564565  -2.3642102E-06   1.6117726E-05
      5     -209.2809565258  -6.9327058E-08   8.3819765E-06
------------------------------------------------------------

 total:                                   0.759 sec
 * total energy  :  -209.2809565 Eh     change       -0.4325449E-03 Eh
   gradient norm :     0.0034745 Eh/α   predicted    -0.3137932E-03 ( -27.45%)
   displ. norm   :     0.6596658 α      lambda       -0.4645683E-03
   maximum displ.:     0.4640920 α      in ANC's #2, #3, #1, ...

........................................................................
.............................. CYCLE   37 ..............................
........................................................................
------------------------------------------------------------
  cycle        total energy    energy error   density error
------------------------------------------------------------
      1     -209.2814033154  -2.1242192E+02   6.6031208E-04
      2     -209.2814038435  -5.2817745E-07   3.8975254E-04
      3     -209.2813975988   6.2447479E-06   1.1946601E-04
      4     -209.2814044139  -6.8151341E-06   1.7381959E-05
      5     -209.2814045023  -8.8368893E-08   8.8098399E-06
------------------------------------------------------------

 total:                                   0.710 sec
 * total energy  :  -209.2814045 Eh     change       -0.4479765E-03 Eh
   gradient norm :     0.0029460 Eh/α   predicted    -0.3333697E-03 ( -25.58%)
   displ. norm   :     0.6888893 α      lambda       -0.4752786E-03
   maximum displ.:     0.4847929 α      in ANC's #2, #3, #1, ...

........................................................................
.............................. CYCLE   38 ..............................
........................................................................
------------------------------------------------------------
  cycle        total energy    energy error   density error
------------------------------------------------------------
      1     -209.2818610121  -2.1242224E+02   6.7484278E-04
      2     -209.2818616780  -6.6584170E-07   3.9794901E-04
      3     -209.2818595874   2.0905459E-06   7.6022831E-05
      4     -209.2818620058  -2.4183676E-06   1.4384922E-05
      5     -209.2818620366  -3.0759395E-08   8.2047777E-06
------------------------------------------------------------

 total:                                   0.732 sec
 * total energy  :  -209.2818620 Eh     change       -0.4575343E-03 Eh
   gradient norm :     0.0022661 Eh/α   predicted    -0.3504173E-03 ( -23.41%)
   displ. norm   :     0.7108435 α      lambda       -0.4752029E-03
   maximum displ.:     0.5010401 α      in ANC's #2, #3, #1, ...

........................................................................
.............................. CYCLE   39 ..............................
........................................................................
------------------------------------------------------------
  cycle        total energy    energy error   density error
------------------------------------------------------------
      1     -209.2823192728  -2.1242275E+02   6.8471279E-04
      2     -209.2823199077  -6.3490208E-07   4.0348276E-04
      3     -209.2823173310   2.5767506E-06   8.3940779E-05
      4     -209.2823201866  -2.8556468E-06   1.7189301E-05
      5     -209.2823202694  -8.2739291E-08   9.4261836E-06
------------------------------------------------------------

 total:                                   0.645 sec
 * total energy  :  -209.2823203 Eh     change       -0.4582328E-03 Eh
   gradient norm :     0.0018809 Eh/α   predicted    -0.3576618E-03 ( -21.95%)
   displ. norm   :     1.0846160 α      lambda       -0.4647809E-03
   maximum displ.:     0.7663948 α      in ANC's #2, #3, #1, ...

........................................................................
.............................. CYCLE   40 ..............................
........................................................................
------------------------------------------------------------
  cycle        total energy    energy error   density error
------------------------------------------------------------
      1     -209.2829732033  -2.1242332E+02   1.0280097E-03
      2     -209.2829747373  -1.5339684E-06   6.0678736E-04
      3     -209.2829689193   5.8179996E-06   1.2166829E-04
      4     -209.2829755472  -6.6279479E-06   2.2195661E-05
      5     -209.2829756337  -8.6481890E-08   1.2162952E-05
------------------------------------------------------------

 total:                                   0.827 sec
 * total energy  :  -209.2829756 Eh     change       -0.6553643E-03 Eh
   gradient norm :     0.0023909 Eh/α   predicted    -0.3538945E-03 ( -46.00%)
   displ. norm   :     0.7036749 α      lambda       -0.4213924E-03
   maximum displ.:     0.4992953 α      in ANC's #2, #3, #1, ...

........................................................................
.............................. CYCLE   41 ..............................
........................................................................
------------------------------------------------------------
  cycle        total energy    energy error   density error
------------------------------------------------------------
      1     -209.2833815828  -2.1242417E+02   6.5851645E-04
      2     -209.2833822855  -7.0263229E-07   3.8868904E-04
      3     -209.2833790955   3.1899665E-06   9.1845208E-05
      4     -209.2833826348  -3.5392700E-06   1.6880567E-05
      5     -209.2833827231  -8.8278284E-08   8.6948508E-06
------------------------------------------------------------

 total:                                   0.783 sec
 * total energy  :  -209.2833827 Eh     change       -0.4070893E-03 Eh
   gradient norm :     0.0026295 Eh/α   predicted    -0.3150263E-03 ( -22.61%)
   displ. norm   :     0.7238278 α      lambda       -0.4252077E-03
   maximum displ.:     0.5152319 α      in ANC's #2, #3, #1, ...

........................................................................
.............................. CYCLE   42 ..............................
........................................................................
------------------------------------------------------------
  cycle        total energy    energy error   density error
------------------------------------------------------------
      1     -209.2837922767  -2.1242514E+02   6.7989906E-04
      2     -209.2837930300  -7.5323319E-07   4.0178571E-04
      3     -209.2837870353   5.9947271E-06   1.1402949E-04
      4     -209.2837936414  -6.6061866E-06   1.7729715E-05
      5     -209.2837937303  -8.8836572E-08   8.7584143E-06
------------------------------------------------------------

 total:                                   0.618 sec
 * total energy  :  -209.2837937 Eh     change       -0.4110072E-03 Eh
   gradient norm :     0.0026707 Eh/α   predicted    -0.3239950E-03 ( -21.17%)
   displ. norm   :     0.7407806 α      lambda       -0.4286057E-03
   maximum displ.:     0.5294588 α      in ANC's #2, #3, #1, ...
 * RMSD in coord.:     0.9519177 α      energy gain  -0.8297803E-02 Eh

generating ANC from exact Hessian ...
Using Lindh-Hessian (1995)
 Shifting diagonal of input Hessian by    9.9644772869157822E-003
 Lowest  eigenvalues of input Hessian
    0.000000    0.000000    0.000000    0.000000    0.000000    0.000000
    0.010000    0.010028    0.010030    0.010125    0.010165    0.010398
    0.010409    0.010473    0.010578    0.010723    0.010766    0.010806
 Highest eigenvalues
    2.079771    2.080451    2.224671    2.226600    2.243309    2.246468


........................................................................
.............................. CYCLE   43 ..............................
........................................................................
------------------------------------------------------------
  cycle        total energy    energy error   density error
------------------------------------------------------------
      1     -209.2842080737  -2.1242600E+02   7.0571572E-04
      2     -209.2842089920  -9.1830543E-07   4.1701842E-04
      3     -209.2842039108   5.0812240E-06   1.1078816E-04
      4     -209.2842096016  -5.6908740E-06   1.6379443E-05
      5     -209.2842096635  -6.1828530E-08   8.8059895E-06
------------------------------------------------------------

 total:                                   0.593 sec
 * total energy  :  -209.2842097 Eh     change       -0.4159332E-03 Eh
   gradient norm :     0.0024244 Eh/α   predicted     0.0000000E+00 (-100.00%)
   displ. norm   :     0.0681313 α      lambda       -0.5693905E-04
   maximum displ.:     0.0550818 α      in ANC's #3, #1, #8, ...

........................................................................
.............................. CYCLE   44 ..............................
........................................................................
------------------------------------------------------------
  cycle        total energy    energy error   density error
------------------------------------------------------------
      1     -209.2842645083  -2.1242725E+02   1.2785799E-04
      2     -209.2842645855  -7.7189299E-08   7.7311999E-05
      3     -209.2842635557   1.0297457E-06   5.5469559E-05
      4     -209.2842648734  -1.3176713E-06   6.6631773E-06
      5     -209.2842648891  -1.5677642E-08   2.4310309E-06
------------------------------------------------------------

 total:                                   0.784 sec
 * total energy  :  -209.2842649 Eh     change       -0.5522562E-04 Eh
   gradient norm :     0.0016557 Eh/α   predicted    -0.2912530E-04 ( -47.26%)
   displ. norm   :     0.2834856 α      lambda       -0.1452966E-03
   maximum displ.:     0.1981359 α      in ANC's #3, #1, #8, ...

........................................................................
.............................. CYCLE   45 ..............................
........................................................................
------------------------------------------------------------
  cycle        total energy    energy error   density error
------------------------------------------------------------
      1     -209.2844511499  -2.1242940E+02   5.2480912E-04
      2     -209.2844520057  -8.5584395E-07   3.0916784E-04
      3     -209.2844480789   3.9268603E-06   9.5666451E-05
      4     -209.2844523173  -4.2383927E-06   1.9420076E-05
      5     -209.2844524625  -1.4523269E-07   8.7332547E-06
------------------------------------------------------------

 total:                                   0.673 sec
 * total energy  :  -209.2844525 Eh     change       -0.1875734E-03 Eh
   gradient norm :     0.0020413 Eh/α   predicted    -0.7524501E-04 ( -59.89%)
   displ. norm   :     0.2850764 α      lambda       -0.1728729E-03
   maximum displ.:     0.1967899 α      in ANC's #3, #1, #8, ...

........................................................................
.............................. CYCLE   46 ..............................
........................................................................
------------------------------------------------------------
  cycle        total energy    energy error   density error
------------------------------------------------------------
      1     -209.2846072120  -2.1242902E+02   4.7461594E-04
      2     -209.2846079154  -7.0341318E-07   2.8000001E-04
      3     -209.2846068397   1.0757809E-06   5.8931212E-05
      4     -209.2846080571  -1.2174177E-06   1.3867663E-05
      5     -209.2846081113  -5.4220891E-08   7.0183081E-06
------------------------------------------------------------

 total:                                   0.636 sec
 * total energy  :  -209.2846081 Eh     change       -0.1556488E-03 Eh
   gradient norm :     0.0027339 Eh/α   predicted    -0.9346227E-04 ( -39.95%)
   displ. norm   :     0.3530720 α      lambda       -0.1860995E-03
   maximum displ.:     0.2428944 α      in ANC's #3, #1, #8, ...

........................................................................
.............................. CYCLE   47 ..............................
........................................................................
------------------------------------------------------------
  cycle        total energy    energy error   density error
------------------------------------------------------------
      1     -209.2847728404  -2.1242789E+02   5.4652848E-04
      2     -209.2847736303  -7.8990357E-07   3.2307427E-04
      3     -209.2847693130   4.3172934E-06   9.5954242E-05
      4     -209.2847739625  -4.6494416E-06   1.9203023E-05
      5     -209.2847741028  -1.4033199E-07   8.2847674E-06
------------------------------------------------------------

 total:                                   0.962 sec
 * total energy  :  -209.2847741 Eh     change       -0.1659915E-03 Eh
   gradient norm :     0.0032604 Eh/α   predicted    -0.1046500E-03 ( -36.95%)
   displ. norm   :     0.3456666 α      lambda       -0.1657846E-03
   maximum displ.:     0.2398965 α      in ANC's #3, #1, #8, ...

........................................................................
.............................. CYCLE   48 ..............................
........................................................................
------------------------------------------------------------
  cycle        total energy    energy error   density error
------------------------------------------------------------
      1     -209.2849250532  -2.1242692E+02   4.9533215E-04
      2     -209.2849258047  -7.5145931E-07   2.9252753E-04
      3     -209.2849227445   3.0601857E-06   9.2838999E-05
      4     -209.2849261473  -3.4027928E-06   1.6102438E-05
      5     -209.2849262262  -7.8921317E-08   8.0444873E-06
------------------------------------------------------------

 total:                                   0.981 sec
 * total energy  :  -209.2849262 Eh     change       -0.1521234E-03 Eh
   gradient norm :     0.0033361 Eh/α   predicted    -0.9280546E-04 ( -38.99%)
   displ. norm   :     0.3273642 α      lambda       -0.1584322E-03
   maximum displ.:     0.2287412 α      in ANC's #3, #1, #8, ...

........................................................................
.............................. CYCLE   49 ..............................
........................................................................
------------------------------------------------------------
  cycle        total energy    energy error   density error
------------------------------------------------------------
      1     -209.2850751368  -2.1242651E+02   4.3928344E-04
      2     -209.2850756913  -5.5455016E-07   2.5870392E-04
      3     -209.2850721356   3.5557237E-06   9.8313701E-05
      4     -209.2850760743  -3.9387382E-06   1.5702468E-05
      5     -209.2850761679  -9.3536471E-08   6.9067730E-06
------------------------------------------------------------

 total:                                   0.824 sec
 * total energy  :  -209.2850762 Eh     change       -0.1499416E-03 Eh
   gradient norm :     0.0029686 Eh/α   predicted    -0.8770867E-04 ( -41.50%)
   displ. norm   :     0.3499762 α      lambda       -0.1774853E-03
   maximum displ.:     0.2446107 α      in ANC's #3, #1, #8, ...

........................................................................
.............................. CYCLE   50 ..............................
........................................................................
------------------------------------------------------------
  cycle        total energy    energy error   density error
------------------------------------------------------------
      1     -209.2852432425  -2.1242638E+02   4.5192025E-04
      2     -209.2852437750  -5.3257773E-07   2.6602798E-04
      3     -209.2852384364   5.3386800E-06   1.2258302E-04
      4     -209.2852444190  -5.9826334E-06   1.6700016E-05
      5     -209.2852445235  -1.0446996E-07   6.8705826E-06
------------------------------------------------------------

 total:                                   0.583 sec
 * total energy  :  -209.2852445 Eh     change       -0.1683556E-03 Eh
   gradient norm :     0.0024059 Eh/α   predicted    -0.9961265E-04 ( -40.83%)
   displ. norm   :     0.4111434 α      lambda       -0.2121134E-03
   maximum displ.:     0.2863989 α      in ANC's #3, #1, #8, ...

........................................................................
.............................. CYCLE   51 ..............................
........................................................................
------------------------------------------------------------
  cycle        total energy    energy error   density error
------------------------------------------------------------
      1     -209.2854446491  -2.1242630E+02   5.1767093E-04
      2     -209.2854453091  -6.6004139E-07   3.0407687E-04
      3     -209.2854417464   3.5627001E-06   1.0690797E-04
      4     -209.2854457924  -4.0459922E-06   1.4184151E-05
      5     -209.2854458490  -5.6563636E-08   7.7316666E-06
------------------------------------------------------------

 total:                                   0.806 sec
 * total energy  :  -209.2854458 Eh     change       -0.2013255E-03 Eh
   gradient norm :     0.0019219 Eh/α   predicted    -0.1239862E-03 ( -38.42%)
   displ. norm   :     0.7153057 α      lambda       -0.2391720E-03
   maximum displ.:     0.4972421 α      in ANC's #3, #1, #8, ...

........................................................................
.............................. CYCLE   52 ..............................
........................................................................
------------------------------------------------------------
  cycle        total energy    energy error   density error
------------------------------------------------------------
      1     -209.2857681460  -2.1242592E+02   8.7894630E-04
      2     -209.2857697326  -1.5866536E-06   5.1672806E-04
      3     -209.2857623983   7.3343128E-06   1.5290908E-04
      4     -209.2857706000  -8.2017246E-06   2.4675487E-05
      5     -209.2857707718  -1.7175051E-07   1.3825540E-05
------------------------------------------------------------

 total:                                   0.684 sec
 * total energy  :  -209.2857708 Eh     change       -0.3249228E-03 Eh
   gradient norm :     0.0024943 Eh/α   predicted    -0.1467855E-03 ( -54.82%)
   displ. norm   :     0.4698653 α      lambda       -0.2132155E-03
   maximum displ.:     0.3277802 α      in ANC's #3, #1, #8, ...

........................................................................
.............................. CYCLE   53 ..............................
........................................................................
------------------------------------------------------------
  cycle        total energy    energy error   density error
------------------------------------------------------------
      1     -209.2859713791  -2.1242617E+02   5.5230697E-04
      2     -209.2859719516  -5.7248278E-07   3.2525148E-04
      3     -209.2859669347   5.0168543E-06   1.1280531E-04
      4     -209.2859724286  -5.4938557E-06   1.8110450E-05
      5     -209.2859725438  -1.1520999E-07   8.0910591E-06
------------------------------------------------------------

 total:                                   0.670 sec
 * total energy  :  -209.2859725 Eh     change       -0.2017720E-03 Eh
   gradient norm :     0.0030718 Eh/α   predicted    -0.1301490E-03 ( -35.50%)
   displ. norm   :     0.4973238 α      lambda       -0.2259125E-03
   maximum displ.:     0.3467711 α      in ANC's #3, #1, #8, ...

........................................................................
.............................. CYCLE   54 ..............................
........................................................................
------------------------------------------------------------
  cycle        total energy    energy error   density error
------------------------------------------------------------
      1     -209.2861872093  -2.1242686E+02   5.7049472E-04
      2     -209.2861877453  -5.3597643E-07   3.3707110E-04
      3     -209.2861842374   3.5079632E-06   9.3408208E-05
      4     -209.2861880999  -3.8625403E-06   1.4959940E-05
      5     -209.2861881626  -6.2677316E-08   7.8024311E-06
------------------------------------------------------------

 total:                                   0.607 sec
 * total energy  :  -209.2861882 Eh     change       -0.2156188E-03 Eh
   gradient norm :     0.0034664 Eh/α   predicted    -0.1408973E-03 ( -34.65%)
   displ. norm   :     0.5407746 α      lambda       -0.2485963E-03
   maximum displ.:     0.3773215 α      in ANC's #3, #1, #8, ...

........................................................................
.............................. CYCLE   55 ..............................
........................................................................
------------------------------------------------------------
  cycle        total energy    energy error   density error
------------------------------------------------------------
      1     -209.2864250228  -2.1242765E+02   6.1071848E-04
      2     -209.2864255972  -5.7439789E-07   3.6072014E-04
      3     -209.2864217179   3.8793547E-06   9.2668508E-05
      4     -209.2864259743  -4.2564282E-06   1.5417709E-05
      5     -209.2864260421  -6.7867177E-08   7.6716622E-06
------------------------------------------------------------

 total:                                   0.679 sec
 * total energy  :  -209.2864260 Eh     change       -0.2378796E-03 Eh
   gradient norm :     0.0035567 Eh/α   predicted    -0.1606502E-03 ( -32.47%)
   displ. norm   :     0.5930359 α      lambda       -0.2768605E-03
   maximum displ.:     0.4148351 α      in ANC's #3, #1, #2, ...

........................................................................
.............................. CYCLE   56 ..............................
........................................................................
------------------------------------------------------------
  cycle        total energy    energy error   density error
------------------------------------------------------------
      1     -209.2866904279  -2.1242839E+02   6.6340696E-04
      2     -209.2866910897  -6.6181764E-07   3.9266666E-04
      3     -209.2866868143   4.2754112E-06   9.6381663E-05
      4     -209.2866915335  -4.7191809E-06   1.5603572E-05
      5     -209.2866915955  -6.2020803E-08   7.9297606E-06
------------------------------------------------------------

 total:                                   0.938 sec
 * total energy  :  -209.2866916 Eh     change       -0.2655534E-03 Eh
   gradient norm :     0.0033112 Eh/α   predicted    -0.1871171E-03 ( -29.54%)
   displ. norm   :     0.6429686 α      lambda       -0.3025846E-03
   maximum displ.:     0.4516746 α      in ANC's #3, #1, #2, ...

........................................................................
.............................. CYCLE   57 ..............................
........................................................................
------------------------------------------------------------
  cycle        total energy    energy error   density error
------------------------------------------------------------
      1     -209.2869789511  -2.1242898E+02   7.1314235E-04
      2     -209.2869797343  -7.8322878E-07   4.2155955E-04
      3     -209.2869748378   4.8964526E-06   1.0422273E-04
      4     -209.2869802405  -5.4026635E-06   1.7264330E-05
      5     -209.2869803191  -7.8614676E-08   8.7774537E-06
------------------------------------------------------------

 total:                                   0.870 sec
 * total energy  :  -209.2869803 Eh     change       -0.2887236E-03 Eh
   gradient norm :     0.0027101 Eh/α   predicted    -0.2138416E-03 ( -25.94%)
   displ. norm   :     0.6856958 α      lambda       -0.3182073E-03
   maximum displ.:     0.4842080 α      in ANC's #3, #1, #2, ...

........................................................................
.............................. CYCLE   58 ..............................
........................................................................
------------------------------------------------------------
  cycle        total energy    energy error   density error
------------------------------------------------------------
      1     -209.2872806729  -2.1242930E+02   7.5285555E-04
      2     -209.2872815767  -9.0377219E-07   4.4557693E-04
      3     -209.2872757312   5.8454685E-06   1.1450967E-04
      4     -209.2872821566  -6.4254135E-06   1.9251916E-05
      5     -209.2872822611  -1.0446993E-07   9.7418151E-06
------------------------------------------------------------

 total:                                   0.990 sec
 * total energy  :  -209.2872823 Eh     change       -0.3019420E-03 Eh
   gradient norm :     0.0019082 Eh/α   predicted    -0.2339110E-03 ( -22.53%)
   displ. norm   :     1.0634518 α      lambda       -0.3155965E-03
   maximum displ.:     0.7548859 α      in ANC's #3, #1, #2, ...

........................................................................
.............................. CYCLE   59 ..............................
........................................................................
------------------------------------------------------------
  cycle        total energy    energy error   density error
------------------------------------------------------------
      1     -209.2877096592  -2.1242889E+02   1.1515365E-03
      2     -209.2877118184  -2.1591197E-06   6.8042858E-04
      3     -209.2877030137   8.8046261E-06   1.4561265E-04
      4     -209.2877128265  -9.8127889E-06   2.7219604E-05
      5     -209.2877130039  -1.7738770E-07   1.4477741E-05
------------------------------------------------------------

 total:                                   1.042 sec
 * total energy  :  -209.2877130 Eh     change       -0.4307428E-03 Eh
   gradient norm :     0.0017084 Eh/α   predicted    -0.2371140E-03 ( -44.95%)
   displ. norm   :     1.0139894 α      lambda       -0.2688578E-03
   maximum displ.:     0.7235257 α      in ANC's #3, #1, #2, ...

........................................................................
.............................. CYCLE   60 ..............................
........................................................................
------------------------------------------------------------
  cycle        total energy    energy error   density error
------------------------------------------------------------
      1     -209.2880781912  -2.1242876E+02   1.0801396E-03
      2     -209.2880797915  -1.6002308E-06   6.3830191E-04
      3     -209.2880682379   1.1553544E-05   1.6191466E-04
      4     -209.2880808021  -1.2564179E-05   2.8446509E-05
      5     -209.2880810561  -2.5400357E-07   1.3696232E-05
------------------------------------------------------------

 total:                                   0.691 sec
 * total energy  :  -209.2880811 Eh     change       -0.3680522E-03 Eh
   gradient norm :     0.0024445 Eh/α   predicted    -0.1958650E-03 ( -46.78%)
   displ. norm   :     0.6586454 α      lambda       -0.2398468E-03
   maximum displ.:     0.4712832 α      in ANC's #3, #1, #2, ...

........................................................................
.............................. CYCLE   61 ..............................
........................................................................
------------------------------------------------------------
  cycle        total energy    energy error   density error
------------------------------------------------------------
      1     -209.2883070393  -2.1242876E+02   6.9834168E-04
      2     -209.2883077247  -6.8535826E-07   4.1247250E-04
      3     -209.2883030341   4.6906375E-06   1.0166341E-04
      4     -209.2883081830  -5.1489559E-06   1.7711384E-05
      5     -209.2883082768  -9.3758473E-08   8.6219739E-06
------------------------------------------------------------

 total:                                   0.574 sec
 * total energy  :  -209.2883083 Eh     change       -0.2272207E-03 Eh
   gradient norm :     0.0027952 Eh/α   predicted    -0.1719485E-03 ( -24.33%)
   displ. norm   :     0.7050711 α      lambda       -0.2592010E-03
   maximum displ.:     0.5060431 α      in ANC's #3, #1, #2, ...

........................................................................
.............................. CYCLE   62 ..............................
........................................................................
------------------------------------------------------------
  cycle        total energy    energy error   density error
------------------------------------------------------------
      1     -209.2885522173  -2.1242964E+02   7.6075801E-04
      2     -209.2885527871  -5.6972860E-07   4.4866566E-04
      3     -209.2885469249   5.8621867E-06   1.1501899E-04
      4     -209.2885533316  -6.4067073E-06   1.6933081E-05
      5     -209.2885534109  -7.9373024E-08   8.6911837E-06
------------------------------------------------------------

 total:                                   0.668 sec
 * total energy  :  -209.2885534 Eh     change       -0.2451342E-03 Eh
   gradient norm :     0.0027060 Eh/α   predicted    -0.1940296E-03 ( -20.85%)
   displ. norm   :     0.7681611 α      lambda       -0.2752439E-03
   maximum displ.:     0.5506840 α      in ANC's #3, #1, #2, ...

[...]
     DOI: 10.1063/1.5090222
   * E. Caldeweyher, J.-M. Mewes, S. Ehlert and S. Grimme, Phys. Chem. Chem. Phys.
     2020, 22, 8499-8512. DOI: 10.1039/D0CP00502A
   
   for sTDA-xTB:
   * S. Grimme and C. Bannwarth, J. Chem. Phys., 2016, 145, 054103.
     DOI: 10.1063/1.4959605
   
   in the mass-spec context:
   * V. Asgeirsson, C. Bauer and S. Grimme, Chem. Sci., 2017, 8, 4879.
     DOI: 10.1039/c7sc00601b
   * J. Koopman and S. Grimme, ACS Omega 2019, 4, 12, 15120-15133.
     DOI: 10.1021/acsomega.9b02011
   
   for metadynamics refer to:
   * S. Grimme, J. Chem. Theory Comput., 2019, 155, 2847-2862
     DOI: 10.1021/acs.jctc.9b00143
   
   for SPH calculations refer to:
   * S. Spicher and S. Grimme, J. Chem. Theory Comput., 2021, 17, 1701-1714
     DOI: 10.1021/acs.jctc.0c01306
   
   for ONIOM refer to:
   * C. Plett, A. Katbashev, S. Ehlert, S. Grimme, M. Bursch,
     Phys. Chem. Chem. Phys., 2023, 25, 17860-17868. DOI: 10.1039/D3CP02178E
   
   for DIPRO refer to:
   * J. Kohn, N. Gildemeister, S. Grimme, D. Fazzi, A. Hansen,
     J. Chem. Phys., 2023, just accepted.
   
   for PTB refer to:
   * S. Grimme, M. Mueller, A. Hansen, J. Chem. Phys., 2023, 158, 124111.
     DOI: 10.1063/5.0137838
   
   with help from (in alphabetical order)
   P. Atkinson, C. Bannwarth, F. Bohle, G. Brandenburg, E. Caldeweyher
   M. Checinski, S. Dohm, S. Ehlert, S. Ehrlich, I. Gerasimov, C. Hölzer
   A. Katbashev, J. Kohn, J. Koopman, C. Lavigne, S. Lehtola, F. März, M. Müller,
   F. Musil, H. Neugebauer, J. Pisarek, C. Plett, P. Pracht, F. Pultar,
   J. Seibert, P. Shushkov, S. Spicher, M. Stahn, M. Steiner, T. Strunk,
   J. Stückrath, T. Rose, and J. Unsleber
   
 * started run on 2025/03/11 at 14:14:49.691     
   ID    Z sym.   atoms
    1    6 C      1-21, 25-44, 47, 52-75, 142-162, 166-185, 188, 193-216
    2    8 O      22, 23, 45, 46, 48-51, 163, 164, 186, 187, 189-192
    3    5 B      24, 165
    4    1 H      76-141, 217-282

           -------------------------------------------------
          |                Calculation Setup                |
           -------------------------------------------------

          program call               : xtb opt_dimer.mol --dipro 0.3 --chrg -2 --uhf 4
          coordinate file            : opt_dimer.mol
          omp threads                :                     8


molecular fragmentation (1/2 indicates fragments):
111111111111111111111111111111111111111111111111111111111111111111111111
111111111111111111111111111111111111111111111111111111111111111111111222
222222222222222222222222222222222222222222222222222222222222222222222222
222222222222222222222222222222222222222222222222222222222222222222
# atoms in fragment 1/2:   141   141
 fragment masses (1/2) :      998.04      998.04
CMA distance (Bohr)    :  15.696
constraining FC (au)   :  0.0500
########################################################################
[WARNING] Please study the warnings concerning your input carefully
-1- prog_main: Charge in sdf/mol input was overwritten
########################################################################

           -------------------------------------------------
          |                 G F N 2 - x T B                 |
           -------------------------------------------------

        Reference                      10.1021/acs.jctc.8b01176
      * Hamiltonian:
        H0-scaling (s, p, d)           1.850000    2.230000    2.230000
        zeta-weighting                 0.500000
      * Dispersion:
        s8                             2.700000
        a1                             0.520000
        a2                             5.000000
        s9                             5.000000
      * Repulsion:
        kExp                           1.500000    1.000000
        rExp                           1.000000
      * Coulomb:
        alpha                          2.000000
        third order                    shell-resolved
        anisotropic                    true
        a3                             3.000000
        a5                             4.000000
        cn-shift                       1.200000
        cn-exp                         4.000000
        max-rad                        5.000000

q/qsh data taken from xtbrestart
CAMM data taken from xtbrestart
           -------------------------------------------------
          |                    D I P R O                    |
           -------------------------------------------------
Calculation for dimer 
--------------------- 
  
charge of dimer :  -2.
unpaired e- of dimer :  4
repulsion energy          6.2698454162115E+00 Eh
dispersion energy         3.4076824312395E-02 Eh
number of electrons       7.6400000000000E+02 e
integral cutoff           1.9311100799991E+01 bohr

------------------------------------------------------------
  cycle        total energy    energy error   density error
------------------------------------------------------------
      1     -416.8179587512  -4.2312188E+02   1.4977286E-01
      2     -418.3367373658  -1.5187786E+00   7.2168760E-02
      3     -418.2857242735   5.1013092E-02   3.9401681E-02
      4     -418.4390329994  -1.5330873E-01   1.9805315E-02
      5     -418.5681920056  -1.2915901E-01   6.9814193E-03
      6     -418.5792237899  -1.1031784E-02   2.9983646E-03
      7     -418.5804722845  -1.2484945E-03   1.3314095E-03
      8     -418.5807314368  -2.5915233E-04   5.3351818E-04
      9     -418.5807740468  -4.2610014E-05   3.0979756E-04
     10     -418.5808063595  -3.2312634E-05   1.2492233E-04
     11     -418.5808082424  -1.8829761E-06   4.9239121E-05
     12     -418.5808085177  -2.7526033E-07   2.5807654E-05
     13     -418.5808086411  -1.2338410E-07   1.1905471E-05
------------------------------------------------------------

electronic energy        -4.2488473088161E+02 Eh
total energy             -4.1858080864108E+02 Eh

 total:                                   3.533 sec
 - repulsion                              0.000 sec (  0%)
 - dispersion                             0.026 sec (  0%)
 - coulomb                                0.007 sec (  0%)
 - hamiltonian                            0.021 sec (  0%)
 - scc                                    3.477 sec ( 98%)

Found 2 fragments!
Fragment 1:  1-141
Fragment 2:  142-282

[Info] Fragment spin read from .UHFfrag
[Info] Fragment charge read from .CHRGfrag
Calculation for fragment 1
 ------------------------------
   
charge of fragment :  -1.
unpaired e- of fragment :  2
------------------------------------------------------------
  cycle        total energy    energy error   density error
------------------------------------------------------------
      1     -208.4062543196  -2.1154685E+02   1.4915624E-01
      2     -209.1716775865  -7.6542327E-01   7.1703017E-02
      3     -209.1511012408   2.0576346E-02   3.8721785E-02
      4     -209.2230797215  -7.1978481E-02   1.9540969E-02
      5     -209.2844521198  -6.1372398E-02   6.7868688E-03
      6     -209.2894277636  -4.9756438E-03   2.9394147E-03
      7     -209.2900295341  -6.0177054E-04   1.2512004E-03
      8     -209.2901380875  -1.0855342E-04   4.7187494E-04
      9     -209.2901476215  -9.5340252E-06   2.5929752E-04
     10     -209.2901564741  -8.8526037E-06   1.1957292E-04
     11     -209.2901575700  -1.0958171E-06   4.1945580E-05
     12     -209.2901576206  -5.0615739E-08   2.1743899E-05
     13     -209.2901576425  -2.1938320E-08   1.0334624E-05
------------------------------------------------------------

 total:                                   0.874 sec
Calculation for fragment 2
 ------------------------------
   
charge of fragment :  -1.
unpaired e- of fragment :  2
------------------------------------------------------------
  cycle        total energy    energy error   density error
------------------------------------------------------------
      1     -208.4070431040  -2.1154620E+02   1.5057024E-01
      2     -209.1718623496  -7.6481925E-01   7.2277883E-02
      3     -209.1471197642   2.4742585E-02   3.9304562E-02
      4     -209.2201766074  -7.3056843E-02   1.9969345E-02
      5     -209.2864539498  -6.6277342E-02   6.9454277E-03
      6     -209.2916899095  -5.2359597E-03   2.9618055E-03
      7     -209.2923002622  -6.1035273E-04   1.2677644E-03
      8     -209.2924149630  -1.1470076E-04   4.9687250E-04
      9     -209.2924282064  -1.3243408E-05   2.6962837E-04
     10     -209.2924378561  -9.6497319E-06   1.2056876E-04
     11     -209.2924387875  -9.3137479E-07   4.3291331E-05
     12     -209.2924388411  -5.3624547E-08   2.2580968E-05
     13     -209.2924388711  -3.0028133E-08   1.1160453E-05
------------------------------------------------------------

 total:                                   0.810 sec
   
   ::::::::::::::::::::::::::::::::::::::::::::::
   ::     D I P R O      C O U P L I N G S     ::
   ::::::::::::::::::::::::::::::::::::::::::::::
   
energy threshhold for near-degenerate orbitals near HOMO and LUMO considered for DIPRO:  0.300 eV
no. of orbitals within energy window of frag 1         7
no. of orbitals within energy window of frag 2         6
   
  Fragment 1 HOMO-4  Fragment 2 HOMO-3
--------------------------------------
E_mon(orb) frag1 frag2              -6.663    -6.644 eV
J(AB):                0.001 eV
S(AB):            -0.00004100 Eh
|J(AB,eff)|:            0.001 eV
   
  Fragment 1 HOMO-4  Fragment 2 HOMO-2
--------------------------------------
E_mon(orb) frag1 frag2              -6.663    -6.612 eV
J(AB):                0.001 eV
S(AB):            -0.00002086 Eh
|J(AB,eff)|:            0.001 eV
   
  Fragment 1 HOMO-4  Fragment 2 HOMO-1
--------------------------------------
E_mon(orb) frag1 frag2              -6.663    -6.534 eV
J(AB):               -0.001 eV
S(AB):             0.00005384 Eh
|J(AB,eff)|:            0.001 eV
   
  Fragment 1 HOMO-4  Fragment 2 HOMO 
--------------------------------------
E_mon(orb) frag1 frag2              -6.663    -6.493 eV
J(AB):               -0.000 eV
S(AB):            -0.00003262 Eh
|J(AB,eff)|:            0.001 eV
   
  Fragment 1 HOMO-4  Fragment 2 LUMO 
--------------------------------------
E_mon(orb) frag1 frag2              -6.663    -5.545 eV
J(AB):               -0.002 eV
S(AB):             0.00013357 Eh
|J(AB,eff)|:            0.001 eV
   
  Fragment 1 HOMO-4  Fragment 2 LUMO+1
--------------------------------------
E_mon(orb) frag1 frag2              -6.663    -5.503 eV
J(AB):               -0.000 eV
S(AB):             0.00000433 Eh
|J(AB,eff)|:            0.000 eV
   
  Fragment 1 HOMO-3  Fragment 2 HOMO-3
--------------------------------------
E_mon(orb) frag1 frag2              -6.492    -6.644 eV
J(AB):                0.002 eV
S(AB):            -0.00011753 Eh
|J(AB,eff)|:            0.001 eV
   
  Fragment 1 HOMO-3  Fragment 2 HOMO-2
--------------------------------------
E_mon(orb) frag1 frag2              -6.492    -6.612 eV
J(AB):               -0.000 eV
S(AB):             0.00002252 Eh
|J(AB,eff)|:            0.000 eV
   
  Fragment 1 HOMO-3  Fragment 2 HOMO-1
--------------------------------------
E_mon(orb) frag1 frag2              -6.492    -6.534 eV
J(AB):               -0.000 eV
S(AB):             0.00003154 Eh
|J(AB,eff)|:            0.000 eV
   
  Fragment 1 HOMO-3  Fragment 2 HOMO 
--------------------------------------
E_mon(orb) frag1 frag2              -6.492    -6.493 eV
J(AB):               -0.002 eV
S(AB):             0.00006648 Eh
|J(AB,eff)|:            0.002 eV
   
  Fragment 1 HOMO-3  Fragment 2 LUMO 
--------------------------------------
E_mon(orb) frag1 frag2              -6.492    -5.545 eV
J(AB):                0.003 eV
S(AB):            -0.00010299 Eh
|J(AB,eff)|:            0.002 eV
   
  Fragment 1 HOMO-3  Fragment 2 LUMO+1
--------------------------------------
E_mon(orb) frag1 frag2              -6.492    -5.503 eV
J(AB):                0.004 eV
S(AB):            -0.00020975 Eh
|J(AB,eff)|:            0.002 eV
   
  Fragment 1 HOMO-2  Fragment 2 HOMO-3
--------------------------------------
E_mon(orb) frag1 frag2              -6.623    -6.644 eV
J(AB):               -0.007 eV
S(AB):             0.00034857 Eh
|J(AB,eff)|:            0.005 eV
   
  Fragment 1 HOMO-2  Fragment 2 HOMO-2
--------------------------------------
E_mon(orb) frag1 frag2              -6.623    -6.612 eV
J(AB):               -0.010 eV
S(AB):             0.00049110 Eh
|J(AB,eff)|:            0.007 eV
   
  Fragment 1 HOMO-2  Fragment 2 HOMO-1
--------------------------------------
E_mon(orb) frag1 frag2              -6.623    -6.534 eV
J(AB):                0.022 eV
S(AB):            -0.00112403 Eh
|J(AB,eff)|:            0.014 eV
   
  Fragment 1 HOMO-2  Fragment 2 HOMO 
--------------------------------------
E_mon(orb) frag1 frag2              -6.623    -6.493 eV
J(AB):                0.003 eV
S(AB):            -0.00015674 Eh
|J(AB,eff)|:            0.002 eV
   
  Fragment 1 HOMO-2  Fragment 2 LUMO 
--------------------------------------
E_mon(orb) frag1 frag2              -6.623    -5.545 eV
J(AB):                0.002 eV
S(AB):            -0.00010129 Eh
|J(AB,eff)|:            0.002 eV
   
  Fragment 1 HOMO-2  Fragment 2 LUMO+1
--------------------------------------
E_mon(orb) frag1 frag2              -6.623    -5.503 eV
J(AB):                0.001 eV
S(AB):            -0.00001622 Eh
|J(AB,eff)|:            0.001 eV
   
  Fragment 1 HOMO-1  Fragment 2 HOMO-3
--------------------------------------
E_mon(orb) frag1 frag2              -6.459    -6.644 eV
J(AB):                0.000 eV
S(AB):            -0.00002677 Eh
|J(AB,eff)|:            0.000 eV
   
  Fragment 1 HOMO-1  Fragment 2 HOMO-2
--------------------------------------
E_mon(orb) frag1 frag2              -6.459    -6.612 eV
J(AB):               -0.000 eV
S(AB):            -0.00000011 Eh
|J(AB,eff)|:            0.000 eV
   
  Fragment 1 HOMO-1  Fragment 2 HOMO-1
--------------------------------------
E_mon(orb) frag1 frag2              -6.459    -6.534 eV
J(AB):               -0.004 eV
S(AB):             0.00021548 Eh
|J(AB,eff)|:            0.003 eV
   
  Fragment 1 HOMO-1  Fragment 2 HOMO 
--------------------------------------
E_mon(orb) frag1 frag2              -6.459    -6.493 eV
J(AB):               -0.001 eV
S(AB):             0.00003325 Eh
|J(AB,eff)|:            0.001 eV
   
  Fragment 1 HOMO-1  Fragment 2 LUMO 
--------------------------------------
E_mon(orb) frag1 frag2              -6.459    -5.545 eV
J(AB):               -0.001 eV
S(AB):             0.00003889 Eh
|J(AB,eff)|:            0.001 eV
   
  Fragment 1 HOMO-1  Fragment 2 LUMO+1
--------------------------------------
E_mon(orb) frag1 frag2              -6.459    -5.503 eV
J(AB):                0.000 eV
S(AB):            -0.00005275 Eh
|J(AB,eff)|:            0.000 eV
   
  Fragment 1 HOMO   Fragment 2 HOMO-3
--------------------------------------
E_mon(orb) frag1 frag2              -6.402    -6.644 eV
J(AB):                0.005 eV
S(AB):            -0.00021180 Eh
|J(AB,eff)|:            0.003 eV
   
  Fragment 1 HOMO   Fragment 2 HOMO-2
--------------------------------------
E_mon(orb) frag1 frag2              -6.402    -6.612 eV
J(AB):                0.008 eV
S(AB):            -0.00037602 Eh
|J(AB,eff)|:            0.005 eV
   
  Fragment 1 HOMO   Fragment 2 HOMO-1
--------------------------------------
E_mon(orb) frag1 frag2              -6.402    -6.534 eV
J(AB):               -0.017 eV
S(AB):             0.00083793 Eh
|J(AB,eff)|:            0.011 eV
   
  Fragment 1 HOMO   Fragment 2 HOMO 
--------------------------------------
E_mon(orb) frag1 frag2              -6.402    -6.493 eV
J(AB):               -0.002 eV
S(AB):             0.00009726 Eh
|J(AB,eff)|:            0.001 eV
   
  Fragment 1 HOMO   Fragment 2 LUMO 
--------------------------------------
E_mon(orb) frag1 frag2              -6.402    -5.545 eV
J(AB):               -0.002 eV
S(AB):             0.00009711 Eh
|J(AB,eff)|:            0.001 eV
   
  Fragment 1 HOMO   Fragment 2 LUMO+1
--------------------------------------
E_mon(orb) frag1 frag2              -6.402    -5.503 eV
J(AB):               -0.002 eV
S(AB):             0.00014181 Eh
|J(AB,eff)|:            0.001 eV
   
  Fragment 1 LUMO   Fragment 2 HOMO-3
--------------------------------------
E_mon(orb) frag1 frag2              -5.399    -6.644 eV
J(AB):                0.000 eV
S(AB):            -0.00001828 Eh
|J(AB,eff)|:            0.000 eV
   
  Fragment 1 LUMO   Fragment 2 HOMO-2
--------------------------------------
E_mon(orb) frag1 frag2              -5.399    -6.612 eV
J(AB):                0.000 eV
S(AB):             0.00000258 Eh
|J(AB,eff)|:            0.000 eV
   
  Fragment 1 LUMO   Fragment 2 HOMO-1
--------------------------------------
E_mon(orb) frag1 frag2              -5.399    -6.534 eV
J(AB):                0.001 eV
S(AB):            -0.00001788 Eh
|J(AB,eff)|:            0.000 eV
   
  Fragment 1 LUMO   Fragment 2 HOMO 
--------------------------------------
E_mon(orb) frag1 frag2              -5.399    -6.493 eV
J(AB):                0.002 eV
S(AB):            -0.00015752 Eh
|J(AB,eff)|:            0.001 eV
   
  Fragment 1 LUMO   Fragment 2 LUMO 
--------------------------------------
E_mon(orb) frag1 frag2              -5.399    -5.545 eV
J(AB):               -0.003 eV
S(AB):             0.00021005 Eh
|J(AB,eff)|:            0.002 eV
   
  Fragment 1 LUMO   Fragment 2 LUMO+1
--------------------------------------
E_mon(orb) frag1 frag2              -5.399    -5.503 eV
J(AB):               -0.001 eV
S(AB):             0.00000411 Eh
|J(AB,eff)|:            0.001 eV
   
  Fragment 1 LUMO+1  Fragment 2 HOMO-3
--------------------------------------
E_mon(orb) frag1 frag2              -5.460    -6.644 eV
J(AB):                0.001 eV
S(AB):            -0.00000973 Eh
|J(AB,eff)|:            0.001 eV
   
  Fragment 1 LUMO+1  Fragment 2 HOMO-2
--------------------------------------
E_mon(orb) frag1 frag2              -5.460    -6.612 eV
J(AB):                0.001 eV
S(AB):            -0.00004391 Eh
|J(AB,eff)|:            0.001 eV
   
  Fragment 1 LUMO+1  Fragment 2 HOMO-1
--------------------------------------
E_mon(orb) frag1 frag2              -5.460    -6.534 eV
J(AB):               -0.002 eV
S(AB):             0.00009488 Eh
|J(AB,eff)|:            0.001 eV
   
  Fragment 1 LUMO+1  Fragment 2 HOMO 
--------------------------------------
E_mon(orb) frag1 frag2              -5.460    -6.493 eV
J(AB):               -0.001 eV
S(AB):             0.00008016 Eh
|J(AB,eff)|:            0.001 eV
   
  Fragment 1 LUMO+1  Fragment 2 LUMO 
--------------------------------------
E_mon(orb) frag1 frag2              -5.460    -5.545 eV
J(AB):                0.002 eV
S(AB):            -0.00012400 Eh
|J(AB,eff)|:            0.002 eV
   
  Fragment 1 LUMO+1  Fragment 2 LUMO+1
--------------------------------------
E_mon(orb) frag1 frag2              -5.460    -5.503 eV
J(AB):                0.001 eV
S(AB):            -0.00004450 Eh
|J(AB,eff)|:            0.001 eV
   
..............................................................................
:  total |J(AB,eff)| for hole transport (occ. MOs) :               0.021 eV  :
:  total |J(AB,eff)| for charge transport (unocc. MOs) :           0.003 eV  :
:  total |J(AB,eff)| for charge transfer (CT) :                    0.005 eV  :
..............................................................................
  
 Please remember, DIPRO is not available for restart!
   
normal termination of dipro
----------------------------------------------------------
 * finished run on 2025/03/11 at 14:14:54.976     
----------------------------------------------------------
 dipro:
 * wall-time:     0 d,  0 h,  0 min,  5.269 sec
 *  cpu-time:     0 d,  0 h,  0 min, 20.801 sec
 * ratio c/w:     3.948 speedup
Reorganization energy (electron): 0.11664921168420651 eV
Reorganization energy (hole): 0.08574928614235573 eV
Electron Transfer integral J: 0.003 eV
Hole Transfer integral J: 0.021 eV
