Optimization of monomers started
      -----------------------------------------------------------      
     |                   =====================                   |     
     |                           x T B                           |     
     |                   =====================                   |     
     |                         S. Grimme                         |     
     |          Mulliken Center for Theoretical Chemistry        |     
     |                    University of Bonn                     |     
      -----------------------------------------------------------      

   * xtb version 6.7.1 (edcfbbe) compiled by 'runner@Mac-1732539442253.local' on 2024-11-25

   xtb is free software: you can redistribute it and/or modify it under
   the terms of the GNU Lesser General Public License as published by
   the Free Software Foundation, either version 3 of the License, or
   (at your option) any later version.
   
   xtb is distributed in the hope that it will be useful,
   but WITHOUT ANY WARRANTY; without even the implied warranty of
   MERCHANTABILITY or FITNESS FOR A PARTICULAR PURPOSE.  See the
   GNU Lesser General Public License for more details.
   
   Cite this work as:
   * C. Bannwarth, E. Caldeweyher, S. Ehlert, A. Hansen, P. Pracht,
     J. Seibert, S. Spicher, S. Grimme, WIREs Comput. Mol. Sci., 2020, 11,
     e01493. DOI: 10.1002/wcms.1493
   
   for GFN2-xTB:
   * C. Bannwarth, S. Ehlert and S. Grimme., J. Chem. Theory Comput., 2019,
     15, 1652-1671. DOI: 10.1021/acs.jctc.8b01176
   for GFN1-xTB:
   * S. Grimme, C. Bannwarth, P. Shushkov, J. Chem. Theory Comput., 2017,
     13, 1989-2009. DOI: 10.1021/acs.jctc.7b00118
   for GFN0-xTB:
   * P. Pracht, E. Caldeweyher, S. Ehlert, S. Grimme, ChemRxiv, 2019, preprint.
     DOI: 10.26434/chemrxiv.8326202.v1
   for GFN-FF:
   * S. Spicher and S. Grimme, Angew. Chem. Int. Ed., 2020, 59, 15665-15673.
     DOI: 10.1002/anie.202004239
   
   for ALPB and GBSA implicit solvation:
   * S. Ehlert, M. Stahn, S. Spicher, S. Grimme, J. Chem. Theory Comput.,
     2021, 17, 4250-4261. DOI: 10.1021/acs.jctc.1c00471
   
   for ddCOSMO and CPCM-X implicit solvation:
   * M. Stahn, S. Ehlert, S. Grimme, J. Phys. Chem. A,
     2023, XX, XXXX-XXXX. DOI: 10.1021/acs.jpca.3c04382
   
   for DFT-D4:
   * E. Caldeweyher, C. Bannwarth and S. Grimme, J. Chem. Phys., 2017,
     147, 034112. DOI: 10.1063/1.4993215
   * E. Caldeweyher, S. Ehlert, A. Hansen, H. Neugebauer, S. Spicher,
     C. Bannwarth and S. Grimme, J. Chem. Phys., 2019, 150, 154122.
     DOI: 10.1063/1.5090222
   * E. Caldeweyher, J.-M. Mewes, S. Ehlert and S. Grimme, Phys. Chem. Chem. Phys.
     2020, 22, 8499-8512. DOI: 10.1039/D0CP00502A
   
   for sTDA-xTB:
   * S. Grimme and C. Bannwarth, J. Chem. Phys., 2016, 145, 054103.
     DOI: 10.1063/1.4959605
   
   in the mass-spec context:
   * V. Asgeirsson, C. Bauer and S. Grimme, Chem. Sci., 2017, 8, 4879.
     DOI: 10.1039/c7sc00601b
   * J. Koopman and S. Grimme, ACS Omega 2019, 4, 12, 15120-15133.
     DOI: 10.1021/acsomega.9b02011
   
   for metadynamics refer to:
   * S. Grimme, J. Chem. Theory Comput., 2019, 155, 2847-2862
     DOI: 10.1021/acs.jctc.9b00143
   
   for SPH calculations refer to:
   * S. Spicher and S. Grimme, J. Chem. Theory Comput., 2021, 17, 1701-1714
     DOI: 10.1021/acs.jctc.0c01306
   
   for ONIOM refer to:
   * C. Plett, A. Katbashev, S. Ehlert, S. Grimme, M. Bursch,
     Phys. Chem. Chem. Phys., 2023, 25, 17860-17868. DOI: 10.1039/D3CP02178E
   
   for DIPRO refer to:
   * J. Kohn, N. Gildemeister, S. Grimme, D. Fazzi, A. Hansen,
     J. Chem. Phys., 2023, just accepted.
   
   for PTB refer to:
   * S. Grimme, M. Mueller, A. Hansen, J. Chem. Phys., 2023, 158, 124111.
     DOI: 10.1063/5.0137838
   
   with help from (in alphabetical order)
   P. Atkinson, C. Bannwarth, F. Bohle, G. Brandenburg, E. Caldeweyher
   M. Checinski, S. Dohm, S. Ehlert, S. Ehrlich, I. Gerasimov, C. Hölzer
   A. Katbashev, J. Kohn, J. Koopman, C. Lavigne, S. Lehtola, F. März, M. Müller,
   F. Musil, H. Neugebauer, J. Pisarek, C. Plett, P. Pracht, F. Pultar,
   J. Seibert, P. Shushkov, S. Spicher, M. Stahn, M. Steiner, T. Strunk,
   J. Stückrath, T. Rose, and J. Unsleber
   
 * started run on 2025/02/28 at 15:40:45.092     
   ID    Z sym.   atoms
    1    6 C      1-9, 11, 12, 14-21, 26-34, 36, 37, 39-46, 54, 56, 60, 63,
                  66, 69, 71, 72, 74, 75
    2    7 N      10, 13, 35, 38, 70, 73
    3    8 O      22, 47, 52, 53, 55, 57-59, 61, 62, 64, 65, 67, 68
    4   16 S      23-25, 48-50
    5    5 B      51
    6    1 H      76-115

           -------------------------------------------------
          |                Calculation Setup                |
           -------------------------------------------------

          program call               : xtb Base2SO2Me.mol --opt --iterations 2000 --chrg 0 --uhf 1 --gfn 2
          coordinate file            : Base2SO2Me.mol
          omp threads                :                     8


molecular fragmentation (1/2 indicates fragments):
111111111111111111111111111111111111111111111111111111111111111111111111
1111111121111111111111112111111111111111111
# atoms in fragment 1/2:   113     2
 fragment masses (1/2) :     1126.05        2.02
CMA distance (Bohr)    :   3.645
constraining FC (au)   :  0.0500
########################################################################
[WARNING] Please study the warnings concerning your input carefully
-1- prog_main: Charge in sdf/mol input was overwritten
########################################################################

           -------------------------------------------------
          |                 G F N 2 - x T B                 |
           -------------------------------------------------

        Reference                      10.1021/acs.jctc.8b01176
      * Hamiltonian:
        H0-scaling (s, p, d)           1.850000    2.230000    2.230000
        zeta-weighting                 0.500000
      * Dispersion:
        s8                             2.700000
        a1                             0.520000
        a2                             5.000000
        s9                             5.000000
      * Repulsion:
        kExp                           1.500000    1.000000
        rExp                           1.000000
      * Coulomb:
        alpha                          2.000000
        third order                    shell-resolved
        anisotropic                    true
        a3                             3.000000
        a5                             4.000000
        cn-shift                       1.200000
        cn-exp                         4.000000
        max-rad                        5.000000


          ...................................................
          :                      SETUP                      :
          :.................................................:
          :  # basis functions                 376          :
          :  # atomic orbitals                 370          :
          :  # shells                          196          :
          :  # electrons                       385          :
          :  max. iterations                  2000          :
          :  Hamiltonian                  GFN2-xTB          :
          :  restarted?                      false          :
          :  GBSA solvation                  false          :
          :  PC potential                    false          :
          :  electronic temp.          300.0000000     K    :
          :  accuracy                    1.0000000          :
          :  -> integral cutoff          0.2500000E+02      :
          :  -> integral neglect         0.1000000E-07      :
          :  -> SCF convergence          0.1000000E-05 Eh   :
          :  -> wf. convergence          0.1000000E-03 e    :
          :  Broyden damping             0.4000000          :
          :  net charge                          0          :
          :  unpaired electrons                  1          :
          ...................................................

 iter      E             dE          RMSdq      gap      omega  full diag
   1   -218.1892011 -0.218189E+03  0.610E+00    0.10       0.0  T
   2   -214.0407825  0.414842E+01  0.877E+00    0.16       1.0  T
   3   -219.4005603 -0.535978E+01  0.388E+00    0.24       1.0  T
   4   -208.6067160  0.107938E+02  0.646E+00    0.14       1.0  T
   5   -215.4585356 -0.685182E+01  0.508E+00    0.07       1.0  T
   6   -219.4875816 -0.402905E+01  0.205E+00    0.45       1.0  T
   7   -219.5725872 -0.850056E-01  0.173E+00    0.15       1.0  T
   8   -219.7112134 -0.138626E+00  0.157E+00    0.14       1.0  T
   9   -219.7221905 -0.109771E-01  0.124E+00    0.12       1.0  T
  10   -219.6809073  0.412832E-01  0.126E+00    0.12       1.0  T
  11   -219.7740705 -0.931632E-01  0.117E+00    0.04       1.0  T
  12   -219.9073962 -0.133326E+00  0.888E-01    0.02       1.0  T
  13   -219.9137893 -0.639310E-02  0.685E-01    0.01       1.0  T
  14   -219.9348648 -0.210755E-01  0.711E-01    0.06       1.0  T
  15   -219.9242792  0.105856E-01  0.691E-01    0.08       1.0  T
  16   -219.9425738 -0.182946E-01  0.644E-01    0.05       1.0  T
  17   -219.9057550  0.368188E-01  0.666E-01    0.01       1.0  T
  18   -219.9638881 -0.581331E-01  0.505E-01    0.01       1.0  T
  19   -219.9690098 -0.512163E-02  0.390E-01    0.00       1.0  T
  20   -219.9760389 -0.702913E-02  0.315E-01    0.01       1.0  T
  21   -219.9570916  0.189473E-01  0.388E-01    0.01       1.0  T
  22   -219.9713210 -0.142294E-01  0.288E-01    0.01       1.0  T
  23   -219.9838412 -0.125202E-01  0.182E-01    0.01       1.0  T
  24   -219.9867735 -0.293224E-02  0.101E-01    0.01       1.0  T
  25   -219.9870937 -0.320266E-03  0.937E-02    0.00       1.0  T
  26   -219.9874694 -0.375704E-03  0.709E-02    0.00       1.0  T
  27   -219.9879101 -0.440603E-03  0.516E-02    0.00       1.0  T
  28   -219.9882922 -0.382180E-03  0.168E-02    0.01       1.0  T
  29   -219.9882938 -0.158015E-05  0.142E-02    0.00       1.0  T
  30   -219.9881879  0.105892E-03  0.254E-02    0.00       1.0  T
  31   -219.9883074 -0.119472E-03  0.105E-02    0.00       1.0  T
  32   -219.9883257 -0.183433E-04  0.478E-03    0.00       2.0  T
  33   -219.9883270 -0.129393E-05  0.348E-03    0.00       2.7  T
  34   -219.9883290 -0.192476E-05  0.110E-03    0.00       8.5  T
  35   -219.9883291 -0.118922E-06  0.542E-04    0.00      17.2  T
  36   -219.9883291 -0.965505E-08  0.440E-04    0.00      21.2  T

   *** convergence criteria satisfied after 36 iterations ***

         #    Occupation            Energy/Eh            Energy/eV
      -------------------------------------------------------------
         1        2.0000           -0.8388907             -22.8274
       ...           ...                  ...                  ...
       187        1.9989           -0.2731335              -7.4323
       188        1.9946           -0.2716025              -7.3907
       189        1.9937           -0.2714445              -7.3864
       190        1.9618           -0.2697171              -7.3394
       191        1.5359           -0.2670543              -7.2669
       192        1.3796           -0.2666534              -7.2560
       193        1.1074           -0.2660571              -7.2398 (HOMO)
       194        1.0283           -0.2658935              -7.2353 (LUMO)
       195                         -0.2226076              -6.0575
       196                         -0.2178700              -5.9285
       197                         -0.2176069              -5.9214
       198                         -0.2138289              -5.8186
       ...                                ...                  ...
       370                          4.8681944             132.4703
      -------------------------------------------------------------
                  HL-Gap            0.0001636 Eh            0.0045 eV
             Fermi-level           -0.2658354 Eh           -7.2337 eV

 SCC (total)                   0 d,  0 h,  0 min,  2.332 sec
 SCC setup                      ...        0 min,  0.001 sec (  0.031%)
 Dispersion                     ...        0 min,  0.001 sec (  0.059%)
 classical contributions        ...        0 min,  0.000 sec (  0.020%)
 integral evaluation            ...        0 min,  0.008 sec (  0.352%)
 iterations                     ...        0 min,  2.269 sec ( 97.312%)
 molecular gradient             ...        0 min,  0.045 sec (  1.924%)
 printout                       ...        0 min,  0.007 sec (  0.301%)

         :::::::::::::::::::::::::::::::::::::::::::::::::::::
         ::                     SUMMARY                     ::
         :::::::::::::::::::::::::::::::::::::::::::::::::::::
         :: total energy            -213.961927376178 Eh    ::
         :: gradient norm              5.577652127276 Eh/a0 ::
         :: HOMO-LUMO gap              0.004450665850 eV    ::
         ::.................................................::
         :: SCC energy              -219.984146698851 Eh    ::
         :: -> isotropic ES            0.417272311851 Eh    ::
         :: -> anisotropic ES          0.063329282638 Eh    ::
         :: -> anisotropic XC          0.040316246283 Eh    ::
         :: -> dispersion             -0.197869583194 Eh    ::
         :: repulsion energy           6.022219322673 Eh    ::
         :: add. restraining           0.000000000000 Eh    ::
         :: total charge               0.000000000003 e     ::
         :::::::::::::::::::::::::::::::::::::::::::::::::::::

      ----------------------------------------------------------- 
     |                   =====================                   |
     |                        A N C O P T                        |
     |                   =====================                   |
     |               Approximate Normal Coordinate               |
     |                Rational Function Optimizer                |
      ----------------------------------------------------------- 
      ----------------------------------------------------------- 
     |                   =====================                   |
     |                        A N C O P T                        |
     |                   =====================                   |
     |               Approximate Normal Coordinate               |
     |                Rational Function Optimizer                |
      ----------------------------------------------------------- 

          ...................................................
          :                      SETUP                      :
          :.................................................:
          :   optimization level            normal          :
          :   max. optcycles                   345          :
          :   ANC micro-cycles                  20          :
          :   degrees of freedom               339          :
          :.................................................:
          :   RF solver                   davidson          :
          :   write xtbopt.log                true          :
          :   linear?                        false          :
          :   energy convergence         0.5000000E-05 Eh   :
          :   grad. convergence          0.1000000E-02 Eh/α :
          :   maxmium RF displ.          1.0000000          :
          :   Hlow (freq-cutoff)         0.1000000E-01      :
          :   Hmax (freq-cutoff)         5.0000000          :
          :   S6 in model hess.         20.0000000          :
          ...................................................

generating ANC from exact Hessian ...
Using Lindh-Hessian (1995)
 Shifting diagonal of input Hessian by    9.9496797916686589E-003
 Lowest  eigenvalues of input Hessian
    0.000000    0.000000    0.000000    0.000000    0.000000    0.000000
    0.010000    0.010034    0.010112    0.010195    0.010311    0.010422
    0.010612    0.010654    0.010849    0.010913    0.011055    0.011301
 Highest eigenvalues
    6.207724    6.254225    6.276310    6.329307    6.416943    7.669459


........................................................................
.............................. CYCLE    1 ..............................
........................................................................

 iter      E             dE          RMSdq      gap      omega  full diag
   1   -219.9883291 -0.219988E+03  0.384E-04    0.00       0.0  T
   2   -219.9883108  0.182363E-04  0.894E-03    0.00       1.0  T
   3   -219.9883289 -0.180937E-04  0.103E-03    0.00       9.0  T
   4   -219.9883291 -0.160525E-06  0.332E-04    0.00      28.1  T
   5   -219.9883291 -0.218785E-08  0.247E-04    0.00      37.7  T
     SCC iter.                  ...        0 min,  0.362 sec
     gradient                   ...        0 min,  0.042 sec
 * total energy  :  -213.9619274 Eh     change       -0.1788439E-07 Eh
   gradient norm :     5.5776548 Eh/α   predicted     0.0000000E+00 (-100.00%)
   displ. norm   :     0.7899646 α      lambda       -0.4321151E+01
   maximum displ.:     0.4462565 α      in ANC's #293, #268, #327, ...

........................................................................
.............................. CYCLE    2 ..............................
........................................................................

 iter      E             dE          RMSdq      gap      omega  full diag
   1   -219.3942300 -0.219394E+03  0.203E+00    0.20       0.0  T
   2   -218.5882534  0.805977E+00  0.271E+00    0.22       1.0  T
   3   -219.5618473 -0.973594E+00  0.193E+00    0.32       1.0  T
   4   -219.8745767 -0.312729E+00  0.124E+00    0.07       1.0  T
   5   -219.8600177  0.145590E-01  0.110E+00    0.08       1.0  T
   6   -219.7916523  0.683654E-01  0.121E+00    0.09       1.0  T
   7   -219.9011694 -0.109517E+00  0.111E+00    0.07       1.0  T
   8   -219.8579509  0.432185E-01  0.129E+00    0.09       1.0  T
   9   -219.9463693 -0.884183E-01  0.701E-01    0.06       1.0  T
  10   -219.8982851  0.480841E-01  0.955E-01    0.06       1.0  T
  11   -219.9894488 -0.911636E-01  0.623E-01    0.05       1.0  T
  12   -219.9556536  0.337952E-01  0.748E-01    0.05       1.0  T
  13   -219.9361969  0.194567E-01  0.828E-01    0.08       1.0  T
  14   -219.8720353  0.641616E-01  0.940E-01    0.02       1.0  T
  15   -220.0117257 -0.139690E+00  0.408E-01    0.02       1.0  T
  16   -220.0270561 -0.153304E-01  0.274E-01    0.00       1.0  T
  17   -220.0333288 -0.627267E-02  0.215E-01    0.01       1.0  T
  18   -220.0369784 -0.364965E-02  0.988E-02    0.01       1.0  T
  19   -220.0372584 -0.280031E-03  0.791E-02    0.00       1.0  T
  20   -220.0372397  0.187781E-04  0.773E-02    0.00       1.0  T
  21   -220.0378759 -0.636238E-03  0.466E-02    0.00       1.0  T
  22   -220.0381251 -0.249225E-03  0.312E-02    0.01       1.0  T
  23   -220.0377441  0.381041E-03  0.491E-02    0.01       1.0  T
  24   -220.0381637 -0.419621E-03  0.188E-02    0.01       1.0  T
  25   -220.0381763 -0.126262E-04  0.177E-02    0.00       1.0  T
  26   -220.0382346 -0.583080E-04  0.549E-03    0.01       1.7  T
  27   -220.0382354 -0.742664E-06  0.486E-03    0.01       1.9  T
  28   -220.0382390 -0.361247E-05  0.103E-03    0.01       9.1  T
  29   -220.0382391 -0.743547E-07  0.765E-04    0.01      12.2  T
  30   -220.0382391 -0.359482E-07  0.746E-04    0.01      12.5  T
     SCC iter.                  ...        0 min,  2.038 sec
     gradient                   ...        0 min,  0.044 sec
 * total energy  :  -216.1345211 Eh     change       -0.2172594E+01 Eh
   gradient norm :     1.6778685 Eh/α   predicted    -0.3508870E+01 (  61.51%)
   displ. norm   :     0.6342619 α      lambda       -0.9724331E+00
   maximum displ.:     0.1581086 α      in ANC's #268, #246, #308, ...

........................................................................
.............................. CYCLE    3 ..............................
........................................................................

 iter      E             dE          RMSdq      gap      omega  full diag
   1   -219.7575411 -0.219758E+03  0.212E+00    0.04       0.0  T
   2   -219.3800443  0.377497E+00  0.252E+00    0.21       1.0  T
   3   -219.8370708 -0.457026E+00  0.179E+00    0.09       1.0  T
   4   -219.9000586 -0.629879E-01  0.158E+00    0.05       1.0  T
   5   -219.9372120 -0.371534E-01  0.154E+00    0.02       1.0  T
   6   -220.0998694 -0.162657E+00  0.821E-01    0.02       1.0  T
   7   -220.0311512  0.687182E-01  0.105E+00    0.05       1.0  T
   8   -219.9301183  0.101033E+00  0.111E+00    0.06       1.0  T
   9   -219.8767142  0.534041E-01  0.147E+00    0.04       1.0  T
  10   -220.0145009 -0.137787E+00  0.103E+00    0.02       1.0  T
  11   -220.1279513 -0.113450E+00  0.468E-01    0.02       1.0  T
  12   -219.9921502  0.135801E+00  0.100E+00    0.01       1.0  T
  13   -220.1279737 -0.135823E+00  0.521E-01    0.01       1.0  T
  14   -220.1418573 -0.138836E-01  0.405E-01    0.02       1.0  T
  15   -220.1094153  0.324420E-01  0.473E-01    0.02       1.0  T
  16   -220.1457733 -0.363580E-01  0.253E-01    0.03       1.0  T
  17   -220.1540328 -0.825954E-02  0.134E-01    0.02       1.0  T
  18   -220.1538086  0.224191E-03  0.130E-01    0.02       1.0  T
  19   -220.1563258 -0.251718E-02  0.631E-02    0.02       1.0  T
  20   -220.1568610 -0.535163E-03  0.292E-02    0.01       1.0  T
  21   -220.1568755 -0.145443E-04  0.260E-02    0.01       1.0  T
  22   -220.1569646 -0.891072E-04  0.147E-02    0.01       1.0  T
  23   -220.1569805 -0.158372E-04  0.127E-02    0.01       1.0  T
  24   -220.1569997 -0.191973E-04  0.502E-03    0.01       1.9  T
  25   -220.1569996  0.834209E-07  0.408E-03    0.01       2.3  T
  26   -220.1570015 -0.193030E-05  0.183E-03    0.01       5.1  T
  27   -220.1570015  0.274788E-07  0.161E-03    0.01       5.8  T
  28   -220.1570018 -0.314829E-06  0.113E-03    0.01       8.2  T
  29   -220.1570019 -0.150075E-06  0.610E-04    0.01      15.3  T
  30   -220.1570020 -0.504233E-07  0.138E-04    0.01      67.7  T
     SCC iter.                  ...        0 min,  2.432 sec
     gradient                   ...        0 min,  0.051 sec
 * total energy  :  -216.8977714 Eh     change       -0.7632503E+00 Eh
   gradient norm :     0.9998338 Eh/α   predicted    -0.6818232E+00 ( -10.67%)
   displ. norm   :     0.7136836 α      lambda       -0.6648338E+00
   maximum displ.:     0.1670129 α      in ANC's #308, #222, #231, ...

........................................................................
.............................. CYCLE    4 ..............................
........................................................................

 iter      E             dE          RMSdq      gap      omega  full diag
   1   -220.0755111 -0.220076E+03  0.190E+00    0.01       0.0  T
   2   -219.6743389  0.401172E+00  0.232E+00    0.04       1.0  T
   3   -219.9096946 -0.235356E+00  0.188E+00    0.14       1.0  T
   4   -220.0223537 -0.112659E+00  0.196E+00    0.10       1.0  T
   5   -220.2689920 -0.246638E+00  0.926E-01    0.06       1.0  T
   6   -220.2777077 -0.871565E-02  0.810E-01    0.02       1.0  T
   7   -220.0983383  0.179369E+00  0.113E+00    0.07       1.0  T
   8   -219.9759088  0.122430E+00  0.134E+00    0.15       1.0  T
   9   -220.1379428 -0.162034E+00  0.146E+00    0.07       1.0  T
  10   -220.1573418 -0.193990E-01  0.139E+00    0.14       1.0  T
  11   -220.2155764 -0.582347E-01  0.879E-01    0.05       1.0  T
  12   -220.2844905 -0.689140E-01  0.500E-01    0.01       1.0  T
  13   -220.3141256 -0.296351E-01  0.401E-01    0.03       1.0  T
  14   -220.3049128  0.921280E-02  0.432E-01    0.03       1.0  T
  15   -220.2947570  0.101558E-01  0.414E-01    0.02       1.0  T
  16   -220.3371857 -0.424287E-01  0.117E-01    0.04       1.0  T
  17   -220.3370252  0.160519E-03  0.127E-01    0.04       1.0  T
  18   -220.3367545  0.270777E-03  0.145E-01    0.03       1.0  T
  19   -220.3392580 -0.250356E-02  0.688E-02    0.03       1.0  T
  20   -220.3397995 -0.541448E-03  0.279E-02    0.03       1.0  T
  21   -220.3397632  0.362094E-04  0.297E-02    0.04       1.0  T
  22   -220.3399347 -0.171443E-03  0.143E-02    0.03       1.0  T
  23   -220.3399202  0.145065E-04  0.139E-02    0.03       1.0  T
  24   -220.3399514 -0.312354E-04  0.653E-03    0.03       1.4  T
  25   -220.3399545 -0.304369E-05  0.368E-03    0.03       2.5  T
  26   -220.3399560 -0.152170E-05  0.175E-03    0.03       5.3  T
  27   -220.3399557  0.287861E-06  0.202E-03    0.03       4.6  T
  28   -220.3399565 -0.790249E-06  0.609E-04    0.03      15.3  T
  29   -220.3399565 -0.284633E-07  0.268E-04    0.03      34.8  T
     SCC iter.                  ...        0 min,  2.082 sec
     gradient                   ...        0 min,  0.043 sec
 * total energy  :  -217.4526613 Eh     change       -0.5548899E+00 Eh
   gradient norm :     0.6630355 Eh/α   predicted    -0.5017318E+00 (  -9.58%)
   displ. norm   :     0.7830375 α      lambda       -0.4971581E+00
   maximum displ.:     0.1953038 α      in ANC's #231, #233, #236, ...

........................................................................
.............................. CYCLE    5 ..............................
........................................................................

 iter      E             dE          RMSdq      gap      omega  full diag
   1   -220.3971238 -0.220397E+03  0.119E+00    0.03       0.0  T
   2   -220.0406749  0.356449E+00  0.206E+00    0.28       1.0  T
   3   -220.3621689 -0.321494E+00  0.128E+00    0.03       1.0  T
   4   -220.2218833  0.140286E+00  0.115E+00    0.11       1.0  T
   5   -220.4461159 -0.224233E+00  0.751E-01    0.02       1.0  T
   6   -220.4511113 -0.499531E-02  0.657E-01    0.08       1.0  T
   7   -220.4520040 -0.892719E-03  0.543E-01    0.04       1.0  T
   8   -220.1182057  0.333798E+00  0.121E+00    0.10       1.0  T
   9   -220.3930351 -0.274829E+00  0.107E+00    0.04       1.0  T
  10   -220.3966716 -0.363652E-02  0.753E-01    0.08       1.0  T
  11   -220.3381388  0.585328E-01  0.693E-01    0.07       1.0  T
  12   -220.4877423 -0.149603E+00  0.534E-01    0.08       1.0  T
  13   -220.5208006 -0.330583E-01  0.164E-01    0.05       1.0  T
  14   -220.5215603 -0.759758E-03  0.134E-01    0.05       1.0  T
  15   -220.5235255 -0.196519E-02  0.865E-02    0.06       1.0  T
  16   -220.5233813  0.144177E-03  0.761E-02    0.06       1.0  T
  17   -220.5249597 -0.157839E-02  0.360E-02    0.06       1.0  T
  18   -220.5251176 -0.157916E-03  0.291E-02    0.05       1.0  T
  19   -220.5251875 -0.698716E-04  0.179E-02    0.05       1.0  T
  20   -220.5252226 -0.351245E-04  0.104E-02    0.06       1.0  T
  21   -220.5252329 -0.102352E-04  0.727E-03    0.05       1.3  T
  22   -220.5252398 -0.696857E-05  0.289E-03    0.05       3.2  T
  23   -220.5252414 -0.159839E-05  0.105E-03    0.05       8.9  T
  24   -220.5252415 -0.100669E-06  0.624E-04    0.05      14.9  T
  25   -220.5252416 -0.355649E-07  0.435E-04    0.05      21.4  T
     SCC iter.                  ...        0 min,  1.594 sec
     gradient                   ...        0 min,  0.045 sec
 * total energy  :  -217.8556312 Eh     change       -0.4029699E+00 Eh
   gradient norm :     0.4545681 Eh/α   predicted    -0.4009959E+00 (  -0.49%)
   displ. norm   :     0.7285270 α      lambda       -0.2942636E+00
   maximum displ.:     0.1819285 α      in ANC's #233, #236, #231, ...

........................................................................
.............................. CYCLE    6 ..............................
........................................................................

 iter      E             dE          RMSdq      gap      omega  full diag
   1   -220.5988677 -0.220599E+03  0.727E-01    0.04       0.0  T
   2   -220.3019087  0.296959E+00  0.136E+00    0.20       1.0  T
   3   -220.5302328 -0.228324E+00  0.722E-01    0.13       1.0  T
   4   -220.3623990  0.167834E+00  0.891E-01    0.18       1.0  T
   5   -220.5235165 -0.161117E+00  0.635E-01    0.05       1.0  T
   6   -220.4647130  0.588035E-01  0.100E+00    0.08       1.0  T
   7   -220.4406589  0.240541E-01  0.839E-01    0.02       1.0  T
   8   -220.5322747 -0.916157E-01  0.575E-01    0.08       1.0  T
   9   -220.6241936 -0.919190E-01  0.329E-01    0.07       1.0  T
  10   -220.6260895 -0.189583E-02  0.287E-01    0.06       1.0  T
  11   -220.6407089 -0.146194E-01  0.158E-01    0.06       1.0  T
  12   -220.6419823 -0.127346E-02  0.110E-01    0.06       1.0  T
  13   -220.6461535 -0.417117E-02  0.406E-02    0.05       1.0  T
  14   -220.6432511  0.290241E-02  0.904E-02    0.05       1.0  T
  15   -220.6461903 -0.293924E-02  0.232E-02    0.06       1.0  T
  16   -220.6462897 -0.993532E-04  0.156E-02    0.06       1.0  T
  17   -220.6463027 -0.130334E-04  0.127E-02    0.06       1.0  T
  18   -220.6463424 -0.396331E-04  0.560E-03    0.06       1.7  T
  19   -220.6463436 -0.127148E-05  0.430E-03    0.06       2.2  T
  20   -220.6463505 -0.687793E-05  0.116E-03    0.06       8.0  T
  21   -220.6463507 -0.184932E-06  0.614E-04    0.06      15.2  T
  22   -220.6463508 -0.733222E-07  0.354E-04    0.06      26.3  T
     SCC iter.                  ...        0 min,  1.601 sec
     gradient                   ...        0 min,  0.043 sec
 * total energy  :  -218.0799306 Eh     change       -0.2242994E+00 Eh
   gradient norm :     0.3368605 Eh/α   predicted    -0.2252223E+00 (   0.41%)
   displ. norm   :     0.6489663 α      lambda       -0.1478354E+00
   maximum displ.:     0.1245028 α      in ANC's #233, #132, #236, ...

........................................................................
.............................. CYCLE    7 ..............................
........................................................................

 iter      E             dE          RMSdq      gap      omega  full diag
   1   -220.7037475 -0.220704E+03  0.523E-01    0.05       0.0  T
   2   -220.3571053  0.346642E+00  0.126E+00    0.13       1.0  T
   3   -220.6318195 -0.274714E+00  0.586E-01    0.16       1.0  T
   4   -220.3915399  0.240280E+00  0.931E-01    0.25       1.0  T
   5   -220.6512088 -0.259669E+00  0.500E-01    0.03       1.0  T
   6   -220.6747744 -0.235656E-01  0.459E-01    0.08       1.0  T
   7   -220.6655359  0.923854E-02  0.407E-01    0.06       1.0  T
   8   -220.7061100 -0.405741E-01  0.247E-01    0.05       1.0  T
   9   -220.7128910 -0.678102E-02  0.151E-01    0.08       1.0  T
  10   -220.7198499 -0.695888E-02  0.624E-02    0.06       1.0  T
  11   -220.7196162  0.233659E-03  0.627E-02    0.06       1.0  T
  12   -220.7204473 -0.831097E-03  0.287E-02    0.06       1.0  T
  13   -220.7205631 -0.115724E-03  0.196E-02    0.06       1.0  T
  14   -220.7206548 -0.917037E-04  0.954E-03    0.06       1.0  T
  15   -220.7206508  0.393751E-05  0.975E-03    0.06       1.0  T
  16   -220.7206704 -0.195977E-04  0.469E-03    0.06       2.0  T
  17   -220.7206757 -0.528805E-05  0.140E-03    0.06       6.7  T
  18   -220.7206756  0.135123E-06  0.135E-03    0.06       6.9  T
  19   -220.7206761 -0.502704E-06  0.421E-04    0.06      22.1  T
  20   -220.7206761 -0.520192E-07  0.146E-04    0.06      64.0  T
     SCC iter.                  ...        0 min,  1.287 sec
     gradient                   ...        0 min,  0.043 sec
 * total energy  :  -218.1928350 Eh     change       -0.1129044E+00 Eh
   gradient norm :     0.2740936 Eh/α   predicted    -0.1050488E+00 (  -6.96%)
   displ. norm   :     0.6204855 α      lambda       -0.8752632E-01
   maximum displ.:     0.1197394 α      in ANC's #50, #90, #132, ...

........................................................................
.............................. CYCLE    8 ..............................
........................................................................

 iter      E             dE          RMSdq      gap      omega  full diag
   1   -220.7698797 -0.220770E+03  0.407E-01    0.06       0.0  T
   2   -220.4826722  0.287207E+00  0.111E+00    0.08       1.0  T
   3   -220.7333360 -0.250664E+00  0.452E-01    0.11       1.0  T
   4   -220.5144453  0.218891E+00  0.842E-01    0.26       1.0  T
   5   -220.7381903 -0.223745E+00  0.352E-01    0.07       1.0  T
   6   -220.6962389  0.419514E-01  0.561E-01    0.08       1.0  T
   7   -220.7272584 -0.310195E-01  0.407E-01    0.10       1.0  T
   8   -220.7646855 -0.374271E-01  0.217E-01    0.06       1.0  T
   9   -220.7766771 -0.119916E-01  0.874E-02    0.06       1.0  T
  10   -220.7782213 -0.154422E-02  0.404E-02    0.06       1.0  T
  11   -220.7783154 -0.940484E-04  0.325E-02    0.07       1.0  T
  12   -220.7784504 -0.135049E-03  0.211E-02    0.06       1.0  T
  13   -220.7785620 -0.111548E-03  0.503E-03    0.06       1.9  T
  14   -220.7785649 -0.289489E-05  0.318E-03    0.06       2.9  T
  15   -220.7785647  0.184409E-06  0.345E-03    0.06       2.7  T
  16   -220.7785656 -0.905515E-06  0.278E-03    0.06       3.3  T
  17   -220.7785672 -0.161062E-05  0.158E-03    0.06       5.9  T
  18   -220.7785678 -0.582454E-06  0.486E-04    0.06      19.2  T
  19   -220.7785678 -0.263477E-07  0.315E-04    0.06      29.6  T
     SCC iter.                  ...        0 min,  1.326 sec
     gradient                   ...        0 min,  0.044 sec
 * total energy  :  -218.2613719 Eh     change       -0.6853695E-01 Eh
   gradient norm :     0.2085179 Eh/α   predicted    -0.6061210E-01 ( -11.56%)
   displ. norm   :     0.5916906 α      lambda       -0.5808233E-01
   maximum displ.:     0.1469854 α      in ANC's #50, #56, #58, ...

........................................................................
.............................. CYCLE    9 ..............................
........................................................................

 iter      E             dE          RMSdq      gap      omega  full diag
   1   -220.8174551 -0.220817E+03  0.338E-01    0.06       0.0  T
   2   -220.6364763  0.180979E+00  0.866E-01    0.03       1.0  T
   3   -220.7899981 -0.153522E+00  0.401E-01    0.05       1.0  T
   4   -220.8108707 -0.208726E-01  0.237E-01    0.07       1.0  T
   5   -220.7253660  0.855047E-01  0.538E-01    0.15       1.0  T
   6   -220.7110081  0.143579E-01  0.617E-01    0.17       1.0  T
   7   -220.8138025 -0.102794E+00  0.184E-01    0.06       1.0  T
   8   -220.8199890 -0.618642E-02  0.978E-02    0.06       1.0  T
   9   -220.8218381 -0.184908E-02  0.408E-02    0.07       1.0  T
  10   -220.8221620 -0.323900E-03  0.269E-02    0.06       1.0  T
  11   -220.8223184 -0.156487E-03  0.120E-02    0.06       1.0  T
  12   -220.8223553 -0.368558E-04  0.430E-03    0.06       2.2  T
  13   -220.8223579 -0.258004E-05  0.193E-03    0.06       4.8  T
  14   -220.8223563  0.155174E-05  0.301E-03    0.06       3.1  T
  15   -220.8223583 -0.197273E-05  0.116E-03    0.06       8.0  T
  16   -220.8223585 -0.246981E-06  0.600E-04    0.06      15.5  T
  17   -220.8223586 -0.846453E-07  0.143E-04    0.06      65.1  T
     SCC iter.                  ...        0 min,  1.141 sec
     gradient                   ...        0 min,  0.044 sec
 * total energy  :  -218.3053329 Eh     change       -0.4396094E-01 Eh
   gradient norm :     0.1278500 Eh/α   predicted    -0.3920842E-01 ( -10.81%)
   displ. norm   :     0.5641513 α      lambda       -0.3240425E-01
   maximum displ.:     0.1778614 α      in ANC's #50, #56, #28, ...

........................................................................
.............................. CYCLE   10 ..............................
........................................................................

 iter      E             dE          RMSdq      gap      omega  full diag
   1   -220.8404668 -0.220840E+03  0.261E-01    0.06       0.0  T
   2   -220.7446550  0.958118E-01  0.562E-01    0.09       1.0  T
   3   -220.7518728 -0.721776E-02  0.529E-01    0.17       1.0  T
   4   -220.7845588 -0.326860E-01  0.466E-01    0.13       1.0  T
   5   -220.8208413 -0.362825E-01  0.289E-01    0.06       1.0  T
   6   -220.8211342 -0.292942E-03  0.301E-01    0.07       1.0  T
   7   -220.8339675 -0.128333E-01  0.182E-01    0.06       1.0  T
   8   -220.8389049 -0.493743E-02  0.113E-01    0.06       1.0  T
   9   -220.8419021 -0.299721E-02  0.294E-02    0.06       1.0  T
  10   -220.8420867 -0.184572E-03  0.132E-02    0.06       1.0  T
  11   -220.8420893 -0.255141E-05  0.130E-02    0.06       1.0  T
  12   -220.8421306 -0.413701E-04  0.343E-03    0.06       2.7  T
  13   -220.8421320 -0.139175E-05  0.223E-03    0.06       4.2  T
  14   -220.8421333 -0.123552E-05  0.103E-03    0.06       9.1  T
  15   -220.8421335 -0.217501E-06  0.317E-04    0.06      29.4  T
  16   -220.8421335 -0.128572E-07  0.229E-04    0.06      40.7  T
     SCC iter.                  ...        0 min,  1.268 sec
     gradient                   ...        0 min,  0.042 sec
 * total energy  :  -218.3291946 Eh     change       -0.2386169E-01 Eh
   gradient norm :     0.0728288 Eh/α   predicted    -0.2135873E-01 ( -10.49%)
   displ. norm   :     0.5688997 α      lambda       -0.1784084E-01
   maximum displ.:     0.1784920 α      in ANC's #28, #50, #56, ...

........................................................................
.............................. CYCLE   11 ..............................
........................................................................

 iter      E             dE          RMSdq      gap      omega  full diag
   1   -220.8454094 -0.220845E+03  0.215E-01    0.06       0.0  T
   2   -220.7876635  0.577459E-01  0.430E-01    0.13       1.0  T
   3   -220.7652116  0.224520E-01  0.494E-01    0.13       1.0  T
   4   -220.6905678  0.746437E-01  0.810E-01    0.12       1.0  T
   5   -220.8388484 -0.148281E+00  0.179E-01    0.05       1.0  T
   6   -220.8369556  0.189283E-02  0.196E-01    0.07       1.0  T
   7   -220.8431918 -0.623622E-02  0.109E-01    0.05       1.0  T
   8   -220.8449117 -0.171991E-02  0.668E-02    0.06       1.0  T
   9   -220.8458716 -0.959918E-03  0.247E-02    0.06       1.0  T
  10   -220.8459784 -0.106796E-03  0.846E-03    0.06       1.1  T
  11   -220.8459868 -0.839470E-05  0.470E-03    0.06       2.0  T
  12   -220.8459897 -0.295316E-05  0.282E-03    0.06       3.3  T
  13   -220.8459916 -0.182458E-05  0.149E-03    0.06       6.3  T
  14   -220.8459920 -0.435398E-06  0.666E-04    0.06      14.0  T
  15   -220.8459921 -0.128619E-06  0.292E-04    0.06      31.9  T
     SCC iter.                  ...        0 min,  0.843 sec
     gradient                   ...        0 min,  0.043 sec
 * total energy  :  -218.3429013 Eh     change       -0.1370672E-01 Eh
   gradient norm :     0.0579688 Eh/α   predicted    -0.1180752E-01 ( -13.86%)
   displ. norm   :     0.6219245 α      lambda       -0.1303697E-01
   maximum displ.:     0.2075176 α      in ANC's #28, #29, #17, ...

........................................................................
.............................. CYCLE   12 ..............................
........................................................................

 iter      E             dE          RMSdq      gap      omega  full diag
   1   -220.8464025 -0.220846E+03  0.207E-01    0.06       0.0  T
   2   -220.7470732  0.993293E-01  0.553E-01    0.19       1.0  T
   3   -220.7943236 -0.472504E-01  0.410E-01    0.12       1.0  T
   4   -220.6906986  0.103625E+00  0.812E-01    0.09       1.0  T
   5   -220.8416311 -0.150933E+00  0.176E-01    0.05       1.0  T
   6   -220.8377072  0.392386E-02  0.211E-01    0.06       1.0  T
   7   -220.8426927 -0.498545E-02  0.148E-01    0.05       1.0  T
   8   -220.8456431 -0.295045E-02  0.960E-02    0.05       1.0  T
   9   -220.8474084 -0.176525E-02  0.463E-02    0.05       1.0  T
  10   -220.8477998 -0.391417E-03  0.179E-02    0.05       1.0  T
  11   -220.8478471 -0.472723E-04  0.969E-03    0.05       1.0  T
  12   -220.8478642 -0.170790E-04  0.397E-03    0.05       2.3  T
  13   -220.8478689 -0.474504E-05  0.151E-03    0.05       6.2  T
  14   -220.8478694 -0.465046E-06  0.771E-04    0.05      12.1  T
  15   -220.8478695 -0.127824E-06  0.456E-04    0.05      20.4  T
     SCC iter.                  ...        0 min,  1.114 sec
     gradient                   ...        0 min,  0.046 sec
 * total energy  :  -218.3525531 Eh     change       -0.9651798E-02 Eh
   gradient norm :     0.0566614 Eh/α   predicted    -0.9039807E-02 (  -6.34%)
   displ. norm   :     0.6681405 α      lambda       -0.1260259E-01
   maximum displ.:     0.2176510 α      in ANC's #17, #28, #18, ...

........................................................................
.............................. CYCLE   13 ..............................
........................................................................

 iter      E             dE          RMSdq      gap      omega  full diag
   1   -220.8651719 -0.220865E+03  0.207E-01    0.05       0.0  T
   2   -220.8524396  0.127324E-01  0.248E-01    0.05       1.0  T
   3   -220.7319504  0.120489E+00  0.707E-01    0.02       1.0  T
   4   -220.8345173 -0.102567E+00  0.374E-01    0.07       1.0  T
   5   -220.8482125 -0.136952E-01  0.243E-01    0.04       1.0  T
   6   -220.8160876  0.321249E-01  0.390E-01    0.10       1.0  T
   7   -220.8600771 -0.439895E-01  0.141E-01    0.05       1.0  T
   8   -220.8652247 -0.514756E-02  0.401E-02    0.05       1.0  T
   9   -220.8655464 -0.321719E-03  0.151E-02    0.05       1.0  T
  10   -220.8655820 -0.356617E-04  0.803E-03    0.05       1.2  T
  11   -220.8655931 -0.110714E-04  0.232E-03    0.05       4.0  T
  12   -220.8655938 -0.665028E-06  0.164E-03    0.05       5.7  T
  13   -220.8655942 -0.453489E-06  0.811E-04    0.05      11.5  T
  14   -220.8655943 -0.573634E-07  0.606E-04    0.05      15.4  T
     SCC iter.                  ...        0 min,  0.931 sec
     gradient                   ...        0 min,  0.045 sec
 * total energy  :  -218.3592816 Eh     change       -0.6728465E-02 Eh
   gradient norm :     0.0675371 Eh/α   predicted    -0.9114284E-02 (  35.46%)
   displ. norm   :     0.5363160 α      lambda       -0.9048642E-02
   maximum displ.:     0.1781607 α      in ANC's #17, #18, #29, ...

........................................................................
.............................. CYCLE   14 ..............................
........................................................................

 iter      E             dE          RMSdq      gap      omega  full diag
   1   -220.8756412 -0.220876E+03  0.133E-01    0.05       0.0  T
   2   -220.7617827  0.113858E+00  0.591E-01    0.10       1.0  T
   3   -220.8660533 -0.104271E+00  0.189E-01    0.06       1.0  T
   4   -220.8378672  0.281860E-01  0.397E-01    0.10       1.0  T
   5   -220.8726260 -0.347587E-01  0.127E-01    0.05       1.0  T
   6   -220.8660910  0.653494E-02  0.196E-01    0.05       1.0  T
   7   -220.8758609 -0.976985E-02  0.548E-02    0.05       1.0  T
   8   -220.8764730 -0.612127E-03  0.247E-02    0.05       1.0  T
   9   -220.8766139 -0.140847E-03  0.730E-03    0.05       1.3  T
  10   -220.8766192 -0.530600E-05  0.479E-03    0.05       1.9  T
  11   -220.8766233 -0.415105E-05  0.241E-03    0.05       3.9  T
  12   -220.8766240 -0.707915E-06  0.124E-03    0.05       7.5  T
  13   -220.8766244 -0.335216E-06  0.670E-04    0.05      13.9  T
  14   -220.8766245 -0.944713E-07  0.323E-04    0.05      28.9  T
     SCC iter.                  ...        0 min,  0.831 sec
     gradient                   ...        0 min,  0.043 sec
 * total energy  :  -218.3662835 Eh     change       -0.7001897E-02 Eh
   gradient norm :     0.0480259 Eh/α   predicted    -0.5825678E-02 ( -16.80%)
   displ. norm   :     0.6381089 α      lambda       -0.7488255E-02
   maximum displ.:     0.2336273 α      in ANC's #17, #18, #10, ...

........................................................................
.............................. CYCLE   15 ..............................
........................................................................

 iter      E             dE          RMSdq      gap      omega  full diag
   1   -220.8949151 -0.220895E+03  0.142E-01    0.04       0.0  T
   2   -220.7445696  0.150345E+00  0.740E-01    0.04       1.0  T
   3   -220.8950392 -0.150470E+00  0.107E-01    0.05       1.0  T
   4   -220.8296676  0.653716E-01  0.466E-01    0.12       1.0  T
   5   -220.8839825 -0.543149E-01  0.210E-01    0.06       1.0  T
   6   -220.8841666 -0.184132E-03  0.221E-01    0.05       1.0  T
   7   -220.8961633 -0.119967E-01  0.459E-02    0.05       1.0  T
   8   -220.8964358 -0.272526E-03  0.257E-02    0.05       1.0  T
   9   -220.8965554 -0.119601E-03  0.141E-02    0.05       1.0  T
  10   -220.8965997 -0.443044E-04  0.473E-03    0.05       2.0  T
  11   -220.8966001 -0.354685E-06  0.395E-03    0.05       2.4  T
  12   -220.8966035 -0.347523E-05  0.971E-04    0.05       9.6  T
  13   -220.8966036 -0.407081E-07  0.928E-04    0.05      10.0  T
  14   -220.8966037 -0.176855E-06  0.311E-04    0.05      30.0  T
     SCC iter.                  ...        0 min,  0.959 sec
     gradient                   ...        0 min,  0.043 sec
 * total energy  :  -218.3724433 Eh     change       -0.6159825E-02 Eh
   gradient norm :     0.0444340 Eh/α   predicted    -0.5268674E-02 ( -14.47%)
   displ. norm   :     0.6905917 α      lambda       -0.6568575E-02
   maximum displ.:     0.2552720 α      in ANC's #17, #18, #10, ...

........................................................................
.............................. CYCLE   16 ..............................
........................................................................

 iter      E             dE          RMSdq      gap      omega  full diag
   1   -220.9054514 -0.220905E+03  0.160E-01    0.04       0.0  T
   2   -220.6628038  0.242648E+00  0.986E-01    0.07       1.0  T
   3   -220.8960870 -0.233283E+00  0.206E-01    0.07       1.0  T
   4   -220.8422324  0.538546E-01  0.444E-01    0.13       1.0  T
   5   -220.9010008 -0.587684E-01  0.179E-01    0.04       1.0  T
   6   -220.8995357  0.146513E-02  0.184E-01    0.05       1.0  T
   7   -220.9076991 -0.816340E-02  0.491E-02    0.04       1.0  T
   8   -220.9078461 -0.146989E-03  0.364E-02    0.05       1.0  T
   9   -220.9081614 -0.315257E-03  0.167E-02    0.05       1.0  T
  10   -220.9082276 -0.662360E-04  0.739E-03    0.05       1.3  T
  11   -220.9082411 -0.135308E-04  0.246E-03    0.05       3.8  T
  12   -220.9082419 -0.818504E-06  0.161E-03    0.05       5.8  T
  13   -220.9082426 -0.667957E-06  0.550E-04    0.05      17.0  T
  14   -220.9082427 -0.629851E-07  0.181E-04    0.05      51.5  T
     SCC iter.                  ...        0 min,  1.059 sec
     gradient                   ...        0 min,  0.046 sec
 * total energy  :  -218.3778600 Eh     change       -0.5416705E-02 Eh
   gradient norm :     0.0400642 Eh/α   predicted    -0.4850628E-02 ( -10.45%)
   displ. norm   :     0.6922883 α      lambda       -0.5323271E-02
   maximum displ.:     0.2565477 α      in ANC's #17, #18, #10, ...

........................................................................
.............................. CYCLE   17 ..............................
........................................................................

 iter      E             dE          RMSdq      gap      omega  full diag
   1   -220.9160376 -0.220916E+03  0.150E-01    0.04       0.0  T
   2   -220.6803737  0.235664E+00  0.971E-01    0.06       1.0  T
   3   -220.9123366 -0.231963E+00  0.157E-01    0.05       1.0  T
   4   -220.8408480  0.714887E-01  0.480E-01    0.14       1.0  T
   5   -220.9139164 -0.730684E-01  0.143E-01    0.03       1.0  T
   6   -220.9092626  0.465379E-02  0.194E-01    0.05       1.0  T
   7   -220.9176408 -0.837820E-02  0.529E-02    0.04       1.0  T
   8   -220.9181977 -0.556917E-03  0.259E-02    0.04       1.0  T
   9   -220.9183419 -0.144194E-03  0.131E-02    0.04       1.0  T
  10   -220.9183752 -0.333402E-04  0.652E-03    0.04       1.4  T
  11   -220.9183866 -0.114066E-04  0.162E-03    0.04       5.7  T
  12   -220.9183867 -0.101991E-06  0.114E-03    0.04       8.2  T
  13   -220.9183870 -0.289613E-06  0.421E-04    0.04      22.2  T
  14   -220.9183870 -0.267715E-07  0.179E-04    0.04      52.1  T
     SCC iter.                  ...        0 min,  0.826 sec
     gradient                   ...        0 min,  0.044 sec
 * total energy  :  -218.3821871 Eh     change       -0.4327108E-02 Eh
   gradient norm :     0.0347964 Eh/α   predicted    -0.3937261E-02 (  -9.01%)
   displ. norm   :     0.6856280 α      lambda       -0.4270571E-02
   maximum displ.:     0.2429600 α      in ANC's #17, #10, #18, ...

........................................................................
.............................. CYCLE   18 ..............................
........................................................................

 iter      E             dE          RMSdq      gap      omega  full diag
   1   -220.9163298 -0.220916E+03  0.144E-01    0.04       0.0  T
   2   -220.6997316  0.216598E+00  0.939E-01    0.08       1.0  T
   3   -220.9159897 -0.216258E+00  0.113E-01    0.04       1.0  T
   4   -220.8425540  0.734357E-01  0.472E-01    0.12       1.0  T
   5   -220.9106922 -0.681382E-01  0.161E-01    0.04       1.0  T
   6   -220.9132529 -0.256070E-02  0.133E-01    0.04       1.0  T
   7   -220.9173069 -0.405403E-02  0.587E-02    0.04       1.0  T
   8   -220.9179405 -0.633560E-03  0.224E-02    0.04       1.0  T
   9   -220.9180151 -0.746085E-04  0.130E-02    0.04       1.0  T
  10   -220.9180507 -0.355581E-04  0.446E-03    0.04       2.1  T
  11   -220.9180521 -0.144483E-05  0.231E-03    0.04       4.0  T
  12   -220.9180532 -0.104747E-05  0.777E-04    0.04      12.0  T
  13   -220.9180533 -0.105352E-06  0.300E-04    0.04      31.1  T
  14   -220.9180533 -0.142845E-07  0.114E-04    0.04      81.6  T
     SCC iter.                  ...        0 min,  0.976 sec
     gradient                   ...        0 min,  0.048 sec
 * total energy  :  -218.3856465 Eh     change       -0.3459360E-02 Eh
   gradient norm :     0.0323813 Eh/α   predicted    -0.3139056E-02 (  -9.26%)
   displ. norm   :     0.6651040 α      lambda       -0.3732465E-02
   maximum displ.:     0.2254843 α      in ANC's #10, #17, #18, ...

........................................................................
.............................. CYCLE   19 ..............................
........................................................................

 iter      E             dE          RMSdq      gap      omega  full diag
   1   -220.9240596 -0.220924E+03  0.118E-01    0.03       0.0  T
   2   -220.8664612  0.575984E-01  0.468E-01    0.04       1.0  T
   3   -220.9149471 -0.484859E-01  0.187E-01    0.05       1.0  T
   4   -220.8687609  0.461862E-01  0.422E-01    0.12       1.0  T
   5   -220.9125596 -0.437988E-01  0.199E-01    0.05       1.0  T
   6   -220.9188754 -0.631579E-02  0.146E-01    0.04       1.0  T
   7   -220.9234586 -0.458325E-02  0.669E-02    0.04       1.0  T
   8   -220.9240417 -0.583045E-03  0.406E-02    0.04       1.0  T
   9   -220.9244485 -0.406856E-03  0.135E-02    0.04       1.0  T
  10   -220.9244831 -0.345311E-04  0.485E-03    0.04       1.9  T
  11   -220.9244854 -0.231997E-05  0.252E-03    0.04       3.7  T
  12   -220.9244866 -0.121600E-05  0.131E-03    0.04       7.1  T
  13   -220.9244868 -0.218995E-06  0.775E-04    0.04      12.0  T
  14   -220.9244870 -0.157747E-06  0.253E-04    0.04      36.9  T
     SCC iter.                  ...        0 min,  1.029 sec
     gradient                   ...        0 min,  0.043 sec
 * total energy  :  -218.3886545 Eh     change       -0.3008003E-02 Eh
   gradient norm :     0.0310075 Eh/α   predicted    -0.2691790E-02 ( -10.51%)
   displ. norm   :     0.6759725 α      lambda       -0.3414545E-02
   maximum displ.:     0.2151467 α      in ANC's #17, #7, #11, ...

........................................................................
.............................. CYCLE   20 ..............................
........................................................................

 iter      E             dE          RMSdq      gap      omega  full diag
   1   -220.9249441 -0.220925E+03  0.117E-01    0.03       0.0  T
   2   -220.9128830  0.120611E-01  0.238E-01    0.04       1.0  T
   3   -220.9167504 -0.386739E-02  0.179E-01    0.04       1.0  T
   4   -220.8453865  0.713639E-01  0.526E-01    0.07       1.0  T
   5   -220.9197688 -0.743823E-01  0.128E-01    0.04       1.0  T
   6   -220.9133671  0.640166E-02  0.201E-01    0.05       1.0  T
   7   -220.9246739 -0.113068E-01  0.483E-02    0.03       1.0  T
   8   -220.9249862 -0.312348E-03  0.270E-02    0.03       1.0  T
   9   -220.9251717 -0.185484E-03  0.418E-03    0.03       2.2  T
  10   -220.9251684  0.330668E-05  0.452E-03    0.03       2.1  T
  11   -220.9251741 -0.569028E-05  0.141E-03    0.03       6.6  T
  12   -220.9251739  0.190531E-06  0.147E-03    0.03       6.4  T
  13   -220.9251744 -0.533406E-06  0.367E-04    0.03      25.4  T
  14   -220.9251744 -0.495658E-08  0.342E-04    0.03      27.3  T
     SCC iter.                  ...        0 min,  0.849 sec
     gradient                   ...        0 min,  0.043 sec
 * total energy  :  -218.3913793 Eh     change       -0.2724846E-02 Eh
   gradient norm :     0.0312567 Eh/α   predicted    -0.2487393E-02 (  -8.71%)
   displ. norm   :     0.6770475 α      lambda       -0.3536636E-02
   maximum displ.:     0.2396371 α      in ANC's #11, #7, #5, ...
 * RMSD in coord.:     0.7429401 α      energy gain  -0.4429452E+01 Eh

generating ANC from exact Hessian ...
Using Lindh-Hessian (1995)
 Shifting diagonal of input Hessian by    9.9757621843365400E-003
 Lowest  eigenvalues of input Hessian
    0.000000    0.000000    0.000000    0.000000    0.000000    0.000000
    0.010000    0.010021    0.010106    0.010150    0.010187    0.010330
    0.010396    0.010450    0.010534    0.010566    0.010723    0.010785
 Highest eigenvalues
    2.652418    2.653416    2.653812    2.666332    2.667876    2.682536


........................................................................
.............................. CYCLE   21 ..............................
........................................................................

 iter      E             dE          RMSdq      gap      omega  full diag
   1   -220.9250783 -0.220925E+03  0.112E-01    0.03       0.0  T
   2   -220.9116113  0.134670E-01  0.240E-01    0.02       1.0  T
   3   -220.9100887  0.152260E-02  0.251E-01    0.04       1.0  T
   4   -220.8932082  0.168805E-01  0.327E-01    0.07       1.0  T
   5   -220.8883192  0.488898E-02  0.341E-01    0.10       1.0  T
   6   -220.9235581 -0.352389E-01  0.936E-02    0.03       1.0  T
   7   -220.9242117 -0.653603E-03  0.713E-02    0.03       1.0  T
   8   -220.9252076 -0.995924E-03  0.302E-02    0.03       1.0  T
   9   -220.9253927 -0.185119E-03  0.113E-02    0.03       1.0  T
  10   -220.9254334 -0.406501E-04  0.269E-03    0.03       3.5  T
  11   -220.9254313  0.207960E-05  0.338E-03    0.03       2.8  T
  12   -220.9254344 -0.306425E-05  0.102E-03    0.03       9.1  T
  13   -220.9254346 -0.226718E-06  0.553E-04    0.03      16.9  T
  14   -220.9254346 -0.304117E-07  0.423E-04    0.03      22.0  T
     SCC iter.                  ...        0 min,  0.926 sec
     gradient                   ...        0 min,  0.045 sec
 * total energy  :  -218.3937335 Eh     change       -0.2354178E-02 Eh
   gradient norm :     0.0347295 Eh/α   predicted     0.0000000E+00 (-100.00%)
   displ. norm   :     0.3285706 α      lambda       -0.4295901E-02
   maximum displ.:     0.1022617 α      in ANC's #14, #23, #8, ...

........................................................................
.............................. CYCLE   22 ..............................
........................................................................

 iter      E             dE          RMSdq      gap      omega  full diag
   1   -220.9325101 -0.220933E+03  0.100E-01    0.03       0.0  T
   2   -220.8635595  0.689505E-01  0.513E-01    0.02       1.0  T
   3   -220.9309074 -0.673479E-01  0.922E-02    0.03       1.0  T
   4   -220.8760451  0.548623E-01  0.408E-01    0.14       1.0  T
   5   -220.9326134 -0.565683E-01  0.345E-02    0.03       1.0  T
   6   -220.9322436  0.369890E-03  0.557E-02    0.03       1.0  T
   7   -220.9328365 -0.592942E-03  0.148E-02    0.03       1.0  T
   8   -220.9328753 -0.387570E-04  0.787E-03    0.03       1.2  T
   9   -220.9328872 -0.119116E-04  0.412E-03    0.03       2.3  T
  10   -220.9328871  0.900702E-07  0.370E-03    0.03       2.5  T
  11   -220.9328915 -0.441957E-05  0.748E-04    0.03      12.5  T
  12   -220.9328913  0.231325E-06  0.103E-03    0.03       9.1  T
  13   -220.9328916 -0.323148E-06  0.305E-04    0.03      30.6  T
  14   -220.9328916  0.482157E-08  0.242E-04    0.03      38.5  T
     SCC iter.                  ...        0 min,  1.021 sec
     gradient                   ...        0 min,  0.044 sec
 * total energy  :  -218.3971613 Eh     change       -0.3427853E-02 Eh
   gradient norm :     0.0180574 Eh/α   predicted    -0.2380357E-02 ( -30.56%)
   displ. norm   :     0.5864499 α      lambda       -0.4323410E-02
   maximum displ.:     0.1860430 α      in ANC's #14, #23, #8, ...

........................................................................
.............................. CYCLE   23 ..............................
........................................................................

 iter      E             dE          RMSdq      gap      omega  full diag
   1   -220.9353363 -0.220935E+03  0.156E-01    0.03       0.0  T
   2   -220.8245074  0.110829E+00  0.644E-01    0.02       1.0  T
   3   -220.9280502 -0.103543E+00  0.178E-01    0.04       1.0  T
   4   -220.8781435  0.499066E-01  0.418E-01    0.14       1.0  T
   5   -220.9347844 -0.566408E-01  0.688E-02    0.03       1.0  T
   6   -220.9346403  0.144053E-03  0.813E-02    0.03       1.0  T
   7   -220.9355658 -0.925536E-03  0.454E-02    0.03       1.0  T
   8   -220.9360732 -0.507391E-03  0.146E-02    0.03       1.0  T
   9   -220.9360866 -0.133341E-04  0.103E-02    0.03       1.0  T
  10   -220.9360823  0.425459E-05  0.984E-03    0.03       1.0  T
  11   -220.9361159 -0.335533E-04  0.198E-03    0.03       4.7  T
  12   -220.9361161 -0.258017E-06  0.155E-03    0.03       6.0  T
  13   -220.9361167 -0.597947E-06  0.702E-04    0.03      13.3  T
  14   -220.9361167 -0.226289E-07  0.547E-04    0.03      17.0  T
     SCC iter.                  ...        0 min,  0.767 sec
     gradient                   ...        0 min,  0.043 sec
 * total energy  :  -218.4003734 Eh     change       -0.3212096E-02 Eh
   gradient norm :     0.0174856 Eh/α   predicted    -0.2905642E-02 (  -9.54%)
   displ. norm   :     0.5915072 α      lambda       -0.2652974E-02
   maximum displ.:     0.1940735 α      in ANC's #14, #8, #23, ...

........................................................................
.............................. CYCLE   24 ..............................
........................................................................

 iter      E             dE          RMSdq      gap      omega  full diag
   1   -220.9347715 -0.220935E+03  0.135E-01    0.03       0.0  T
   2   -220.8659918  0.687797E-01  0.499E-01    0.04       1.0  T
   3   -220.9221630 -0.561713E-01  0.211E-01    0.05       1.0  T
   4   -220.8672468  0.549162E-01  0.461E-01    0.18       1.0  T
   5   -220.9344049 -0.671580E-01  0.633E-02    0.03       1.0  T
   6   -220.9334411  0.963811E-03  0.866E-02    0.03       1.0  T
   7   -220.9345850 -0.114393E-02  0.494E-02    0.03       1.0  T
   8   -220.9350754 -0.490446E-03  0.207E-02    0.03       1.0  T
   9   -220.9351907 -0.115237E-03  0.771E-03    0.03       1.2  T
  10   -220.9351938 -0.310356E-05  0.581E-03    0.03       1.6  T
  11   -220.9352026 -0.881022E-05  0.301E-03    0.03       3.1  T
  12   -220.9352052 -0.265200E-05  0.987E-04    0.03       9.5  T
  13   -220.9352054 -0.158171E-06  0.526E-04    0.03      17.7  T
  14   -220.9352054 -0.464530E-07  0.272E-04    0.03      34.3  T
     SCC iter.                  ...        0 min,  1.095 sec
     gradient                   ...        0 min,  0.047 sec
 * total energy  :  -218.4025312 Eh     change       -0.2157759E-02 Eh
   gradient norm :     0.0293913 Eh/α   predicted    -0.1790601E-02 ( -17.02%)
   displ. norm   :     0.6500123 α      lambda       -0.2784098E-02
   maximum displ.:     0.2191297 α      in ANC's #14, #8, #16, ...

........................................................................
.............................. CYCLE   25 ..............................
........................................................................

 iter      E             dE          RMSdq      gap      omega  full diag
   1   -220.9358062 -0.220936E+03  0.128E-01    0.03       0.0  T
   2   -220.9022479  0.335583E-01  0.354E-01    0.04       1.0  T
   3   -220.9188673 -0.166194E-01  0.243E-01    0.06       1.0  T
   4   -220.8708565  0.480108E-01  0.454E-01    0.17       1.0  T
   5   -220.9341701 -0.633136E-01  0.890E-02    0.03       1.0  T
   6   -220.9336039  0.566181E-03  0.100E-01    0.03       1.0  T
   7   -220.9352272 -0.162326E-02  0.577E-02    0.03       1.0  T
   8   -220.9357500 -0.522766E-03  0.299E-02    0.03       1.0  T
   9   -220.9360210 -0.271093E-03  0.839E-03    0.03       1.1  T
  10   -220.9360292 -0.812874E-05  0.588E-03    0.03       1.6  T
  11   -220.9360399 -0.107074E-04  0.185E-03    0.03       5.1  T
  12   -220.9360404 -0.532175E-06  0.110E-03    0.03       8.4  T
  13   -220.9360407 -0.261733E-06  0.466E-04    0.03      20.0  T
  14   -220.9360407 -0.232453E-07  0.273E-04    0.03      34.2  T
     SCC iter.                  ...        0 min,  1.020 sec
     gradient                   ...        0 min,  0.042 sec
 * total energy  :  -218.4049427 Eh     change       -0.2411552E-02 Eh
   gradient norm :     0.0303300 Eh/α   predicted    -0.1980216E-02 ( -17.89%)
   displ. norm   :     0.6881092 α      lambda       -0.3256018E-02
   maximum displ.:     0.2397640 α      in ANC's #8, #14, #16, ...

........................................................................
.............................. CYCLE   26 ..............................
........................................................................

 iter      E             dE          RMSdq      gap      omega  full diag
   1   -220.9421686 -0.220942E+03  0.122E-01    0.02       0.0  T
   2   -220.9383314  0.383715E-02  0.132E-01    0.03       1.0  T
   3   -220.8994707  0.388607E-01  0.368E-01    0.11       1.0  T
   4   -220.9036223 -0.415160E-02  0.364E-01    0.09       1.0  T
   5   -220.9322044 -0.285821E-01  0.184E-01    0.05       1.0  T
   6   -220.9400130 -0.780857E-02  0.994E-02    0.02       1.0  T
   7   -220.9417102 -0.169726E-02  0.498E-02    0.03       1.0  T
   8   -220.9422351 -0.524832E-03  0.158E-02    0.02       1.0  T
   9   -220.9422408 -0.569648E-05  0.123E-02    0.03       1.0  T
  10   -220.9422781 -0.373086E-04  0.442E-03    0.03       2.1  T
  11   -220.9422789 -0.772108E-06  0.355E-03    0.03       2.6  T
  12   -220.9422817 -0.286385E-05  0.114E-03    0.03       8.2  T
  13   -220.9422818 -0.764311E-07  0.862E-04    0.03      10.8  T
  14   -220.9422819 -0.130370E-06  0.333E-04    0.03      28.0  T
     SCC iter.                  ...        0 min,  0.853 sec
     gradient                   ...        0 min,  0.044 sec
 * total energy  :  -218.4076279 Eh     change       -0.2685194E-02 Eh
   gradient norm :     0.0163875 Eh/α   predicted    -0.2398890E-02 ( -10.66%)
   displ. norm   :     0.7620778 α      lambda       -0.2634658E-02
   maximum displ.:     0.2672262 α      in ANC's #8, #14, #16, ...

........................................................................
.............................. CYCLE   27 ..............................
........................................................................

 iter      E             dE          RMSdq      gap      omega  full diag
   1   -220.9449677 -0.220945E+03  0.140E-01    0.02       0.0  T
   2   -220.9196662  0.253015E-01  0.282E-01    0.06       1.0  T
   3   -220.8969603  0.227059E-01  0.378E-01    0.13       1.0  T
   4   -220.9189856 -0.220253E-01  0.317E-01    0.05       1.0  T
   5   -220.9282898 -0.930421E-02  0.260E-01    0.05       1.0  T
   6   -220.9416213 -0.133315E-01  0.119E-01    0.02       1.0  T
   7   -220.9441174 -0.249609E-02  0.677E-02    0.02       1.0  T
   8   -220.9450737 -0.956264E-03  0.242E-02    0.02       1.0  T
   9   -220.9451308 -0.571820E-04  0.167E-02    0.02       1.0  T
  10   -220.9451950 -0.641916E-04  0.713E-03    0.02       1.3  T
  11   -220.9451961 -0.101858E-05  0.531E-03    0.02       1.8  T
  12   -220.9452041 -0.806166E-05  0.151E-03    0.02       6.2  T
  13   -220.9452041  0.371234E-07  0.154E-03    0.02       6.1  T
  14   -220.9452047 -0.669553E-06  0.330E-04    0.02      28.3  T
  15   -220.9452047  0.374051E-07  0.483E-04    0.02      19.3  T
     SCC iter.                  ...        0 min,  0.878 sec
     gradient                   ...        0 min,  0.042 sec
 * total energy  :  -218.4098986 Eh     change       -0.2270698E-02 Eh
   gradient norm :     0.0157027 Eh/α   predicted    -0.2082512E-02 (  -8.29%)
   displ. norm   :     0.7415753 α      lambda       -0.2425855E-02
   maximum displ.:     0.2695969 α      in ANC's #8, #16, #14, ...

........................................................................
.............................. CYCLE   28 ..............................
........................................................................

 iter      E             dE          RMSdq      gap      omega  full diag
   1   -220.9543631 -0.220954E+03  0.133E-01    0.02       0.0  T
   2   -220.9419678  0.123953E-01  0.200E-01    0.05       1.0  T
   3   -220.8871245  0.548433E-01  0.442E-01    0.17       1.0  T
   4   -220.9414579 -0.543335E-01  0.236E-01    0.02       1.0  T
   5   -220.9467737 -0.531573E-02  0.185E-01    0.03       1.0  T
   6   -220.9503861 -0.361244E-02  0.125E-01    0.02       1.0  T
   7   -220.9540015 -0.361544E-02  0.494E-02    0.02       1.0  T
   8   -220.9544721 -0.470562E-03  0.196E-02    0.02       1.0  T
   9   -220.9545074 -0.353301E-04  0.124E-02    0.02       1.0  T
  10   -220.9545401 -0.327024E-04  0.590E-03    0.02       1.6  T
  11   -220.9545381  0.204800E-05  0.505E-03    0.02       1.8  T
  12   -220.9545460 -0.788441E-05  0.150E-03    0.02       6.2  T
  13   -220.9545461 -0.106992E-06  0.106E-03    0.02       8.8  T
  14   -220.9545464 -0.311247E-06  0.384E-04    0.02      24.3  T
  15   -220.9545464  0.187974E-07  0.448E-04    0.02      20.8  T
     SCC iter.                  ...        0 min,  0.995 sec
     gradient                   ...        0 min,  0.044 sec
 * total energy  :  -218.4119042 Eh     change       -0.2005591E-02 Eh
   gradient norm :     0.0135080 Eh/α   predicted    -0.1879959E-02 (  -6.26%)
   displ. norm   :     0.7928725 α      lambda       -0.2131043E-02
   maximum displ.:     0.2970101 α      in ANC's #8, #16, #1, ...

........................................................................
.............................. CYCLE   29 ..............................
........................................................................

 iter      E             dE          RMSdq      gap      omega  full diag
   1   -220.9529337 -0.220953E+03  0.148E-01    0.01       0.0  T
   2   -220.9344072  0.185265E-01  0.244E-01    0.05       1.0  T
   3   -220.8945490  0.398582E-01  0.415E-01    0.17       1.0  T
   4   -220.9323732 -0.378242E-01  0.290E-01    0.03       1.0  T
   5   -220.9389683 -0.659515E-02  0.237E-01    0.05       1.0  T
   6   -220.9485309 -0.956254E-02  0.130E-01    0.03       1.0  T
   7   -220.9523756 -0.384471E-02  0.592E-02    0.01       1.0  T
   8   -220.9530812 -0.705593E-03  0.201E-02    0.01       1.0  T
   9   -220.9530865 -0.530488E-05  0.177E-02    0.01       1.0  T
  10   -220.9531507 -0.641672E-04  0.837E-03    0.01       1.1  T
  11   -220.9531503  0.374438E-06  0.679E-03    0.01       1.4  T
  12   -220.9531636 -0.133083E-04  0.157E-03    0.01       5.9  T
  13   -220.9531636 -0.310644E-07  0.153E-03    0.01       6.1  T
  14   -220.9531643 -0.685009E-06  0.389E-04    0.01      24.0  T
  15   -220.9531643  0.286996E-07  0.484E-04    0.01      19.3  T
     SCC iter.                  ...        0 min,  1.171 sec
     gradient                   ...        0 min,  0.042 sec
 * total energy  :  -218.4135687 Eh     change       -0.1664447E-02 Eh
   gradient norm :     0.0181766 Eh/α   predicted    -0.1735359E-02 (   4.26%)
   displ. norm   :     0.6709340 α      lambda       -0.1956908E-02
   maximum displ.:     0.2648624 α      in ANC's #8, #1, #16, ...

........................................................................
.............................. CYCLE   30 ..............................
........................................................................

 iter      E             dE          RMSdq      gap      omega  full diag
   1   -220.9639965 -0.220964E+03  0.110E-01    0.01       0.0  T
   2   -220.9598412  0.415536E-02  0.123E-01    0.02       1.0  T
   3   -220.8977042  0.621369E-01  0.438E-01    0.16       1.0  T
   4   -220.9560851 -0.583809E-01  0.186E-01    0.01       1.0  T
   5   -220.9612429 -0.515787E-02  0.112E-01    0.01       1.0  T
   6   -220.9613424 -0.994575E-04  0.101E-01    0.02       1.0  T
   7   -220.9638754 -0.253303E-02  0.299E-02    0.01       1.0  T
   8   -220.9640673 -0.191923E-03  0.949E-03    0.01       1.0  T
   9   -220.9640688 -0.147222E-05  0.736E-03    0.01       1.3  T
  10   -220.9640791 -0.102939E-04  0.315E-03    0.01       3.0  T
  11   -220.9640791  0.373495E-07  0.275E-03    0.01       3.4  T
  12   -220.9640813 -0.224869E-05  0.729E-04    0.01      12.8  T
  13   -220.9640812  0.918692E-07  0.776E-04    0.01      12.0  T
  14   -220.9640814 -0.157952E-06  0.268E-04    0.01      34.7  T
     SCC iter.                  ...        0 min,  0.983 sec
     gradient                   ...        0 min,  0.044 sec
 * total energy  :  -218.4151385 Eh     change       -0.1569870E-02 Eh
   gradient norm :     0.0136347 Eh/α   predicted    -0.1418918E-02 (  -9.62%)
   displ. norm   :     0.7390639 α      lambda       -0.1632679E-02
   maximum displ.:     0.2894526 α      in ANC's #8, #1, #16, ...

........................................................................
.............................. CYCLE   31 ..............................
........................................................................

 iter      E             dE          RMSdq      gap      omega  full diag
   1   -220.9636194 -0.220964E+03  0.122E-01    0.01       0.0  T
   2   -220.9619165  0.170290E-02  0.102E-01    0.02       1.0  T
   3   -220.9069896  0.549269E-01  0.432E-01    0.12       1.0  T
   4   -220.9360498 -0.290602E-01  0.286E-01    0.10       1.0  T
   5   -220.9626054 -0.265556E-01  0.639E-02    0.00       1.0  T
   6   -220.9613806  0.122482E-02  0.972E-02    0.00       1.0  T
   7   -220.9636027 -0.222210E-02  0.209E-02    0.01       1.0  T
   8   -220.9636291 -0.264073E-04  0.155E-02    0.01       1.0  T
   9   -220.9636678 -0.387161E-04  0.888E-03    0.01       1.1  T
  10   -220.9636847 -0.168854E-04  0.313E-03    0.01       3.0  T
  11   -220.9636856 -0.950146E-06  0.257E-03    0.01       3.6  T
  12   -220.9636871 -0.143993E-05  0.665E-04    0.01      14.0  T
  13   -220.9636869  0.116539E-06  0.874E-04    0.01      10.7  T
  14   -220.9636871 -0.155360E-06  0.256E-04    0.01      36.5  T
     SCC iter.                  ...        0 min,  0.775 sec
     gradient                   ...        0 min,  0.042 sec
 * total energy  :  -218.4165612 Eh     change       -0.1422682E-02 Eh
   gradient norm :     0.0129001 Eh/α   predicted    -0.1262238E-02 ( -11.28%)
   displ. norm   :     0.7668360 α      lambda       -0.1939525E-02
   maximum displ.:     0.2918327 α      in ANC's #8, #1, #3, ...

........................................................................
.............................. CYCLE   32 ..............................
........................................................................

 iter      E             dE          RMSdq      gap      omega  full diag
   1   -220.9710771 -0.220971E+03  0.107E-01    0.01       0.0  T
   2   -220.9656985  0.537860E-02  0.145E-01    0.03       1.0  T
   3   -220.9215036  0.441949E-01  0.388E-01    0.10       1.0  T
   4   -220.9605537 -0.390501E-01  0.190E-01    0.06       1.0  T
   5   -220.9702087 -0.965500E-02  0.594E-02    0.00       1.0  T
   6   -220.9681501  0.205859E-02  0.111E-01    0.01       1.0  T
   7   -220.9709752 -0.282502E-02  0.272E-02    0.01       1.0  T
   8   -220.9711226 -0.147438E-03  0.986E-03    0.01       1.0  T
   9   -220.9711439 -0.212952E-04  0.454E-03    0.01       2.1  T
  10   -220.9711437  0.155867E-06  0.360E-03    0.01       2.6  T
  11   -220.9711477 -0.392893E-05  0.121E-03    0.01       7.7  T
  12   -220.9711480 -0.336219E-06  0.423E-04    0.01      22.0  T
  13   -220.9711480 -0.150033E-08  0.345E-04    0.01      27.0  T
     SCC iter.                  ...        0 min,  1.026 sec
     gradient                   ...        0 min,  0.047 sec
 * total energy  :  -218.4181149 Eh     change       -0.1553665E-02 Eh
   gradient norm :     0.0158700 Eh/α   predicted    -0.1540020E-02 (  -0.88%)
   displ. norm   :     0.7739112 α      lambda       -0.1758590E-02
   maximum displ.:     0.2796498 α      in ANC's #8, #1, #3, ...

........................................................................
.............................. CYCLE   33 ..............................
........................................................................

 iter      E             dE          RMSdq      gap      omega  full diag
   1   -220.9665784 -0.220967E+03  0.131E-01    0.01       0.0  T
   2   -220.9455976  0.209809E-01  0.262E-01    0.07       1.0  T
   3   -220.9241284  0.214692E-01  0.358E-01    0.10       1.0  T
   4   -220.9547810 -0.306526E-01  0.208E-01    0.05       1.0  T
   5   -220.9638333 -0.905235E-02  0.118E-01    0.01       1.0  T
   6   -220.9650453 -0.121200E-02  0.790E-02    0.01       1.0  T
   7   -220.9666120 -0.156669E-02  0.261E-02    0.01       1.0  T
   8   -220.9667108 -0.987292E-04  0.133E-02    0.01       1.0  T
   9   -220.9667116 -0.802864E-06  0.118E-02    0.01       1.0  T
  10   -220.9667461 -0.345653E-04  0.495E-03    0.01       1.9  T
  11   -220.9667488 -0.266984E-05  0.310E-03    0.01       3.0  T
  12   -220.9667510 -0.220207E-05  0.729E-04    0.01      12.8  T
  13   -220.9667509  0.117548E-06  0.943E-04    0.01       9.9  T
  14   -220.9667510 -0.144506E-06  0.355E-04    0.01      26.3  T
     SCC iter.                  ...        0 min,  0.976 sec
     gradient                   ...        0 min,  0.043 sec
 * total energy  :  -218.4195506 Eh     change       -0.1435711E-02 Eh
   gradient norm :     0.0152972 Eh/α   predicted    -0.1405943E-02 (  -2.07%)
   displ. norm   :     0.7547195 α      lambda       -0.1617977E-02
   maximum displ.:     0.2610438 α      in ANC's #8, #3, #1, ...

........................................................................
.............................. CYCLE   34 ..............................
........................................................................

 iter      E             dE          RMSdq      gap      omega  full diag
   1   -220.9627637 -0.220963E+03  0.105E-01    0.01       0.0  T
   2   -220.9230159  0.397478E-01  0.351E-01    0.11       1.0  T
   3   -220.9531786 -0.301627E-01  0.178E-01    0.04       1.0  T
   4   -220.9385070  0.146716E-01  0.328E-01    0.05       1.0  T
   5   -220.9604220 -0.219150E-01  0.964E-02    0.03       1.0  T
   6   -220.9623645 -0.194250E-02  0.590E-02    0.01       1.0  T
   7   -220.9629175 -0.552936E-03  0.275E-02    0.01       1.0  T
   8   -220.9630533 -0.135863E-03  0.118E-02    0.01       1.0  T
   9   -220.9630770 -0.236438E-04  0.454E-03    0.01       2.1  T
  10   -220.9630775 -0.563478E-06  0.317E-03    0.01       2.9  T
  11   -220.9630796 -0.211434E-05  0.184E-03    0.01       5.1  T
  12   -220.9630799 -0.217198E-06  0.138E-03    0.01       6.8  T
  13   -220.9630804 -0.556291E-06  0.379E-04    0.01      24.6  T
  14   -220.9630805 -0.296781E-07  0.212E-04    0.01      44.0  T
     SCC iter.                  ...        0 min,  0.775 sec
     gradient                   ...        0 min,  0.043 sec
 * total energy  :  -218.4207401 Eh     change       -0.1189512E-02 Eh
   gradient norm :     0.0181449 Eh/α   predicted    -0.1269790E-02 (   6.75%)
   displ. norm   :     0.6549961 α      lambda       -0.1721684E-02
   maximum displ.:     0.2359878 α      in ANC's #3, #8, #1, ...

........................................................................
.............................. CYCLE   35 ..............................
........................................................................

 iter      E             dE          RMSdq      gap      omega  full diag
   1   -220.9680912 -0.220968E+03  0.101E-01    0.00       0.0  T
   2   -220.9339907  0.341004E-01  0.323E-01    0.10       1.0  T
   3   -220.9566813 -0.226906E-01  0.192E-01    0.04       1.0  T
   4   -220.9643968 -0.771551E-02  0.119E-01    0.03       1.0  T
   5   -220.9668549 -0.245803E-02  0.799E-02    0.01       1.0  T
   6   -220.9675158 -0.660972E-03  0.607E-02    0.00       1.0  T
   7   -220.9682539 -0.738057E-03  0.213E-02    0.01       1.0  T
   8   -220.9683322 -0.783148E-04  0.812E-03    0.01       1.1  T
   9   -220.9683437 -0.114844E-04  0.423E-03    0.01       2.2  T
  10   -220.9683453 -0.159127E-05  0.276E-03    0.01       3.4  T
  11   -220.9683470 -0.171601E-05  0.103E-03    0.01       9.1  T
  12   -220.9683472 -0.219194E-06  0.593E-04    0.01      15.7  T
  13   -220.9683473 -0.587324E-07  0.263E-04    0.01      35.4  T
     SCC iter.                  ...        0 min,  0.881 sec
     gradient                   ...        0 min,  0.044 sec
 * total energy  :  -218.4218917 Eh     change       -0.1151549E-02 Eh
   gradient norm :     0.0137881 Eh/α   predicted    -0.1230161E-02 (   6.83%)
   displ. norm   :     0.6520118 α      lambda       -0.1128794E-02
   maximum displ.:     0.2491322 α      in ANC's #3, #8, #1, ...

........................................................................
.............................. CYCLE   36 ..............................
........................................................................

 iter      E             dE          RMSdq      gap      omega  full diag
   1   -220.9685697 -0.220969E+03  0.947E-02    0.00       0.0  T
   2   -220.9339166  0.346531E-01  0.323E-01    0.11       1.0  T
   3   -220.9606326 -0.267159E-01  0.161E-01    0.03       1.0  T
   4   -220.9646039 -0.397138E-02  0.134E-01    0.02       1.0  T
   5   -220.9669790 -0.237506E-02  0.848E-02    0.02       1.0  T
   6   -220.9687336 -0.175457E-02  0.212E-02    0.01       1.0  T
   7   -220.9686067  0.126900E-03  0.314E-02    0.01       1.0  T
   8   -220.9688170 -0.210336E-03  0.793E-03    0.01       1.2  T
   9   -220.9688265 -0.945732E-05  0.332E-03    0.01       2.8  T
  10   -220.9688271 -0.629316E-06  0.259E-03    0.01       3.6  T
  11   -220.9688286 -0.151184E-05  0.974E-04    0.01       9.6  T
  12   -220.9688286  0.347633E-07  0.837E-04    0.01      11.1  T
  13   -220.9688287 -0.178488E-06  0.274E-04    0.01      34.0  T
     SCC iter.                  ...        0 min,  0.878 sec
     gradient                   ...        0 min,  0.045 sec
[...]
   
   for DIPRO refer to:
   * J. Kohn, N. Gildemeister, S. Grimme, D. Fazzi, A. Hansen,
     J. Chem. Phys., 2023, just accepted.
   
   for PTB refer to:
   * S. Grimme, M. Mueller, A. Hansen, J. Chem. Phys., 2023, 158, 124111.
     DOI: 10.1063/5.0137838
   
   with help from (in alphabetical order)
   P. Atkinson, C. Bannwarth, F. Bohle, G. Brandenburg, E. Caldeweyher
   M. Checinski, S. Dohm, S. Ehlert, S. Ehrlich, I. Gerasimov, C. Hölzer
   A. Katbashev, J. Kohn, J. Koopman, C. Lavigne, S. Lehtola, F. März, M. Müller,
   F. Musil, H. Neugebauer, J. Pisarek, C. Plett, P. Pracht, F. Pultar,
   J. Seibert, P. Shushkov, S. Spicher, M. Stahn, M. Steiner, T. Strunk,
   J. Stückrath, T. Rose, and J. Unsleber
   
 * started run on 2025/02/28 at 15:53:17.943     
   ID    Z sym.   atoms
    1    6 C      1-9, 11, 12, 14-21, 26-34, 36, 37, 39-46, 54, 56, 60, 63,
                  66, 69, 71, 72, 74, 75, 116-124, 126, 127, 129-136,
                  141-149, 151, 152, 154-161, 169, 171, 175, 178, 181, 184,
                  186, 187, 189, 190
    2    7 N      10, 13, 35, 38, 70, 73, 125, 128, 150, 153, 185, 188
    3    8 O      22, 47, 52, 53, 55, 57-59, 61, 62, 64, 65, 67, 68, 137,
                  162, 167, 168, 170, 172-174, 176, 177, 179, 180, 182, 183
    4   16 S      23-25, 48-50, 138-140, 163-165
    5    5 B      51, 166
    6    1 H      76-115, 191-230

           -------------------------------------------------
          |                Calculation Setup                |
           -------------------------------------------------

          program call               : xtb opt_dimer.mol --dipro 0.3 --chrg 0 --uhf 2 --gfn 2
          coordinate file            : opt_dimer.mol
          omp threads                :                     8


molecular fragmentation (1/2 indicates fragments):
111111111111111111111111111111111111111111111111111111111111111111111111
111111111111111111111111111111111111111111122222222222222222222222222222
222222222222222222222222222222222222222222222222222222222222222222222222
22222222222222
# atoms in fragment 1/2:   115   115
 fragment masses (1/2) :     1128.06     1128.06
CMA distance (Bohr)    :  11.638
constraining FC (au)   :  0.0500

           -------------------------------------------------
          |                 G F N 2 - x T B                 |
           -------------------------------------------------

        Reference                      10.1021/acs.jctc.8b01176
      * Hamiltonian:
        H0-scaling (s, p, d)           1.850000    2.230000    2.230000
        zeta-weighting                 0.500000
      * Dispersion:
        s8                             2.700000
        a1                             0.520000
        a2                             5.000000
        s9                             5.000000
      * Repulsion:
        kExp                           1.500000    1.000000
        rExp                           1.000000
      * Coulomb:
        alpha                          2.000000
        third order                    shell-resolved
        anisotropic                    true
        a3                             3.000000
        a5                             4.000000
        cn-shift                       1.200000
        cn-exp                         4.000000
        max-rad                        5.000000

q/qsh data taken from xtbrestart
CAMM data taken from xtbrestart
           -------------------------------------------------
          |                    D I P R O                    |
           -------------------------------------------------
Calculation for dimer 
--------------------- 
  
charge of dimer :   0.
unpaired e- of dimer :  2
repulsion energy          5.0787410579544E+00 Eh
dispersion energy         4.2495044974722E-02 Eh
number of electrons       7.7000000000000E+02 e
integral cutoff           1.9311100799991E+01 bohr

------------------------------------------------------------
  cycle        total energy    energy error   density error
------------------------------------------------------------
      1     -434.9246705335  -4.4004591E+02   2.2813533E-01
      2     -435.9382955627  -1.0136250E+00   1.1285787E-01
      3     -431.8925359838   4.0457596E+00   9.0362243E-02
      4     -421.8992043406   9.9933316E+00   1.0729253E-01
      5     -430.9314476505  -9.0322433E+00   7.2574744E-02
      6     -435.9282446327  -4.9967970E+00   4.1218740E-02
      7     -436.6436094182  -7.1536479E-01   3.0625301E-02
      8     -436.7096168748  -6.6007457E-02   2.5863095E-02
      9     -436.2844252363   4.2519164E-01   3.1736442E-02
     10     -436.6200224933  -3.3559726E-01   2.4815613E-02
     11     -436.7660205650  -1.4599807E-01   2.0772441E-02
     12     -436.5717587179   1.9426185E-01   2.3593688E-02
     13     -436.8535619175  -2.8180320E-01   1.5681504E-02
     14     -436.8769052971  -2.3343380E-02   1.3375725E-02
     15     -436.9246182876  -4.7712990E-02   1.0449506E-02
     16     -436.9475846526  -2.2966365E-02   7.1992733E-03
     17     -436.9313496680   1.6234985E-02   9.8112412E-03
     18     -436.9514777935  -2.0128126E-02   7.2913189E-03
     19     -436.9622435882  -1.0765795E-02   5.2265284E-03
     20     -436.9703623991  -8.1188109E-03   2.4399595E-03
     21     -436.9713737851  -1.0113859E-03   2.1932176E-03
     22     -436.9729364425  -1.5626574E-03   1.5788372E-03
     23     -436.9742348190  -1.2983766E-03   5.5435865E-04
     24     -436.9741672247   6.7594351E-05   5.8377001E-04
     25     -436.9743630882  -1.9586353E-04   1.9435519E-04
     26     -436.9743669266  -3.8383878E-06   2.1212361E-04
     27     -436.9743817770  -1.4850352E-05   1.0582341E-04
     28     -436.9743865252  -4.7482167E-06   4.7855339E-05
     29     -436.9743867593  -2.3408791E-07   3.7750971E-05
     30     -436.9743870852  -3.2593402E-07   2.5806874E-05
     31     -436.9743873987  -3.1350817E-07   1.3119699E-05
------------------------------------------------------------

electronic energy        -4.4209562350164E+02 Eh
total energy             -4.3697438739871E+02 Eh

 total:                                   6.596 sec
 - repulsion                              0.000 sec (  0%)
 - dispersion                             0.019 sec (  0%)
 - coulomb                                0.005 sec (  0%)
 - hamiltonian                            0.018 sec (  0%)
 - scc                                    6.553 sec ( 99%)

Found 2 fragments!
Fragment 1:  1-115
Fragment 2:  116-230

[Info] Fragment spin read from .UHFfrag
Calculation for fragment 1
 ------------------------------
   
charge of fragment :   0.
unpaired e- of fragment :  1
------------------------------------------------------------
  cycle        total energy    energy error   density error
------------------------------------------------------------
      1     -217.3916736139  -2.1994290E+02   2.2731383E-01
      2     -217.9626029188  -5.7092930E-01   1.1201889E-01
      3     -217.5492264751   4.1337644E-01   7.9488896E-02
      4     -217.9958759781  -4.4664950E-01   4.9087949E-02
      5     -217.9061066050   8.9769373E-02   4.1974763E-02
      6     -217.9647685859  -5.8661981E-02   3.7281059E-02
      7     -217.8646206515   1.0014793E-01   4.6831124E-02
      8     -218.3633587284  -4.9873808E-01   2.1295588E-02
      9     -218.4214742012  -5.8115473E-02   1.3599581E-02
     10     -218.4127047548   8.7694464E-03   1.2458909E-02
     11     -218.4121229126   5.8184222E-04   1.1334236E-02
     12     -218.4321533454  -2.0030433E-02   7.8465093E-03
     13     -218.4345520717  -2.3987264E-03   6.6317589E-03
     14     -218.4428562604  -8.3041887E-03   4.0469865E-03
     15     -218.4451563155  -2.3000551E-03   2.2842107E-03
     16     -218.4458051998  -6.4888428E-04   1.6297447E-03
     17     -218.4464595011  -6.5430131E-04   1.9184786E-04
     18     -218.4464209983   3.8502772E-05   4.3268620E-04
     19     -218.4464599036  -3.8905268E-05   1.4904559E-04
     20     -218.4464524420   7.4615703E-06   2.1490948E-04
     21     -218.4464643621  -1.1920123E-05   7.5118208E-05
     22     -218.4464649515  -5.8940478E-07   5.9058651E-05
     23     -218.4464656067  -6.5521340E-07   2.6119221E-05
     24     -218.4464657406  -1.3387225E-07   1.4164321E-05
------------------------------------------------------------

 total:                                   1.348 sec
Calculation for fragment 2
 ------------------------------
   
charge of fragment :   0.
unpaired e- of fragment :  1
------------------------------------------------------------
  cycle        total energy    energy error   density error
------------------------------------------------------------
      1     -217.4371275653  -2.1997758E+02   2.2922643E-01
      2     -217.9901914495  -5.5306388E-01   1.1209423E-01
      3     -217.4653622388   5.2482921E-01   8.2160879E-02
      4     -218.0679308164  -6.0256858E-01   4.7025371E-02
      5     -217.8915588187   1.7637200E-01   4.2635764E-02
      6     -217.9761822958  -8.4623477E-02   3.7456851E-02
      7     -217.9982367530  -2.2054457E-02   4.1886035E-02
      8     -218.3798323989  -3.8159565E-01   2.0730832E-02
      9     -218.4342348922  -5.4402493E-02   1.2327235E-02
     10     -218.4223887588   1.1846133E-02   1.2099300E-02
     11     -218.4052500488   1.7138710E-02   1.3346786E-02
     12     -218.4492343165  -4.3984268E-02   5.3721843E-03
     13     -218.4487615855   4.7273095E-04   4.8076889E-03
     14     -218.4532415691  -4.4799836E-03   2.5025520E-03
     15     -218.4541895077  -9.4793856E-04   1.4688262E-03
     16     -218.4545540999  -3.6459224E-04   7.1221402E-04
     17     -218.4546399315  -8.5831597E-05   4.2378134E-04
     18     -218.4546554394  -1.5507851E-05   4.0711615E-04
     19     -218.4546840004  -2.8561083E-05   1.8915449E-04
     20     -218.4546826908   1.3096159E-06   1.8146741E-04
     21     -218.4546902422  -7.5513727E-06   6.8698997E-05
     22     -218.4546908269  -5.8467575E-07   5.1746729E-05
     23     -218.4546914027  -5.7587866E-07   1.4026034E-05
------------------------------------------------------------

 total:                                   1.475 sec
   
   ::::::::::::::::::::::::::::::::::::::::::::::
   ::     D I P R O      C O U P L I N G S     ::
   ::::::::::::::::::::::::::::::::::::::::::::::
   
energy threshhold for near-degenerate orbitals near HOMO and LUMO considered for DIPRO:  0.300 eV
no. of orbitals within energy window of frag 1         6
no. of orbitals within energy window of frag 2         6
   
  Fragment 1 SOMO-3  Fragment 2 SOMO-3
--------------------------------------
E_mon(orb) frag1 frag2             -10.474   -10.446 eV
J(AB):               -0.016 eV
S(AB):             0.00074109 Eh
|J(AB,eff)|:            0.009 eV
   
  Fragment 1 SOMO-3  Fragment 2 SOMO-2
--------------------------------------
E_mon(orb) frag1 frag2             -10.474   -10.415 eV
J(AB):               -0.028 eV
S(AB):             0.00127391 Eh
|J(AB,eff)|:            0.015 eV
   
  Fragment 1 SOMO-3  Fragment 2 SOMO-1
--------------------------------------
E_mon(orb) frag1 frag2             -10.474   -10.321 eV
J(AB):                0.006 eV
S(AB):            -0.00022413 Eh
|J(AB,eff)|:            0.004 eV
   
  Fragment 1 SOMO-3  Fragment 2 SOMO 
--------------------------------------
E_mon(orb) frag1 frag2             -10.474   -10.133 eV
J(AB):                0.000 eV
S(AB):            -0.00005201 Eh
|J(AB,eff)|:            0.000 eV
   
  Fragment 1 SOMO-3  Fragment 2 LUMO 
--------------------------------------
E_mon(orb) frag1 frag2             -10.474   -10.094 eV
J(AB):               -0.000 eV
S(AB):             0.00007085 Eh
|J(AB,eff)|:            0.001 eV
   
  Fragment 1 SOMO-3  Fragment 2 LUMO+1
--------------------------------------
E_mon(orb) frag1 frag2             -10.474   -10.033 eV
J(AB):                0.002 eV
S(AB):            -0.00016008 Eh
|J(AB,eff)|:            0.001 eV
   
  Fragment 1 SOMO-2  Fragment 2 SOMO-3
--------------------------------------
E_mon(orb) frag1 frag2             -10.444   -10.446 eV
J(AB):               -0.003 eV
S(AB):             0.00015464 Eh
|J(AB,eff)|:            0.002 eV
   
  Fragment 1 SOMO-2  Fragment 2 SOMO-2
--------------------------------------
E_mon(orb) frag1 frag2             -10.444   -10.415 eV
J(AB):               -0.014 eV
S(AB):             0.00064861 Eh
|J(AB,eff)|:            0.007 eV
   
  Fragment 1 SOMO-2  Fragment 2 SOMO-1
--------------------------------------
E_mon(orb) frag1 frag2             -10.444   -10.321 eV
J(AB):               -0.002 eV
S(AB):             0.00010079 Eh
|J(AB,eff)|:            0.001 eV
   
  Fragment 1 SOMO-2  Fragment 2 SOMO 
--------------------------------------
E_mon(orb) frag1 frag2             -10.444   -10.133 eV
J(AB):               -0.003 eV
S(AB):             0.00015747 Eh
|J(AB,eff)|:            0.001 eV
   
  Fragment 1 SOMO-2  Fragment 2 LUMO 
--------------------------------------
E_mon(orb) frag1 frag2             -10.444   -10.094 eV
J(AB):                0.011 eV
S(AB):            -0.00045259 Eh
|J(AB,eff)|:            0.007 eV
   
  Fragment 1 SOMO-2  Fragment 2 LUMO+1
--------------------------------------
E_mon(orb) frag1 frag2             -10.444   -10.033 eV
J(AB):               -0.004 eV
S(AB):             0.00012460 Eh
|J(AB,eff)|:            0.003 eV
   
  Fragment 1 SOMO-1  Fragment 2 SOMO-3
--------------------------------------
E_mon(orb) frag1 frag2             -10.365   -10.446 eV
J(AB):                0.011 eV
S(AB):            -0.00049988 Eh
|J(AB,eff)|:            0.006 eV
   
  Fragment 1 SOMO-1  Fragment 2 SOMO-2
--------------------------------------
E_mon(orb) frag1 frag2             -10.365   -10.415 eV
J(AB):                0.003 eV
S(AB):            -0.00016223 Eh
|J(AB,eff)|:            0.001 eV
   
  Fragment 1 SOMO-1  Fragment 2 SOMO-1
--------------------------------------
E_mon(orb) frag1 frag2             -10.365   -10.321 eV
J(AB):               -0.010 eV
S(AB):             0.00042935 Eh
|J(AB,eff)|:            0.005 eV
   
  Fragment 1 SOMO-1  Fragment 2 SOMO 
--------------------------------------
E_mon(orb) frag1 frag2             -10.365   -10.133 eV
J(AB):               -0.004 eV
S(AB):             0.00022741 Eh
|J(AB,eff)|:            0.002 eV
   
  Fragment 1 SOMO-1  Fragment 2 LUMO 
--------------------------------------
E_mon(orb) frag1 frag2             -10.365   -10.094 eV
J(AB):                0.014 eV
S(AB):            -0.00062398 Eh
|J(AB,eff)|:            0.008 eV
   
  Fragment 1 SOMO-1  Fragment 2 LUMO+1
--------------------------------------
E_mon(orb) frag1 frag2             -10.365   -10.033 eV
J(AB):               -0.004 eV
S(AB):             0.00018707 Eh
|J(AB,eff)|:            0.002 eV
   
  Fragment 1 SOMO   Fragment 2 SOMO-3
--------------------------------------
E_mon(orb) frag1 frag2             -10.164   -10.446 eV
J(AB):               -0.012 eV
S(AB):             0.00053706 Eh
|J(AB,eff)|:            0.007 eV
   
  Fragment 1 SOMO   Fragment 2 SOMO-2
--------------------------------------
E_mon(orb) frag1 frag2             -10.164   -10.415 eV
J(AB):               -0.013 eV
S(AB):             0.00056704 Eh
|J(AB,eff)|:            0.007 eV
   
  Fragment 1 SOMO   Fragment 2 SOMO-1
--------------------------------------
E_mon(orb) frag1 frag2             -10.164   -10.321 eV
J(AB):                0.004 eV
S(AB):            -0.00017012 Eh
|J(AB,eff)|:            0.002 eV
   
  Fragment 1 SOMO   Fragment 2 SOMO 
--------------------------------------
E_mon(orb) frag1 frag2             -10.164   -10.133 eV
J(AB):                0.003 eV
S(AB):            -0.00015876 Eh
|J(AB,eff)|:            0.002 eV
   
  Fragment 1 SOMO   Fragment 2 LUMO 
--------------------------------------
E_mon(orb) frag1 frag2             -10.164   -10.094 eV
J(AB):                0.014 eV
S(AB):            -0.00061798 Eh
|J(AB,eff)|:            0.008 eV
   
  Fragment 1 SOMO   Fragment 2 LUMO+1
--------------------------------------
E_mon(orb) frag1 frag2             -10.164   -10.033 eV
J(AB):               -0.012 eV
S(AB):             0.00051521 Eh
|J(AB,eff)|:            0.006 eV
   
  Fragment 1 LUMO   Fragment 2 SOMO-3
--------------------------------------
E_mon(orb) frag1 frag2             -10.082   -10.446 eV
J(AB):                0.020 eV
S(AB):            -0.00090186 Eh
|J(AB,eff)|:            0.010 eV
   
  Fragment 1 LUMO   Fragment 2 SOMO-2
--------------------------------------
E_mon(orb) frag1 frag2             -10.082   -10.415 eV
J(AB):                0.016 eV
S(AB):            -0.00074323 Eh
|J(AB,eff)|:            0.009 eV
   
  Fragment 1 LUMO   Fragment 2 SOMO-1
--------------------------------------
E_mon(orb) frag1 frag2             -10.082   -10.321 eV
J(AB):               -0.013 eV
S(AB):             0.00060198 Eh
|J(AB,eff)|:            0.007 eV
   
  Fragment 1 LUMO   Fragment 2 SOMO 
--------------------------------------
E_mon(orb) frag1 frag2             -10.082   -10.133 eV
J(AB):               -0.005 eV
S(AB):             0.00027237 Eh
|J(AB,eff)|:            0.003 eV
   
  Fragment 1 LUMO   Fragment 2 LUMO 
--------------------------------------
E_mon(orb) frag1 frag2             -10.082   -10.094 eV
J(AB):                0.002 eV
S(AB):            -0.00017135 Eh
|J(AB,eff)|:            0.000 eV
   
  Fragment 1 LUMO   Fragment 2 LUMO+1
--------------------------------------
E_mon(orb) frag1 frag2             -10.082   -10.033 eV
J(AB):                0.003 eV
S(AB):            -0.00011124 Eh
|J(AB,eff)|:            0.002 eV
   
  Fragment 1 LUMO+1  Fragment 2 SOMO-3
--------------------------------------
E_mon(orb) frag1 frag2             -10.046   -10.446 eV
J(AB):               -0.016 eV
S(AB):             0.00071556 Eh
|J(AB,eff)|:            0.008 eV
   
  Fragment 1 LUMO+1  Fragment 2 SOMO-2
--------------------------------------
E_mon(orb) frag1 frag2             -10.046   -10.415 eV
J(AB):               -0.019 eV
S(AB):             0.00087427 Eh
|J(AB,eff)|:            0.010 eV
   
  Fragment 1 LUMO+1  Fragment 2 SOMO-1
--------------------------------------
E_mon(orb) frag1 frag2             -10.046   -10.321 eV
J(AB):                0.005 eV
S(AB):            -0.00023401 Eh
|J(AB,eff)|:            0.003 eV
   
  Fragment 1 LUMO+1  Fragment 2 SOMO 
--------------------------------------
E_mon(orb) frag1 frag2             -10.046   -10.133 eV
J(AB):               -0.012 eV
S(AB):             0.00053912 Eh
|J(AB,eff)|:            0.006 eV
   
  Fragment 1 LUMO+1  Fragment 2 LUMO 
--------------------------------------
E_mon(orb) frag1 frag2             -10.046   -10.094 eV
J(AB):               -0.002 eV
S(AB):             0.00015364 Eh
|J(AB,eff)|:            0.001 eV
   
  Fragment 1 LUMO+1  Fragment 2 LUMO+1
--------------------------------------
E_mon(orb) frag1 frag2             -10.046   -10.033 eV
J(AB):                0.004 eV
S(AB):            -0.00022749 Eh
|J(AB,eff)|:            0.002 eV
   
..............................................................................
:  total |J(AB,eff)| for hole transport (occ. MOs) :               0.023 eV  :
:  total |J(AB,eff)| for charge transport (unocc. MOs) :           0.003 eV  :
:  total |J(AB,eff)| for charge transfer (CT) :                    0.026 eV  :
..............................................................................
  
 Please remember, DIPRO is not available for restart!
   
normal termination of dipro
----------------------------------------------------------
 * finished run on 2025/02/28 at 15:53:27.420     
----------------------------------------------------------
 dipro:
 * wall-time:     0 d,  0 h,  0 min,  9.462 sec
 *  cpu-time:     0 d,  0 h,  0 min, 34.396 sec
 * ratio c/w:     3.635 speedup
Reorganization energy (electron): 0.13409326931873242 eV
Reorganization energy (hole): 0.17947151243055237 eV
Electron Transfer integral J: 0.003 eV
Hole Transfer integral J: 0.023 eV
