230
 energy: -436.752892082451 gnorm: 0.357638518182 xtb: 6.7.1 (edcfbbe)
C            0.23930000000000        4.11250000000000        2.77280000000000
C            0.82650000000000        2.85210000000000        2.79690000000000
C            2.14500000000000        2.68970000000000        2.25590000000000
C            2.79600000000000        3.85450000000000        1.74140000000000
C            2.09390000000000        5.06690000000000        1.64910000000000
C            0.84500000000000        5.19410000000000        2.17100000000000
C            2.92320000000000        1.47970000000000        2.36140000000000
C            4.32270000000000        1.66370000000000        2.26630000000000
C            4.86610000000000        2.87910000000000        1.75870000000000
N            4.10020000000000        3.91870000000000        1.40220000000000
C            2.47690000000000        0.12820000000000        2.56150000000000
C            3.46880000000000       -0.80950000000000        3.01120000000000
N            4.78270000000000       -0.53360000000000        3.16200000000000
C            5.21710000000000        0.63510000000000        2.67150000000000
C            6.59910000000000        0.83240000000000        2.54200000000000
C            7.10130000000000        1.99030000000000        1.99790000000000
C            6.25410000000000        3.00420000000000        1.62140000000000
C            1.19240000000000       -0.41980000000000        2.12920000000000
C            1.00840000000000       -1.81490000000000        2.22620000000000
C            1.93080000000000       -2.65330000000000        2.79050000000000
C            3.13820000000000       -2.16040000000000        3.19670000000000
O            0.09610000000000        1.82340000000000        3.36790000000000
S           -0.01990000000000        6.77160000000000        2.06710000000000
S            1.58820000000000       -4.43210000000000        2.94570000000000
S            8.88490000000000        2.19760000000000        1.77130000000000
C           -1.73530000000000       -2.24580000000000        3.19800000000000
C           -2.22450000000000       -1.03910000000000        2.69780000000000
C           -3.16520000000000       -1.07380000000000        1.60310000000000
C           -3.33810000000000       -2.32770000000000        0.93490000000000
C           -2.67650000000000       -3.47610000000000        1.40390000000000
C           -1.91240000000000       -3.44200000000000        2.53160000000000
C           -4.08130000000000       -0.01370000000000        1.25000000000000
C           -5.10840000000000       -0.35150000000000        0.34640000000000
C           -5.04910000000000       -1.56500000000000       -0.39690000000000
N           -4.14780000000000       -2.52130000000000       -0.13030000000000
C           -4.19820000000000        1.28680000000000        1.84020000000000
C           -5.47910000000000        1.93160000000000        1.80050000000000
N           -6.47910000000000        1.55450000000000        0.98120000000000
C           -6.24430000000000        0.49690000000000        0.19050000000000
C           -7.20990000000000        0.16360000000000       -0.76720000000000
C           -7.09320000000000       -0.96630000000000       -1.53880000000000
C           -6.03210000000000       -1.82500000000000       -1.36230000000000
C           -3.07790000000000        2.07110000000000        2.33380000000000
C           -3.38130000000000        3.23980000000000        3.06900000000000
C           -4.66400000000000        3.69650000000000        3.23550000000000
C           -5.69970000000000        3.08010000000000        2.57850000000000
O           -1.66320000000000        0.09750000000000        3.25860000000000
S           -1.05820000000000       -4.95210000000000        3.08590000000000
S           -4.99900000000000        5.16030000000000        4.25050000000000
S           -8.39410000000000       -1.34750000000000       -2.74080000000000
B           -0.80510000000000        1.04600000000000        2.48140000000000
O            8.96000000000000        3.69370000000000        1.97060000000000
O            9.33000000000000        1.63460000000000        3.28850000000000
C            8.98910000000000        2.52330000000000        4.29640000000000
O            1.09660000000000       -4.64240000000000        1.33970000000000
C            2.16600000000000       -4.62150000000000        0.45320000000000
O            3.01900000000000       -4.93200000000000        2.89140000000000
O           -0.74170000000000       -4.49380000000000        4.49950000000000
O           -2.45330000000000       -5.88530000000000        3.30590000000000
C           -3.00770000000000       -5.72800000000000        4.56290000000000
O           -9.40330000000000       -0.30730000000000       -2.31660000000000
O           -9.00000000000000       -2.70870000000000       -1.96470000000000
C           -9.52550000000000       -2.41310000000000       -0.71510000000000
O           -5.53580000000000        6.02630000000000        3.13390000000000
O           -3.39140000000000        5.66870000000000        4.34030000000000
C           -3.11850000000000        6.65210000000000        3.39810000000000
O            0.83230000000000        7.38810000000000        0.97360000000000
O           -1.33370000000000        6.16030000000000        1.19320000000000
C           -1.17470000000000        6.33250000000000       -0.17560000000000
N            0.15860000000000        0.29880000000000        1.52980000000000
C            0.42640000000000        0.01530000000000       -0.88110000000000
C           -0.47780000000000       -0.14160000000000        0.32240000000000
N           -1.81090000000000        1.95220000000000        1.74600000000000
C           -2.28940000000000        2.82920000000000       -0.50290000000000
C           -1.37840000000000        2.84890000000000        0.70980000000000
H           -3.97400000000000       -6.23840000000000        4.60230000000000
H           -3.13000000000000       -4.65890000000000        4.73720000000000
H           -2.32610000000000       -6.14720000000000        5.30760000000000
H            2.89270000000000       -5.37740000000000        0.76800000000000
H            2.63480000000000       -3.63420000000000        0.46480000000000
H            1.80190000000000       -4.84980000000000       -0.55190000000000
H            9.31620000000000        2.09830000000000        5.24870000000000
H            7.90610000000000        2.67270000000000        4.31490000000000
H            9.49330000000000        3.47730000000000        4.10890000000000
H           -0.05860000000000       -0.30560000000000       -1.80470000000000
H            1.33680000000000       -0.57310000000000       -0.76000000000000
H            0.73380000000000        1.05370000000000       -1.00710000000000
H           -0.78720000000000       -1.18310000000000        0.43860000000000
H           -1.40860000000000        0.41360000000000        0.19960000000000
H           -1.94720000000000        3.51170000000000       -1.28240000000000
H           -3.30420000000000        3.12170000000000       -0.22940000000000
H           -2.35580000000000        1.83580000000000       -0.94520000000000
H           -1.36870000000000        3.85700000000000        1.13530000000000
H           -0.34540000000000        2.60810000000000        0.44470000000000
H           -2.11200000000000        7.04600000000000        3.55690000000000
H           -3.85380000000000        7.45580000000000        3.50550000000000
H           -3.20170000000000        6.21850000000000        2.39580000000000
H          -10.01130000000000       -3.30700000000000       -0.31380000000000
H          -10.25380000000000       -1.60180000000000       -0.82060000000000
H           -8.71370000000000       -2.10590000000000       -0.05050000000000
H           -2.08060000000000        6.00270000000000       -0.69090000000000
H           -0.31130000000000        5.75310000000000       -0.51410000000000
H           -0.99700000000000        7.39380000000000       -0.37490000000000
H           -8.08730000000000        0.77910000000000       -0.86720000000000
H           -5.98650000000000       -2.74420000000000       -1.91880000000000
H           -6.68210000000000        3.51910000000000        2.59730000000000
H           -2.82600000000000       -4.40800000000000        0.88770000000000
H            3.89840000000000       -2.84610000000000        3.52960000000000
H            7.27090000000000        0.05830000000000        2.86760000000000
H            6.66660000000000        3.92930000000000        1.25770000000000
H            2.56780000000000        5.92310000000000        1.20050000000000
H           -1.10680000000000       -2.23900000000000        4.06780000000000
H            0.10570000000000       -2.25130000000000        1.84810000000000
H           -0.73820000000000        4.24740000000000        3.18660000000000
H           -2.58580000000000        3.85500000000000        3.43700000000000
C            0.27220000000000        3.33840000000000        9.09300000000000
C            0.72290000000000        2.02310000000000        9.02910000000000
C            1.99390000000000        1.73000000000000        8.42290000000000
C            2.73080000000000        2.83450000000000        7.89400000000000
C            2.15830000000000        4.11710000000000        7.88280000000000
C            0.95310000000000        4.36190000000000        8.46670000000000
C            2.64900000000000        0.44170000000000        8.44850000000000
C            4.04300000000000        0.46870000000000        8.22600000000000
C            4.66840000000000        1.63060000000000        7.68970000000000
N            3.99830000000000        2.76340000000000        7.43630000000000
C            2.09370000000000       -0.85300000000000        8.72250000000000
C            2.99950000000000       -1.89690000000000        9.10720000000000
N            4.34290000000000       -1.78430000000000        9.07360000000000
C            4.84940000000000       -0.66220000000000        8.54180000000000
C            6.23170000000000       -0.60230000000000        8.31550000000000
C            6.81180000000000        0.51490000000000        7.76340000000000
C            6.04610000000000        1.60960000000000        7.44390000000000
C            0.71980000000000       -1.24390000000000        8.45020000000000
C            0.33570000000000       -2.56920000000000        8.72440000000000
C            1.18930000000000       -3.49350000000000        9.26140000000000
C            2.50790000000000       -3.16950000000000        9.44680000000000
O           -0.15610000000000        1.07670000000000        9.51800000000000
S            0.20380000000000        5.99700000000000        8.34510000000000
S            0.56760000000000       -5.16280000000000        9.64550000000000
S            8.59910000000000        0.55940000000000        7.48550000000000
C           -2.45150000000000       -2.51320000000000        9.71110000000000
C           -2.70470000000000       -1.45640000000000        8.84030000000000
C           -3.36410000000000       -1.69760000000000        7.58370000000000
C           -3.53230000000000       -3.06890000000000        7.21590000000000
C           -3.15200000000000       -4.09660000000000        8.09840000000000
C           -2.63540000000000       -3.82500000000000        9.33090000000000
C           -3.98060000000000       -0.69600000000000        6.73830000000000
C           -4.69930000000000       -1.18280000000000        5.62570000000000
C           -4.64510000000000       -2.56200000000000        5.27360000000000
N           -4.06170000000000       -3.48340000000000        6.04920000000000
C           -4.11510000000000        0.71260000000000        6.97990000000000
C           -5.16920000000000        1.41000000000000        6.29890000000000
N           -5.81430000000000        0.93800000000000        5.21620000000000
C           -5.53080000000000       -0.31880000000000        4.84980000000000
C           -6.17710000000000       -0.82840000000000        3.71410000000000
C           -6.05400000000000       -2.14750000000000        3.35570000000000
C           -5.30410000000000       -3.00590000000000        4.11940000000000
C           -3.21930000000000        1.53930000000000        7.79420000000000
C           -3.71100000000000        2.79180000000000        8.24880000000000
C           -4.86630000000000        3.33400000000000        7.74220000000000
C           -5.54590000000000        2.68810000000000        6.74050000000000
O           -2.18160000000000       -0.25530000000000        9.26290000000000
S           -2.08880000000000       -5.18820000000000       10.40880000000000
S           -5.49400000000000        4.92510000000000        8.32390000000000
S           -6.91310000000000       -2.80510000000000        1.90750000000000
B           -1.08900000000000        0.44870000000000        8.54720000000000
O            8.73430000000000        2.01860000000000        7.11220000000000
O            9.05300000000000        0.59210000000000        9.10400000000000
C            8.70870000000000        1.78450000000000        9.72600000000000
O           -0.36930000000000       -5.33090000000000        8.25370000000000
C            0.38640000000000       -5.36610000000000        7.08980000000000
O            1.79670000000000       -5.95090000000000        9.24810000000000
O           -1.46420000000000       -4.35610000000000       11.51170000000000
O           -3.60170000000000       -5.53350000000000       11.07550000000000
C           -4.04360000000000       -4.54830000000000       11.94900000000000
O           -7.94490000000000       -1.71640000000000        1.72590000000000
O           -7.82400000000000       -3.96960000000000        2.70530000000000
C           -8.71560000000000       -3.40940000000000        3.61190000000000
O           -5.95550000000000        5.44510000000000        6.97850000000000
O           -3.98530000000000        5.65890000000000        8.49260000000000
C           -3.57410000000000        6.28950000000000        7.32830000000000
O            1.30820000000000        6.68000000000000        7.56400000000000
O           -0.86020000000000        5.56120000000000        7.10780000000000
C           -0.27340000000000        5.61580000000000        5.85020000000000
N           -0.17940000000000       -0.46790000000000        7.71620000000000
C            0.54710000000000       -0.41820000000000        5.39720000000000
C           -0.55320000000000       -0.78430000000000        6.37050000000000
N           -1.83140000000000        1.43250000000000        7.64130000000000
C           -1.68680000000000        2.36720000000000        5.41310000000000
C           -1.11270000000000        2.33860000000000        6.80280000000000
H           -4.95140000000000       -4.89950000000000       12.44680000000000
H           -4.25850000000000       -3.63210000000000       11.39350000000000
H           -3.26040000000000       -4.36150000000000       12.69090000000000
H            0.93990000000000       -6.30940000000000        7.05920000000000
H            1.08770000000000       -4.52900000000000        7.06450000000000
H           -0.29960000000000       -5.28690000000000        6.24370000000000
H            9.13060000000000        1.79100000000000       10.73480000000000
H            7.62030000000000        1.87260000000000        9.78110000000000
H            9.12170000000000        2.61490000000000        9.14390000000000
H            0.23360000000000       -0.54250000000000        4.36190000000000
H            1.43730000000000       -1.02650000000000        5.56110000000000
H            0.84670000000000        0.62290000000000        5.51080000000000
H           -0.78370000000000       -1.85300000000000        6.31870000000000
H           -1.48560000000000       -0.26670000000000        6.13860000000000
H           -1.11420000000000        3.02870000000000        4.76840000000000
H           -2.72360000000000        2.70430000000000        5.42890000000000
H           -1.67820000000000        1.38070000000000        4.95030000000000
H           -1.17920000000000        3.33530000000000        7.25190000000000
H           -0.05770000000000        2.05670000000000        6.79460000000000
H           -2.61220000000000        6.77750000000000        7.50730000000000
H           -4.32780000000000        7.02910000000000        7.04080000000000
H           -3.47200000000000        5.54510000000000        6.53500000000000
H           -9.37110000000000       -4.19630000000000        3.99550000000000
H           -9.31120000000000       -2.64810000000000        3.09830000000000
H           -8.16650000000000       -2.95430000000000        4.44060000000000
H           -1.04760000000000        5.46690000000000        5.09520000000000
H            0.48980000000000        4.83880000000000        5.76250000000000
H            0.18840000000000        6.59880000000000        5.72010000000000
H           -6.81200000000000       -0.18350000000000        3.13240000000000
H           -5.26920000000000       -4.04900000000000        3.86070000000000
H           -6.37730000000000        3.17980000000000        6.26690000000000
H           -3.27910000000000       -5.11860000000000        7.78820000000000
H            3.19970000000000       -3.93520000000000        9.75210000000000
H            6.83960000000000       -1.44800000000000        8.58400000000000
H            6.52430000000000        2.48850000000000        7.04950000000000
H            2.69800000000000        4.93210000000000        7.43220000000000
H           -1.96520000000000       -2.30340000000000       10.64780000000000
H           -0.64840000000000       -2.88420000000000        8.43880000000000
H           -0.67650000000000        3.53320000000000        9.56030000000000
H           -3.10090000000000        3.38910000000000        8.90400000000000
230
 energy: -436.838954022913 gnorm: 0.220257290688 xtb: 6.7.1 (edcfbbe)
C            0.24102655006902        4.10375353590896        2.77972133805268
C            0.81844913281858        2.83886751827122        2.78889091929185
C            2.13577557638890        2.68196918924427        2.26566597041464
C            2.79491956927867        3.84884451363432        1.74784251363644
C            2.10037720866233        5.06853934981154        1.64640349511784
C            0.85671532429477        5.19073365623577        2.18057395772605
C            2.91458661381888        1.47735865214965        2.36221019165649
C            4.31378919221091        1.66128005195675        2.26553363094010
C            4.85867127108905        2.87917903705772        1.76046645835977
N            4.08997512904046        3.90924784761442        1.41244852542215
C            2.46345514648055        0.12603583398427        2.54363273841969
C            3.46175610189909       -0.80589291310689        3.00522898082942
N            4.76599983272381       -0.52700577292135        3.15706680397687
C            5.20938467093687        0.63192952112591        2.67221860720687
C            6.59819368455159        0.82399710779718        2.54136660923883
C            7.09572469594777        1.98542977211028        1.99158784548036
C            6.25180582597156        3.00721546600497        1.61615004123479
C            1.19775461389608       -0.41926793120251        2.10554937333280
C            1.01232215982045       -1.80696050395528        2.21397624073772
C            1.93590100734295       -2.64854378627888        2.79569105871019
C            3.14302000287184       -2.16260956655005        3.20259408583326
O            0.10557528549381        1.82423451576489        3.36058089118470
S           -0.00290297269338        6.77391975754829        2.04561596676148
S            1.61648360043781       -4.43345478476692        2.93960431839893
S            8.88781082122722        2.21934538263746        1.78159249554870
C           -1.73246713211307       -2.23695457632071        3.19420976064994
C           -2.20769160435630       -1.02874209853851        2.68852815973019
C           -3.16325009529822       -1.06445068885320        1.61474267083721
C           -3.34484337959270       -2.32297342834790        0.94231428993674
C           -2.67736967294457       -3.47870209985482        1.39362884880004
C           -1.92729276092425       -3.43833407621251        2.52892802717745
C           -4.07727072662080       -0.01122038159882        1.25436159952055
C           -5.10637500484473       -0.35111106758879        0.35153070570759
C           -5.05227565776014       -1.56923658355819       -0.38587224609183
N           -4.15251328994085       -2.51344845370075       -0.11365299947880
C           -4.18337826609628        1.29420245751982        1.83347809506785
C           -5.47458670697723        1.92479763144647        1.80754352448471
N           -6.46152545938287        1.54538505472278        0.98818000150012
C           -6.24175553130955        0.49789809608214        0.19465247032839
C           -7.21220621011903        0.16887787536663       -0.76620603787944
C           -7.08656655070781       -0.96203989724935       -1.54136724901047
C           -6.02978792815423       -1.82927374316626       -1.36576262595525
C           -3.08362741076266        2.09459162794828        2.28960050156891
C           -3.37702660607682        3.23544903531257        3.04347968341042
C           -4.67089610187637        3.67464434467340        3.24883683997890
C           -5.70666438405512        3.07636845372234        2.58597378826500
O           -1.66879941636541        0.09255713469188        3.25662355607137
S           -1.07350193400746       -4.93924231573645        3.09412618145081
S           -5.00644267221102        5.16778170534984        4.23669803215655
S           -8.41627515644487       -1.33797894618946       -2.72804147371541
B           -0.80213495498204        1.04355425865353        2.48732080000342
O            8.97631611149563        3.69569058123621        1.93353693263795
O            9.32791931037031        1.62611462436179        3.28150069284077
C            8.99334560808463        2.52363474518060        4.29725636827573
O            1.09086738987687       -4.63760174040739        1.34729651771636
C            2.16359105321951       -4.62174196143387        0.44820139626050
O            3.01496262428993       -4.94627159365414        2.91581650292855
O           -0.71632416646524       -4.50328831749513        4.48039326925748
O           -2.44456567009933       -5.89237999548658        3.29425309818589
C           -3.00762966860177       -5.73497020112762        4.56160731200518
O           -9.40629454293365       -0.29353380857661       -2.35801426989200
O           -8.98876137293970       -2.71556120241470       -1.96985830638404
C           -9.53084722821183       -2.42026165799071       -0.71500165832996
O           -5.56829687268359        6.02491158319529        3.15915822962993
O           -3.39853059910697        5.67449954236134        4.34835942477391
C           -3.11861291013811        6.66041193821130        3.39840640028364
O            0.83017527670645        7.42731463124522        0.99831532522784
O           -1.32899757885680        6.16143587220054        1.19186651052450
C           -1.17575329455434        6.33327415097120       -0.18478724427408
N            0.16151577551528        0.31273858405012        1.52656455825824
C            0.43608451732302        0.01249542832073       -0.88582120107679
C           -0.47068183316668       -0.16035779845767        0.31994811590513
N           -1.80248787272199        1.93337076883993        1.74436525751387
C           -2.29800653115275        2.82844889870310       -0.50587972211266
C           -1.38658282880000        2.85341277916105        0.71489673918077
H           -3.96989297554539       -6.24440227875839        4.59259434282061
H           -3.13963608413033       -4.67087047711006        4.75809009125153
H           -2.33753019261791       -6.15155523650344        5.31678742620904
H            2.89774147382251       -5.37157430633360        0.75727943082017
H            2.63942802784346       -3.63643574861362        0.45368465639123
H            1.79170237675236       -4.85134232012912       -0.54943035503612
H            9.32268613993202        2.10160518134951        5.24244156922377
H            7.90992496162772        2.67852794386774        4.32540657316786
H            9.48800684693534        3.48163925243571        4.11771979249210
H           -0.06152068770713       -0.30761106460569       -1.79965058081948
H            1.34209069185081       -0.57737285402693       -0.76168398060793
H            0.73130484827060        1.05430243119156       -1.00479844337956
H           -0.78131801526781       -1.20625728521056        0.42000824634250
H           -1.39288513465103        0.40879122713253        0.19597415616366
H           -1.94207823675451        3.51206580314519       -1.27477597095386
H           -3.30826393132222        3.12527512518064       -0.22878187628183
H           -2.35439360961101        1.83413278736151       -0.94587676758740
H           -1.37917501332038        3.86970128994809        1.12399609628361
H           -0.35745508232975        2.60231973999544        0.44542941003323
H           -2.11391055350643        7.04425458835419        3.56757471240448
H           -3.84605940451475        7.46827410810283        3.49439325879510
H           -3.19603908338834        6.23369380573449        2.39500196644665
H          -10.01443165308358       -3.31310162516653       -0.32327743934282
H          -10.25895663479784       -1.60907228340207       -0.81307506004213
H           -8.73290728100939       -2.10705865530326       -0.04032627872816
H           -2.08539824709020        6.00128694543454       -0.68261805867147
H           -0.31602815706114        5.75354743409750       -0.53170347636821
H           -0.99852109546096        7.39059203702563       -0.39438173328001
H           -8.09115520965181        0.78460821145510       -0.86684071214005
H           -5.98015909223014       -2.74962034972390       -1.92283059342627
H           -6.68771734206778        3.51931930998107        2.59249366245949
H           -2.82604589067041       -4.40890617529351        0.87336558489929
H            3.90546984498521       -2.84552293709386        3.53737911969027
H            7.26977265298935        0.04839538392736        2.86930607715260
H            6.66508615326986        3.93377010733090        1.25250542722100
H            2.57622911777203        5.92367833630146        1.19611750003363
H           -1.10705382076872       -2.23534722773643        4.07037030778984
H            0.10698091451137       -2.24604742404445        1.83854927741930
H           -0.73846506843649        4.24257862185605        3.19592977217024
H           -2.57988705599669        3.84403350788063        3.42698241113891
C            0.26960642513236        3.33087793066548        9.09838380810181
C            0.70784712787128        2.01103684223200        9.02569073868555
C            1.98091541943169        1.72093848170538        8.43596316865484
C            2.72755011444922        2.82687304444486        7.90158224193868
C            2.16217722124018        4.11706439610044        7.87912038986161
C            0.96596305767121        4.35966929611255        8.48109554437092
C            2.64063009301174        0.44012745772193        8.45281518729162
C            4.03510683945850        0.46685330220096        8.22754598028746
C            4.66232666721697        1.63143499685816        7.69490661739139
N            3.98727408505259        2.75427606196068        7.44993824898560
C            2.08138747957997       -0.85479098445722        8.71037816903261
C            2.99368920726673       -1.89280943977435        9.11048803375979
N            4.32782746287141       -1.77619748827370        9.07263325924118
C            4.84203193755767       -0.66665350305088        8.54099644448777
C            6.23073608459852       -0.61163784803872        8.31529569314185
C            6.80555062778279        0.51103864376078        7.76086835633999
C            6.04444942630084        1.61319279187900        7.44093621881271
C            0.73451561767595       -1.25411011405481        8.41489470505257
C            0.34262199734954       -2.56266053060854        8.70559787186247
C            1.19457589381835       -3.48653557897074        9.27530043175693
C            2.51126793737970       -3.17323822421131        9.45638763171766
O           -0.15599512628577        1.08162056274333        9.52066127566749
S            0.22796493511125        6.00303792942354        8.33266568954095
S            0.59123773629620       -5.17000744792991        9.63398428844243
S            8.60080432815356        0.58000142188791        7.49484785267657
C           -2.44751941280592       -2.50778804169647        9.70951122034031
C           -2.68792879203477       -1.44696010060286        8.83908773546532
C           -3.35894704198430       -1.68357488361582        7.59493002064440
C           -3.53627417096674       -3.06068958456491        7.22332630940530
C           -3.15389923879784       -4.10273886427406        8.09432681650712
C           -2.64967118876967       -3.82425760679337        9.32978592919559
C           -3.97224583361692       -0.69017477652482        6.74099826786312
C           -4.69494665235743       -1.17950304727276        5.62754338222081
C           -4.64791589831920       -2.56032146691071        5.28073063650250
N           -4.07131110012719       -3.46714011852004        6.06555135485523
C           -4.09853667926128        0.71736153213224        6.98162228399285
C           -5.16719140861960        1.40528919795556        6.30864933723649