116
 energy: -22.927953750097 gnorm: 0.329712371377 xtb: 6.6.1 (8d0f1dd)
C           -3.31122850772930        0.79849766164622       -0.92477639677520
C           -2.44380812530352       -0.12270372891954       -0.27661132624697
C           -1.41337090092821        0.39579727573559        0.56335275196199
C           -0.89266158675590        1.65801491088749        0.27377586709581
C           -1.72665675402493        2.51431363229076       -0.49448366572522
C           -2.95444148494349        2.13954154133227       -1.01494489940871
C           -0.74098268209890       -0.43411532818871        1.49825021926784
C            0.56872586496315        0.03782116815119        1.86248088067890
C            1.03782416582094        1.29402317993033        1.50887470833621
N            0.31238977034758        2.07067427098208        0.65193736800696
C           -1.29695700510141       -1.39996043042223        2.41574187746061
C           -0.38243517664656       -2.18060797534842        3.13232615520648
N            0.91308504082021       -1.90366887689689        3.30325166013478
C            1.37712470144904       -0.74872102533751        2.81811050966982
C            2.52149331701875       -0.17739833758153        3.39379298866852
C            2.95849061756259        1.02681208890480        2.95105897606587
C            2.24288949469137        1.78498308775960        2.03503020483770
C           -2.74860936222260       -1.74497937691422        2.38401158947411
C           -3.09416315450955       -2.91614440870436        3.00571134491758
C           -2.16786021984049       -3.77788778654213        3.63251872101904
C           -0.85708937311598       -3.40495313382985        3.68547234358092
O           -3.71994433332149       -0.94984598373544        1.67726658385724
O           -2.55702603277562       -1.47241711578389       -0.57241635275616
C           -3.84297843593025        3.13357444054366       -1.60938954875544
C           -2.68769581069131       -5.03867041417370        4.30484659386931
H           -1.39666850744143        3.51251503834900       -0.76806311868865
H           -4.27662633836220        0.55105838579656       -1.33106614114542
H            2.66329581305412        2.73912661909249        1.72562431984580
H            3.05775395548473       -0.69369546277216        4.16536137542516
H           -0.24710966264510       -4.12034095424229        4.22946223699121
H           -4.11477991332403       -3.04712728052358        3.03244694615357
O           -4.21824883374556        4.03433712717988       -0.87713382485991
O           -4.44510595673734        2.90643496899600       -2.81853501752979
C           -5.44216520282800        3.83300025693726       -3.02488532025093
C            4.23586651889298        1.50004220933226        3.59165660008449
O            5.05927614697201        0.66079890002952        3.91714215179376
O            4.47001334453535        2.86385149488593        3.72605651435371
C            5.79457498613219        3.08584475587818        4.15829123132174
O           -3.82227255313510       -5.27347675879771        4.16636005494405
O           -1.85023202017753       -5.79767454267276        5.06656077253571
C           -2.55119635829503       -6.86252441382958        5.62930343183426
C           -5.07197156564436       -1.42399175670916        1.58830531863830
C           -1.33089900128490       -2.23622472573986       -0.99264499351172
H           -2.54510546830388       -7.76426885143998        4.99136022291012
H           -3.57194749219491       -6.44405511486021        5.74196173723541
H           -2.09133598235598       -7.02043774843818        6.64022264233588
H            5.72707967266424        3.46798026205549        5.10135971236643
H            6.34060091246885        3.78468702308830        3.50069950143490
H            6.17933064298187        2.03010500085905        4.19342358084693
H           -0.91862729772622       -2.57650129080332       -0.01361370304871
H           -0.49769766914251       -1.60651221708571       -1.34094446550576
H           -1.52632419730509       -2.94569707152159       -1.75361447637286
H           -5.11788846557077       -2.41810833635233        1.17520213188926
H           -5.67929807973498       -0.69619639428435        1.04301666067831
H           -5.57598832326623       -1.42383358739762        2.57928294206544
H           -6.13050215934830        3.76035386975488       -2.23272855695873
H           -5.86615610071888        3.45938329385866       -4.02668959924245
H           -5.13479557532099        4.87790991548477       -2.98314551356402
C           -1.38192942069774        3.73616555005018        2.91232598411686
C           -1.84821468128685        2.59982427735607        3.49755545445181
C           -1.05946531454833        2.05730632010638        4.60922730982276
C            0.19893954712228        2.69376791964407        4.86302140881997
C            0.50425395911860        3.94630308659851        4.28768785650746
C           -0.26031777722226        4.46998310053134        3.25072669343212
C           -1.20488993561782        0.74454293276906        5.14851520323437
C           -0.06287609782692        0.02744069315890        5.60930570802864
C            1.19208754369866        0.71421540266195        5.78882868583885
N            1.19428660993148        2.06344359410476        5.62744624321596
C           -2.41361422770794        0.07928500213936        5.25249410304426
C           -2.45851584031083       -1.32662100968547        5.60237876023992
N           -1.29466212405906       -1.98318595734370        5.89916817085159
C           -0.14475655767527       -1.32117560077092        5.98824682881008
C            0.97209270935794       -1.98958449505532        6.53157704134458
C            2.21982707914082       -1.36973967291181        6.68703967237737
C            2.30561929262884       -0.09745313075593        6.26436900324455
C           -3.73018485967715        0.71367583494582        5.25810242262992
C           -4.89964478833448       -0.06184623426677        5.21204641615509
C           -4.82617965800088       -1.39228978090841        5.46901303780036
C           -3.67144193418464       -1.98914944386360        5.67265433266067
O           -3.75568638935321        2.07705011038914        5.52067969627343
O           -2.94192434743730        1.91263938797883        3.01658762327703
C            0.21273512614467        5.50086066357994        2.34765104514621
C           -6.06660304520411       -2.17604633098929        5.80641622556876
H            1.41756699010566        4.38133362238595        4.66974005703471
H           -1.82880610647429        4.11982501512100        2.06992133318584
H            3.26888037378556        0.32655662585251        6.31721410015598
H            0.87146188387207       -3.08471526305024        6.57830423410869
H           -3.67716811065157       -3.05999292755990        5.83019634570050
H           -5.77379677507622        0.43595144608221        4.71017130754348
O            1.34459852619901        5.82615848916894        2.44941456579099
O           -0.74718748219123        6.07961784856304        1.59848183464284
C           -0.21473095568964        7.24015934882472        1.05753806029483
C            3.53228080814219       -2.00967610361154        7.02506769044485
O            3.64093082622715       -3.14437803815732        7.50071391725347
O            4.56565258381079       -1.22937033368332        6.69086985080897
C            5.72579357310716       -1.80692399125161        7.22246151275881
O           -7.04801223588612       -1.95726935745904        5.14194115322235
O           -6.01514389321278       -2.93743591896022        6.94765316328794
C           -7.21292732384718       -3.62681918543340        7.15115816329978
C           -4.95459780685163        2.65960679932188        5.86868674392943
C           -3.68284113682406        2.59129188358641        2.05479246020704
H           -7.43119628931628       -4.22607794725959        6.20622607140901
H           -8.06548455146707       -2.91765848248592        7.29781126410398
H           -7.07314693247270       -4.33087306029711        7.91223421050944
H            6.57332189837178       -1.29353136199234        6.78341268688262
H            5.74663761932316       -2.84282155125561        6.88089468184451
H            5.69426191474290       -1.72781984964892        8.29460302186842
H           -4.10481209541493        3.44288266176275        2.60483747673152
H           -4.49244774344916        1.87419893016926        1.82433103764650
H           -3.18901540870812        2.85154642679373        1.06781919454921
H           -5.55414326821421        2.76698137191684        4.93950725322359
H           -4.78658370641210        3.62090640967288        6.25983200635257
H           -5.43485580473958        1.97242995129449        6.65265772412460
H            0.89164886030839        7.38838561720231        1.13776105146914
H           -0.62894889903848        8.04195665205089        1.64837664327952
H           -0.59282546386754        7.45699159724320        0.03719083132488
116
 energy: -22.757904001168 gnorm: 0.464115744204 xtb: 6.6.1 (8d0f1dd)
C           -2.76871234414503        0.93478799903729       -1.73111466492548
C           -2.15133822519346       -0.02919349975470       -0.96718330969079
C           -1.35223254662887        0.35791821725598        0.16967106930097
C           -0.82788932307585        1.66616623790962        0.28274719788208
C           -1.49751230805685        2.64801218249477       -0.42394051741192
C           -2.43124267239505        2.29578101155299       -1.41841241575869
C           -0.73897640610168       -0.53747465302624        1.16022335440594
C            0.57228093089193       -0.15980035009942        1.48910462130901
C            1.09288086071674        1.13143269215103        1.35260415946559
N            0.31446254656749        2.10832433914241        0.90518865801535
C           -1.24147461467144       -1.66107549906083        1.82004994622606
C           -0.31164661142849       -2.47716109091196        2.54419715518403
N            1.04027641554887       -2.24829846394824        2.53863290639150
C            1.46572308731708       -1.03355574075989        2.16538264348072
C            2.82618744637723       -0.77892837240235        2.50209371715451
C            3.28752492724059        0.52503853221678        2.41641085121202
C            2.35539670977344        1.44236410800546        1.88245944460766
C           -2.67747261603677       -2.06109066879386        1.81216636394298
C           -3.15016477552607       -3.20934502907396        2.54403288603737
C           -2.17805960722272       -3.85328063356200        3.37780059377506
C           -0.81711478668966       -3.56092268841672        3.21880884557103
O           -3.57838681233107       -1.32573641804514        1.14979732844284
O           -2.31143693912537       -1.32897191521254       -1.34613710367943
C           -3.30519982948711        3.31239998840406       -2.01111841995916
C           -2.72022554171002       -4.99115396551812        4.12279582999799
H           -1.11135101305381        3.73744492953419       -0.29835148517905
H           -3.25773963648372        0.60227989405976       -2.69666899873389
H            2.74467356005277        2.42706554664472        1.79287386966622
H            3.49822431207216       -1.49703406928125        3.04691171449151
H           -0.05358341757914       -4.19205858255850        3.57794185237730
H           -4.17888515647108       -3.44686407610429        2.62200565559115
O           -2.92842305408256        4.44236798344465       -1.90999602756357
O           -4.49090595027059        2.91014072266488       -2.63751050062879
C           -5.16923435999598        4.12437371511957       -3.04637865983615
C            4.42200480844476        0.85503022581422        3.37469382054076
O            4.79323788343251        0.02420294328453        4.19635271737526
O            5.05774517671211        2.00301941159958        3.12721944477828
C            6.07022233223536        2.29979471223106        3.94111698502949
O           -3.97587302247559       -5.11083553551382        4.00783694691350
O           -1.85926945576587       -5.89493411913980        4.75659498703680
C           -2.75432763590473       -6.88735209197710        5.28381773305033
C           -4.42391792421824       -1.95086249692706        0.25914507876677
C           -1.17477698289978       -2.10158183080356       -1.86937197773883
H           -3.16353679574778       -7.38650796026108        4.36100503490123
H           -3.50293269584460       -6.42675824635354        5.90932135856506
H           -1.88866005731300       -7.50875821125767        5.92229574320900
H            5.54345191697668        2.60891022102124        4.88524687404375
H            6.55039702570748        3.13998108309908        3.36118616331389
H            6.57155811212225        1.37938022645142        4.03765774841102
H           -1.37441611774115       -3.04804537104393       -1.63506232378518
H           -0.17898384952816       -1.88724865278995       -1.58003265661627
H           -0.96282969002560       -1.83514948134856       -2.96339032638886
H           -3.82209597441622       -2.47824618438242       -0.60103263458575
H           -5.06011237908619       -1.22709476611450       -0.15129999920871
H           -5.04482078729603       -2.68451105530157        0.73724859641824
H           -5.26467109803492        4.93872743788310       -2.24538172283522
H           -6.17688993111380        3.71523815310973       -3.25932964286909
H           -4.74556260973236        4.71267966536936       -3.93088081445044
C           -2.14091190907913        3.65959940875859        3.30099344857810
C           -2.26458970214129        2.44716982095466        3.90379441147352
C           -1.15926232654378        1.92697461365194        4.71734887949832
C            0.12304568837674        2.44250695656427        4.43478651648056
C            0.21685336433273        3.60853834096815        3.70596075318743
C           -0.91856611869403        4.26581757284443        3.37348092843729
C           -1.20162891030234        0.72900092470168        5.43622919427272
C           -0.02605416686665       -0.09701299428890        5.57066502631687
C            1.11560238500037        0.62269148707942        5.35903517080648
N            1.31973572175232        1.84057681468741        4.89493918688155
C           -2.49482251116107        0.28834501779100        5.89013522473817
C           -2.50197166121959       -1.03959843850580        6.26320767263211
N           -1.43203801830574       -1.78162776806286        6.44122576010609
C           -0.11033334225828       -1.40868779392189        6.26789101924831
C            1.18610074370421       -1.89566045669954        6.87529974336739
C            2.31116774630499       -1.10651843189390        6.73688327300636
C            2.30451240901215        0.10842247140724        5.90824023297141
C           -3.54671352181920        1.18464316896736        6.35848294051558
C           -4.80123022534903        0.48959681491863        6.57373752783920
C           -4.98202413100393       -0.89377941528007        6.44265080608757
C           -3.83534118044356       -1.64688077875924        6.45737583767245
O           -3.20879549699078        2.46420268133226        6.68313734952277
O           -3.32158572461974        1.61524050820697        3.72471878717666
C           -0.89607874566741        5.46249758696872        2.65349869218815
C           -6.24901686218028       -1.54585405964048        6.70579699575702
H            1.14324044545589        4.16091668854274        3.37915457276396
H           -2.81337651485315        4.05540706225462        2.60111753485855
H            3.24923707591232        0.63109106036733        5.86952557631140
H            1.20775389681972       -2.67739806163853        7.62568800792179
H           -3.84554688918961       -2.61902363915344        6.87592746106058
H           -5.65784081039961        1.06722773134848        6.66590784368013
O            0.24038767362349        6.06070299415045        2.66971844789579
O           -1.95503963532751        5.94400606636577        1.89336748517292
C           -1.58141146610751        7.27472121068584        1.43409904890774
C            3.47410550440808       -1.44232193255492        7.65881419895715
O            3.32827708550204       -1.90628402635764        8.75441063180203
O            4.69420650862968       -1.15080396060395        7.09142350709195
C            5.68662318107635       -1.06100283658003        8.16939175217692
O           -7.32980479727449       -1.02214321266841        7.04887191166373
O           -6.08957220850755       -2.88818545786836        6.46678757777061
C           -7.44411119656596       -3.48708673980743        6.54896914865321
C           -4.24801890801591        3.35916362756934        7.21622794310202
C           -3.75592961569681        1.56475465279003        2.42539440689975
H           -7.39655593831121       -4.33242445880318        5.92500431749018
H           -8.18290047241176       -2.82972382899255        6.19852198168185
H           -7.62078494295515       -4.02463921232646        7.62969950373479
H            5.20966078106343       -0.93771946441696        9.08511272554863
H            6.31857465168614       -0.19216367273791        8.00192302490434
H            6.11523951696226       -1.99532439124304        8.25639322323990
H           -4.32922386731525        0.58562685457065        2.35285832687512
H           -2.72210477959998        1.62467454455287        1.88357441077209
H           -4.31764826125120        2.47215675495559        2.28900775022309
H           -5.24658094149844        2.99976134884957        6.74612321768334
H           -3.81796269008888        4.27174593068193        6.80524847463746
H           -4.25646373399638        3.33395508736512        8.32616209043130
H           -1.79733014503323        7.47631889278780        0.38512022710971
H           -0.47257484772187        7.36239361647306        1.42880907638169
H           -2.11864976586753        7.96447203425759        2.21951223241413
116
 energy: -22.755827691269 gnorm: 0.464502638430 xtb: 6.6.1 (8d0f1dd)
C           -2.90005169076403        0.93750776532724       -1.15681276444609
C           -2.16462842395327        0.06421254661851       -0.35466987585024
C           -1.13032985524825        0.44041798889096        0.60183617876977
C           -0.67342053127480        1.76400764310379        0.40209092591164
C           -1.43099701890863        2.60190547969879       -0.41008136211263
C           -2.48623726337681        2.27609216460187       -1.15906021027201
C           -0.66348878032129       -0.30859746679676        1.67720312012009
C            0.55478535690906        0.11008417503218        2.17182324062471
C            1.10731995380172        1.37643359097598        1.79537894227204
N            0.51385217031575        2.24433070816208        0.93653648447064
C           -1.30240319513196       -1.41209405558726        2.27520716960960
C           -0.35441994648764       -2.21882236275223        2.98290188272431
N            0.80126981894683       -1.89407299774585        3.56251542808535
C            1.36680111406416       -0.77764160588178        3.00333794117949
C            2.59741846985316       -0.34446082064459        3.46656350385375
C            3.12295596539561        0.86778029495342        3.07894838907607
C            2.38583601552145        1.67084264609211        2.24010021725518
C           -2.62190653614860       -1.70683288913413        2.37059495862486
C           -3.05017917538337       -3.00021780411803        2.75029409007799
C           -2.09821307761397       -3.94870662955507        3.04220150868894
C           -0.73598804082110       -3.55528815209111        3.16075894636574
O           -3.60050987176868       -0.67105085446920        2.07854907815499
O           -2.40493866593320       -1.29996915169864       -0.41299465918617
C           -3.18138691524988        3.25255772542684       -1.96953124112595
C           -2.75396232492494       -5.23610411760602        3.57247212550844
H           -1.11440526700983        3.64060199466966       -0.45494810668744
H           -3.73237931937000        0.53078632865521       -1.72079673685107
H            2.75259660372597        2.62874715787793        1.87065627309095
H            3.09483925791949       -1.00583732277457        4.22570379780072
H           -0.00363233858640       -4.21634807349947        3.62894116872510
H           -4.03308776276483       -3.35144290068029        2.44535942120066
O           -2.73227244795278        4.40713413098690       -1.93973999863774
O           -4.02284504823635        2.78731544325354       -2.94713682534958
C           -4.33034559286568        3.88756773110177       -3.73661740043858
C            4.48990998545797        1.30041242669561        3.40721142900566
O            5.17818428194630        0.95535386609837        4.35502919115671
O            5.00835136455025        1.89835165835659        2.36308505667093
C            6.35964063466847        2.46073323239539        2.52163981528094
O           -3.89558319755034       -5.41475813543578        3.21036214763832
O           -1.93350599701908       -5.97479955162715        4.38707691585520
C           -2.53788248738725       -7.10719882645282        4.87303697446923
C           -4.91718078991288       -1.14986883672240        1.57890137449421
C           -1.25420927127438       -2.23051139424481       -0.85707357265519
H           -3.16657679675865       -7.01714970863878        5.91678018970858
H           -1.87182377960426       -7.85191105771231        4.94372902756547
H           -3.28383878793886       -7.54313685796214        4.13881005061285
H            6.71793679720396        2.23427814973869        3.55906209314722
H            6.51735458262157        3.51305804592820        2.43669225296297
H            6.88376717201012        1.83543810698600        1.74578651837434
H           -1.52925992690022       -2.45208841391860       -1.91264461351881
H           -1.63100648571936       -3.07397173645902       -0.35010243523215
H           -0.20508849112590       -1.91258400670049       -0.56805474796864
H           -4.52957100797630       -1.96641413535906        1.06997862921294
H           -5.52186147622696       -0.80919208890677        0.69180564450617
H           -5.70132079760628       -1.25694330048135        2.38896976093841
H           -5.12179873197272        4.32337991127071       -3.15370051828470
H           -4.54120623216362        3.31892602005358       -4.64646114741101
H           -3.40930703361160        4.42235166528514       -3.70745444560639
C           -2.09446178120618        3.63831008434459        3.06056358217854
C           -2.29113622854326        2.58047566396802        3.89735636386255
C           -1.45554785909552        2.16063001929913        4.99533479018979
C           -0.20677505153122        2.76264845456579        4.90869947033120
C            0.04426792358944        3.78307493359044        3.95505157827936
C           -0.86118468582195        4.30868721445564        3.08318506636854
C           -1.52809163309684        0.96095414943092        5.74284442660391
C           -0.23388155515422        0.38716898480324        6.00221602643971
C            0.98164079372154        1.13428617941222        6.12473795251373
N            0.91374427594477        2.38959310091556        5.57111142906320
C           -2.66381508412818        0.18779985395877        5.93808780514584
C           -2.40897787492777       -1.22122194366145        6.04698783175396
N           -1.17191333124057       -1.82048859890928        6.14177722663935
C           -0.13223555513134       -1.05790349606559        6.34289243784363
C            1.04863779681910       -1.66301191895982        6.74574085935057
C            2.21417391807500       -0.81553261154813        6.97542214773466
C            2.15756957213612        0.48634666034576        6.68947930348060
C           -3.95880704917455        0.71699088457276        6.40892623357582
C           -4.97372839198868       -0.27432948348998        6.61647895228725
C           -4.68555977704192       -1.65275215438617        6.35307419905974
C           -3.39283305861508       -2.20229401009335        6.11853715868321
O           -4.10241390255996        2.13381696070552        6.73552356785785
O           -3.42946354868444        1.88063841854425        3.65320548761454
C           -0.36274407985254        5.27160472693827        2.03995129973980
C           -6.02916505630295       -2.54464919943117        6.56713944316998
H            1.14708499887757        4.13619759546444        3.96728451809683
H           -2.84782696437500        4.11619293181250        2.46690940576430
H            3.08365775345952        1.02712007783426        6.87580557749149
H            1.41052616529029       -2.74529780750643        6.78177600775757
H           -3.28064446103169       -3.23220307926182        6.08249459030216
H           -5.93560722511715        0.04689451524705        6.74078074940292
O            0.70793078589467        5.77279581489012        1.95698922767076
O           -1.38637489812346        5.67135110149566        1.24062153753729
C           -0.84214049733125        6.46050764010036        0.24584572145683
C            3.53622786944173       -1.60206325155399        7.11419045866189
O            3.51468025358310       -2.79426796125782        6.77636097204493
O            4.66624320571873       -0.90238248419808        7.39192050495837
C            5.81890319261462       -1.67797392550867        7.36647126303353
O           -6.33258426769580       -3.36913658925140        5.72323404133355
O           -6.81449253225401       -1.86832865789330        7.47287278673696
C           -8.04240830106297       -2.53095990963426        7.40541189333003
C           -5.19063095968423        2.51160250771833        5.94481133410774
C           -4.12562007254583        2.13224264054731        2.41889099321870
H           -8.87180382034921       -2.01161226795159        6.70187292514440
H           -8.63550915589268       -2.61391179194254        8.33730952717061
H           -7.83271625813481       -3.53838351232322        7.15643014443825
H            5.64954835334961       -2.75292458512504        7.72797255751734
H            6.44574068422411       -1.10538023874283        8.22507618829237
H            6.24290497903863       -1.54624775035932        6.35060406266845
H           -5.10234240596427        1.59024962866034        2.51896234047781
H           -3.56880659987837        1.71622274484686        1.49766056788358
H           -4.35048419344341        3.18848133844629        2.35256668220144
H           -5.08896601830300        2.21471683556606        4.90136304616309
H           -5.12117414229574        3.68674635958573        5.78626177032023
H           -6.05245429912308        2.27336295866882        6.49016399418646
H           -1.19726540341239        6.24858490915956       -0.77106664358709
H            0.25852905630045        6.41545716545009        0.40115845790623
H           -1.09891984761659        7.48915188899022        0.40898195929455
116
 energy: -22.792493740181 gnorm: 0.428968644004 xtb: 6.6.1 (8d0f1dd)
C           -3.03040314058064        0.74922584521199       -0.84918677008067
C           -2.28920696367812       -0.27628793703695       -0.20719586466138
C           -1.33403543017947        0.16250854631690        0.81586924235247
C           -0.66734042692115        1.36898351024628        0.60183277559043
C           -1.24521912688186        2.27325042374849       -0.27239031847744
C           -2.46260404060157        2.00523835182780       -0.93446908582489
C           -0.66887257309036       -0.68912330569650        1.77606426964145
C            0.67293952415141       -0.39127717677161        1.94750505310672
C            1.18343049928271        0.88452603785165        1.74395173164636
N            0.43045018142758        1.79278414614494        1.17125632353036
C           -1.06143209728980       -1.87513781907929        2.37486937176495
C           -0.07391857471994       -2.76577192038830        2.90018663496887
N            1.18495774439148       -2.42783259881931        3.08659921730495
C            1.57484853966512       -1.26253990121046        2.55734817845710
C            2.83954910148324       -0.79681699730967        3.01044327493377
C            3.25496335021207        0.56110194724100        3.01908783722216
C            2.42730080116472        1.40265564832667        2.27307291333678
C           -2.51206318830185       -2.28680736060818        2.36098307150035
C           -2.86798213735715       -3.47319840484484        2.94467002862072
C           -1.87443957322941       -4.33195479861081        3.55531311913870
C           -0.60359088713052       -4.00898992822717        3.34408803016262
O           -3.55181116713072       -1.54854120503705        1.71049097152192
O           -2.45907979629784       -1.60379392536964       -0.67697085652196
C           -3.12803016349240        2.95975968038992       -1.92454688620598
C           -2.31216794035557       -5.39253559643892        4.50384755728803
H           -0.75844925955479        3.22466404891368       -0.42466873625496
H           -3.89888897380218        0.53629514481632       -1.44534174407295
H            2.94925924072943        2.29896855903990        2.00243513045169
H            3.29170377468289       -1.57165543780925        3.66306619876954
H            0.05141543988602       -4.64161835403285        3.85167684562201
H           -3.90774129721800       -3.81972409292254        2.70023755444064
O           -2.55558405896284        4.00520087090901       -2.01365439506594