      -----------------------------------------------------------      
     |                   =====================                   |     
     |                           x T B                           |     
     |                   =====================                   |     
     |                         S. Grimme                         |     
     |          Mulliken Center for Theoretical Chemistry        |     
     |                    University of Bonn                     |     
      -----------------------------------------------------------      

   * xtb version 6.6.1 (8d0f1dd) compiled by 'conda@1efc2f54142f' on 2023-08-01

   xtb is free software: you can redistribute it and/or modify it under
   the terms of the GNU Lesser General Public License as published by
   the Free Software Foundation, either version 3 of the License, or
   (at your option) any later version.
   
   xtb is distributed in the hope that it will be useful,
   but WITHOUT ANY WARRANTY; without even the implied warranty of
   MERCHANTABILITY or FITNESS FOR A PARTICULAR PURPOSE.  See the
   GNU Lesser General Public License for more details.
   
   Cite this work as:
   * C. Bannwarth, E. Caldeweyher, S. Ehlert, A. Hansen, P. Pracht,
     J. Seibert, S. Spicher, S. Grimme, WIREs Comput. Mol. Sci., 2020, 11,
     e01493. DOI: 10.1002/wcms.1493
   
   for GFN2-xTB:
   * C. Bannwarth, S. Ehlert and S. Grimme., J. Chem. Theory Comput., 2019,
     15, 1652-1671. DOI: 10.1021/acs.jctc.8b01176
   for GFN1-xTB:
   * S. Grimme, C. Bannwarth, P. Shushkov, J. Chem. Theory Comput., 2017,
     13, 1989-2009. DOI: 10.1021/acs.jctc.7b00118
   for GFN0-xTB:
   * P. Pracht, E. Caldeweyher, S. Ehlert, S. Grimme, ChemRxiv, 2019, preprint.
     DOI: 10.26434/chemrxiv.8326202.v1
   for GFN-FF:
   * S. Spicher and S. Grimme, Angew. Chem. Int. Ed., 2020, 59, 15665-15673.
     DOI: 10.1002/anie.202004239
   
   for ALPB and GBSA implicit solvation:
   * S. Ehlert, M. Stahn, S. Spicher, S. Grimme, J. Chem. Theory Comput.,
     2021, 17, 4250-4261. DOI: 10.1021/acs.jctc.1c00471
   
   for DFT-D4:
   * E. Caldeweyher, C. Bannwarth and S. Grimme, J. Chem. Phys., 2017,
     147, 034112. DOI: 10.1063/1.4993215
   * E. Caldeweyher, S. Ehlert, A. Hansen, H. Neugebauer, S. Spicher,
     C. Bannwarth and S. Grimme, J. Chem. Phys., 2019, 150, 154122.
     DOI: 10.1063/1.5090222
   * E. Caldeweyher, J.-M. Mewes, S. Ehlert and S. Grimme, Phys. Chem. Chem. Phys.
     2020, 22, 8499-8512. DOI: 10.1039/D0CP00502A
   
   for sTDA-xTB:
   * S. Grimme and C. Bannwarth, J. Chem. Phys., 2016, 145, 054103.
     DOI: 10.1063/1.4959605
   
   in the mass-spec context:
   * V. Asgeirsson, C. Bauer and S. Grimme, Chem. Sci., 2017, 8, 4879.
     DOI: 10.1039/c7sc00601b
   * J. Koopman and S. Grimme, ACS Omega 2019, 4, 12, 15120-15133.
     DOI: 10.1021/acsomega.9b02011
   
   for metadynamics refer to:
   * S. Grimme, J. Chem. Theory Comput., 2019, 155, 2847-2862
     DOI: 10.1021/acs.jctc.9b00143
   
   for SPH calculations refer to:
   * S. Spicher and S. Grimme, J. Chem. Theory Comput., 2021, 17, 1701-1714
     DOI: 10.1021/acs.jctc.0c01306
   
   with help from (in alphabetical order)
   P. Atkinson, C. Bannwarth, F. Bohle, G. Brandenburg, E. Caldeweyher
   M. Checinski, S. Dohm, S. Ehlert, S. Ehrlich, I. Gerasimov, C. Hölzer
   A. Katbashev, J. Koopman, C. Lavigne, S. Lehtola, F. März, M. Müller,
   F. Musil, H. Neugebauer, J. Pisarek, C. Plett, P. Pracht, F. Pultar,
   J. Seibert, P. Shushkov, S. Spicher, M. Stahn, M. Steiner, T. Strunk,
   J. Stückrath, T. Rose, and J. Unsleber
   
 * started run on 2025/03/13 at 17:48:40.708     

           -------------------------------------------------
          |                Calculation Setup                |
           -------------------------------------------------

          program call               : xtb packed_box.xyz --md --gfnff --input md_settings.inp
          hostname                   : cx3-15-4.cx3.hpc.ic.ac.uk
          coordinate file            : packed_box.xyz
          omp threads                :                     8

   ID    Z sym.   atoms
    1    6 C      1-9, 11, 12, 14-21, 24-35, 42, 43, 77-85, 87, 88, 90-97,
                  100-111, 118, 119, 153-161, 163, 164, 166-173, 176-187,
                  194, 195, 229-237, 239, 240, 242-249, 252-263, 270, 271,
                  305-313, 315, 316, 318-325, 328-339, 346, 347, 381-389,
                  391, 392, 394-401, 404-415, 422, 423, 457-465, 467, 468,
                  470-477, 480-491, 498, 499, 533-541, 543, 544, 546-553,
                  556-567, 574, 575, 609-617, 619, 620, 622-629, 632-643,
                  650, 651, 685-693, 695, 696, 698-705, 708-719, 726, 727,
                  761-769, 771, 772, 774-781, 784-795, 802, 803, 837-845,
                  847, 848, 850-857, 860-871, 878, 879, 913-921, 923, 924,
                  926-933, 936-947, 954, 955, 989-997, 999, 1000, 1002-1009,
                  1012-1023, 1030, 1031, 1065-1073, 1075, 1076, 1078-1085,
                  1088-1099, 1106, 1107, 1141-1149, 1151, 1152, 1154-1161,
                  1164-1175, 1182, 1183, 1217-1225, 1227, 1228, 1230-1237,
                  1240-1251, 1258, 1259, 1293-1301, 1303, 1304, 1306-1313,
                  1316-1327, 1334, 1335, 1369-1377, 1379, 1380, 1382-1389,
                  1392-1403, 1410, 1411, 1445-1453, 1455, 1456, 1458-1465,
                  1468-1479, 1486, 1487, 1521-1529, 1531, 1532, 1534-1541,
                  1544-1555, 1562, 1563, 1597-1605, 1607, 1608, 1610-1617,
                  1620-1631, 1638, 1639, 1673-1681, 1683, 1684, 1686-1693,
                  1696-1707, 1714, 1715, 1749-1757, 1759, 1760, 1762-1769,
                  1772-1783, 1790, 1791, 1825-1833, 1835, 1836, 1838-1845,
                  1848-1859, 1866, 1867, 1901-1909, 1911, 1912, 1914-1921,
                  1924-1935, 1942, 1943, 1977-1985, 1987, 1988, 1990-1997,
                  2000-2011, 2018, 2019, 2053-2061, 2063, 2064, 2066-2073,
                  2076-2087, 2094, 2095, 2129-2137, 2139, 2140, 2142-2149,
                  2152-2163, 2170, 2171, 2205-2213, 2215, 2216, 2218-2225,
                  2228-2239, 2246, 2247, 2281-2289, 2291, 2292, 2294-2301,
                  2304-2315, 2322, 2323, 2357-2365, 2367, 2368, 2370-2377,
                  2380-2391, 2398, 2399, 2433-2441, 2443, 2444, 2446-2453,
                  2456-2467, 2474, 2475, 2509-2517, 2519, 2520, 2522-2529,
                  2532-2543, 2550, 2551, 2585-2593, 2595, 2596, 2598-2605,
                  2608-2619, 2626, 2627, 2661-2669, 2671, 2672, 2674-2681,
                  2684-2695, 2702, 2703, 2737-2745, 2747, 2748, 2750-2757,
                  2760-2771, 2778, 2779, 2813-2821, 2823, 2824, 2826-2833,
                  2836-2847, 2854, 2855, 2889-2897, 2899, 2900, 2902-2909,
                  2912-2923, 2930, 2931, 2965-2973, 2975, 2976, 2978-2985,
                  2988-2999, 3006, 3007, 3041-3049, 3051, 3052, 3054-3061,
                  3064-3075, 3082, 3083, 3117-3125, 3127, 3128, 3130-3137,
                  3140-3151, 3158, 3159, 3193-3201, 3203, 3204, 3206-3213,
                  3216-3227, 3234, 3235, 3269-3277, 3279, 3280, 3282-3289,
                  3292-3303, 3310, 3311, 3345-3353, 3355, 3356, 3358-3365,
                  3368-3379, 3386, 3387, 3421-3429, 3431, 3432, 3434-3441,
                  3444-3455, 3462, 3463, 3497-3505, 3507, 3508, 3510-3517,
                  3520-3531, 3538, 3539, 3573-3581, 3583, 3584, 3586-3593,
                  3596-3607, 3614, 3615, 3649-3657, 3659, 3660, 3662-3669,
                  3672-3683, 3690, 3691, 3725-3733, 3735, 3736, 3738-3745,
                  3748-3759, 3766, 3767, 3801-3809, 3811, 3812, 3814-3821,
                  3824-3835, 3842, 3843, 3877-3885, 3887, 3888, 3890-3897,
                  3900-3911, 3918, 3919, 3953-3961, 3963, 3964, 3966-3973,
                  3976-3987, 3994, 3995, 4029-4037, 4039, 4040, 4042-4049,
                  4052-4063, 4070, 4071, 4105-4113, 4115, 4116, 4118-4125,
                  4128-4139, 4146, 4147, 4181-4189, 4191, 4192, 4194-4201,
                  4204-4215, 4222, 4223, 4257-4265, 4267, 4268, 4270-4277,
                  4280-4291, 4298, 4299, 4333-4341, 4343, 4344, 4346-4353,
                  4356-4367, 4374, 4375, 4409-4417, 4419, 4420, 4422-4429,
                  4432-4443, 4450, 4451, 4485-4493, 4495, 4496, 4498-4505,
                  4508-4519, 4526, 4527, 4561-4569, 4571, 4572, 4574-4581,
                  4584-4595, 4602, 4603, 4637-4645, 4647, 4648, 4650-4657,
                  4660-4671, 4678, 4679, 4713-4721, 4723, 4724, 4726-4733,
                  4736-4747, 4754, 4755, 4789-4797, 4799, 4800, 4802-4809,
                  4812-4823, 4830, 4831, 4865-4873, 4875, 4876, 4878-4885,
                  4888-4899, 4906, 4907, 4941-4949, 4951, 4952, 4954-4961,
                  4964-4975, 4982, 4983, 5017-5025, 5027, 5028, 5030-5037,
                  5040-5051, 5058, 5059, 5093-5101, 5103, 5104, 5106-5113,
                  5116-5127, 5134, 5135, 5169-5177, 5179, 5180, 5182-5189,
                  5192-5203, 5210, 5211, 5245-5253, 5255, 5256, 5258-5265,
                  5268-5279, 5286, 5287, 5321-5329, 5331, 5332, 5334-5341,
                  5344-5355, 5362, 5363, 5397-5405, 5407, 5408, 5410-5417,
                  5420-5431, 5438, 5439, 5473-5481, 5483, 5484, 5486-5493,
                  5496-5507, 5514, 5515, 5549-5557, 5559, 5560, 5562-5569,
                  5572-5583, 5590, 5591, 5625-5633, 5635, 5636, 5638-5645,
                  5648-5659, 5666, 5667, 5701-5709, 5711, 5712, 5714-5721,
                  5724-5735, 5742, 5743, 5777-5785, 5787, 5788, 5790-5797,
                  5800-5811, 5818, 5819, 5853-5861, 5863, 5864, 5866-5873,
                  5876-5887, 5894, 5895, 5929-5937, 5939, 5940, 5942-5949,
                  5952-5963, 5970, 5971, 6005-6013, 6015, 6016, 6018-6025,
                  6028-6039, 6046, 6047, 6081-6089, 6091, 6092, 6094-6101,
                  6104-6115, 6122, 6123, 6157-6165, 6167, 6168, 6170-6177,
                  6180-6191, 6198, 6199, 6233-6241, 6243, 6244, 6246-6253,
                  6256-6267, 6274, 6275, 6309-6317, 6319, 6320, 6322-6329,
                  6332-6343, 6350, 6351, 6385-6393, 6395, 6396, 6398-6405,
                  6408-6419, 6426, 6427, 6461-6469, 6471, 6472, 6474-6481,
                  6484-6495, 6502, 6503, 6537-6545, 6547, 6548, 6550-6557,
                  6560-6571, 6578, 6579, 6613-6621, 6623, 6624, 6626-6633,
                  6636-6647, 6654, 6655, 6689-6697, 6699, 6700, 6702-6709,
                  6712-6723, 6730, 6731, 6765-6773, 6775, 6776, 6778-6785,
                  6788-6799, 6806, 6807, 6841-6849, 6851, 6852, 6854-6861,
                  6864-6875, 6882, 6883, 6917-6925, 6927, 6928, 6930-6937,
                  6940-6951, 6958, 6959, 6993-7001, 7003, 7004, 7006-7013,
                  7016-7027, 7034, 7035, 7069-7077, 7079, 7080, 7082-7089,
                  7092-7103, 7110, 7111, 7145-7153, 7155, 7156, 7158-7165,
                  7168-7179, 7186, 7187, 7221-7229, 7231, 7232, 7234-7241,
                  7244-7255, 7262, 7263, 7297-7305, 7307, 7308, 7310-7317,
                  7320-7331, 7338, 7339, 7373-7381, 7383, 7384, 7386-7393,
                  7396-7407, 7414, 7415, 7449-7457, 7459, 7460, 7462-7469,
                  7472-7483, 7490, 7491, 7525-7533, 7535, 7536, 7538-7545,
                  7548-7559, 7566, 7567
    2    7 N      10, 13, 86, 89, 162, 165, 238, 241, 314, 317, 390, 393,
                  466, 469, 542, 545, 618, 621, 694, 697, 770, 773, 846, 849,
                  922, 925, 998, 1001, 1074, 1077, 1150, 1153, 1226, 1229,
                  1302, 1305, 1378, 1381, 1454, 1457, 1530, 1533, 1606, 1609,
                  1682, 1685, 1758, 1761, 1834, 1837, 1910, 1913, 1986, 1989,
                  2062, 2065, 2138, 2141, 2214, 2217, 2290, 2293, 2366, 2369,
                  2442, 2445, 2518, 2521, 2594, 2597, 2670, 2673, 2746, 2749,
                  2822, 2825, 2898, 2901, 2974, 2977, 3050, 3053, 3126, 3129,
                  3202, 3205, 3278, 3281, 3354, 3357, 3430, 3433, 3506, 3509,
                  3582, 3585, 3658, 3661, 3734, 3737, 3810, 3813, 3886, 3889,
                  3962, 3965, 4038, 4041, 4114, 4117, 4190, 4193, 4266, 4269,
                  4342, 4345, 4418, 4421, 4494, 4497, 4570, 4573, 4646, 4649,
                  4722, 4725, 4798, 4801, 4874, 4877, 4950, 4953, 5026, 5029,
                  5102, 5105, 5178, 5181, 5254, 5257, 5330, 5333, 5406, 5409,
                  5482, 5485, 5558, 5561, 5634, 5637, 5710, 5713, 5786, 5789,
                  5862, 5865, 5938, 5941, 6014, 6017, 6090, 6093, 6166, 6169,
                  6242, 6245, 6318, 6321, 6394, 6397, 6470, 6473, 6546, 6549,
                  6622, 6625, 6698, 6701, 6774, 6777, 6850, 6853, 6926, 6929,
                  7002, 7005, 7078, 7081, 7154, 7157, 7230, 7233, 7306, 7309,
                  7382, 7385, 7458, 7461, 7534, 7537
    3    8 O      22, 23, 98, 99, 174, 175, 250, 251, 326, 327, 402, 403,
                  478, 479, 554, 555, 630, 631, 706, 707, 782, 783, 858, 859,
                  934, 935, 1010, 1011, 1086, 1087, 1162, 1163, 1238, 1239,
                  1314, 1315, 1390, 1391, 1466, 1467, 1542, 1543, 1618, 1619,
                  1694, 1695, 1770, 1771, 1846, 1847, 1922, 1923, 1998, 1999,
                  2074, 2075, 2150, 2151, 2226, 2227, 2302, 2303, 2378, 2379,
                  2454, 2455, 2530, 2531, 2606, 2607, 2682, 2683, 2758, 2759,
                  2834, 2835, 2910, 2911, 2986, 2987, 3062, 3063, 3138, 3139,
                  3214, 3215, 3290, 3291, 3366, 3367, 3442, 3443, 3518, 3519,
                  3594, 3595, 3670, 3671, 3746, 3747, 3822, 3823, 3898, 3899,
                  3974, 3975, 4050, 4051, 4126, 4127, 4202, 4203, 4278, 4279,
                  4354, 4355, 4430, 4431, 4506, 4507, 4582, 4583, 4658, 4659,
                  4734, 4735, 4810, 4811, 4886, 4887, 4962, 4963, 5038, 5039,
                  5114, 5115, 5190, 5191, 5266, 5267, 5342, 5343, 5418, 5419,
                  5494, 5495, 5570, 5571, 5646, 5647, 5722, 5723, 5798, 5799,
                  5874, 5875, 5950, 5951, 6026, 6027, 6102, 6103, 6178, 6179,
                  6254, 6255, 6330, 6331, 6406, 6407, 6482, 6483, 6558, 6559,
                  6634, 6635, 6710, 6711, 6786, 6787, 6862, 6863, 6938, 6939,
                  7014, 7015, 7090, 7091, 7166, 7167, 7242, 7243, 7318, 7319,
                  7394, 7395, 7470, 7471, 7546, 7547
    4    1 H      36-41, 44-76, 112-117, 120-152, 188-193, 196-228, 264-269,
                  272-304, 340-345, 348-380, 416-421, 424-456, 492-497,
                  500-532, 568-573, 576-608, 644-649, 652-684, 720-725,
                  728-760, 796-801, 804-836, 872-877, 880-912, 948-953,
                  956-988, 1024-1029, 1032-1064, 1100-1105, 1108-1140,
                  1176-1181, 1184-1216, 1252-1257, 1260-1292, 1328-1333,
                  1336-1368, 1404-1409, 1412-1444, 1480-1485, 1488-1520,
                  1556-1561, 1564-1596, 1632-1637, 1640-1672, 1708-1713,
                  1716-1748, 1784-1789, 1792-1824, 1860-1865, 1868-1900,
                  1936-1941, 1944-1976, 2012-2017, 2020-2052, 2088-2093,
                  2096-2128, 2164-2169, 2172-2204, 2240-2245, 2248-2280,
                  2316-2321, 2324-2356, 2392-2397, 2400-2432, 2468-2473,
                  2476-2508, 2544-2549, 2552-2584, 2620-2625, 2628-2660,
                  2696-2701, 2704-2736, 2772-2777, 2780-2812, 2848-2853,
                  2856-2888, 2924-2929, 2932-2964, 3000-3005, 3008-3040,
                  3076-3081, 3084-3116, 3152-3157, 3160-3192, 3228-3233,
                  3236-3268, 3304-3309, 3312-3344, 3380-3385, 3388-3420,
                  3456-3461, 3464-3496, 3532-3537, 3540-3572, 3608-3613,
                  3616-3648, 3684-3689, 3692-3724, 3760-3765, 3768-3800,
                  3836-3841, 3844-3876, 3912-3917, 3920-3952, 3988-3993,
                  3996-4028, 4064-4069, 4072-4104, 4140-4145, 4148-4180,
                  4216-4221, 4224-4256, 4292-4297, 4300-4332, 4368-4373,
                  4376-4408, 4444-4449, 4452-4484, 4520-4525, 4528-4560,
                  4596-4601, 4604-4636, 4672-4677, 4680-4712, 4748-4753,
                  4756-4788, 4824-4829, 4832-4864, 4900-4905, 4908-4940,
                  4976-4981, 4984-5016, 5052-5057, 5060-5092, 5128-5133,
                  5136-5168, 5204-5209, 5212-5244, 5280-5285, 5288-5320,
                  5356-5361, 5364-5396, 5432-5437, 5440-5472, 5508-5513,
                  5516-5548, 5584-5589, 5592-5624, 5660-5665, 5668-5700,
                  5736-5741, 5744-5776, 5812-5817, 5820-5852, 5888-5893,
                  5896-5928, 5964-5969, 5972-6004, 6040-6045, 6048-6080,
                  6116-6121, 6124-6156, 6192-6197, 6200-6232, 6268-6273,
                  6276-6308, 6344-6349, 6352-6384, 6420-6425, 6428-6460,
                  6496-6501, 6504-6536, 6572-6577, 6580-6612, 6648-6653,
                  6656-6688, 6724-6729, 6732-6764, 6800-6805, 6808-6840,
                  6876-6881, 6884-6916, 6952-6957, 6960-6992, 7028-7033,
                  7036-7068, 7104-7109, 7112-7144, 7180-7185, 7188-7220,
                  7256-7261, 7264-7296, 7332-7337, 7340-7372, 7408-7413,
                  7416-7448, 7484-7489, 7492-7524, 7560-7565, 7568-7600

molecular fragmentation (1/2 indicates fragments):
111111111111111111111111111111111111111111111111111111111111111111111111
111122222222222222222222222222222222222222222222222222222222222222222222
222222222222222222222222222222222222222222222222222222222222222222222222
222222222222222222222222222222222222222222222222222222222222222222222222
222222222222222222222222222222222222222222222222222222222222222222222222
222222222222222222222222222222222222222222222222222222222222222222222222
222222222222222222222222222222222222222222222222222222222222222222222222
222222222222222222222222222222222222222222222222222222222222222222222222
222222222222222222222222222222222222222222222222222222222222222222222222
222222222222222222222222222222222222222222222222222222222222222222222222
222222222222222222222222222222222222222222222222222222222222222222222222
222222222222222222222222222222222222222222222222222222222222222222222222
222222222222222222222222222222222222222222222222222222222222222222222222
222222222222222222222222222222222222222222222222222222222222222222222222
222222222222222222222222222222222222222222222222222222222222222222222222
222222222222222222222222222222222222222222222222222222222222222222222222
222222222222222222222222222222222222222222222222222222222222222222222222
222222222222222222222222222222222222222222222222222222222222222222222222
222222222222222222222222222222222222222222222222222222222222222222222222
222222222222222222222222222222222222222222222222222222222222222222222222
222222222222222222222222222222222222222222222222222222222222222222222222
222222222222222222222222222222222222222222222222222222222222222222222222
222222222222222222222222222222222222222222222222222222222222222222222222
222222222222222222222222222222222222222222222222222222222222222222222222
222222222222222222222222222222222222222222222222222222222222222222222222
222222222222222222222222222222222222222222222222222222222222222222222222
222222222222222222222222222222222222222222222222222222222222222222222222
222222222222222222222222222222222222222222222222222222222222222222222222
222222222222222222222222222222222222222222222222222222222222222222222222
222222222222222222222222222222222222222222222222222222222222222222222222
222222222222222222222222222222222222222222222222222222222222222222222222
222222222222222222222222222222222222222222222222222222222222222222222222
222222222222222222222222222222222222222222222222222222222222222222222222
222222222222222222222222222222222222222222222222222222222222222222222222
222222222222222222222222222222222222222222222222222222222222222222222222
222222222222222222222222222222222222222222222222222222222222222222222222
222222222222222222222222222222222222222222222222222222222222222222222222
222222222222222222222222222222222222222222222222222222222222222222222222
222222222222222222222222222222222222222222222222222222222222222222222222
222222222222222222222222222222222222222222222222222222222222222222222222
222222222222222222222222222222222222222222222222222222222222222222222222
222222222222222222222222222222222222222222222222222222222222222222222222
222222222222222222222222222222222222222222222222222222222222222222222222
222222222222222222222222222222222222222222222222222222222222222222222222
222222222222222222222222222222222222222222222222222222222222222222222222
222222222222222222222222222222222222222222222222222222222222222222222222
222222222222222222222222222222222222222222222222222222222222222222222222
222222222222222222222222222222222222222222222222222222222222222222222222
222222222222222222222222222222222222222222222222222222222222222222222222
222222222222222222222222222222222222222222222222222222222222222222222222
222222222222222222222222222222222222222222222222222222222222222222222222
222222222222222222222222222222222222222222222222222222222222222222222222
222222222222222222222222222222222222222222222222222222222222222222222222
222222222222222222222222222222222222222222222222222222222222222222222222
222222222222222222222222222222222222222222222222222222222222222222222222
222222222222222222222222222222222222222222222222222222222222222222222222
222222222222222222222222222222222222222222222222222222222222222222222222
222222222222222222222222222222222222222222222222222222222222222222222222
222222222222222222222222222222222222222222222222222222222222222222222222
222222222222222222222222222222222222222222222222222222222222222222222222
222222222222222222222222222222222222222222222222222222222222222222222222
222222222222222222222222222222222222222222222222222222222222222222222222
222222222222222222222222222222222222222222222222222222222222222222222222
222222222222222222222222222222222222222222222222222222222222222222222222
222222222222222222222222222222222222222222222222222222222222222222222222
222222222222222222222222222222222222222222222222222222222222222222222222
222222222222222222222222222222222222222222222222222222222222222222222222
222222222222222222222222222222222222222222222222222222222222222222222222
222222222222222222222222222222222222222222222222222222222222222222222222
222222222222222222222222222222222222222222222222222222222222222222222222
222222222222222222222222222222222222222222222222222222222222222222222222
222222222222222222222222222222222222222222222222222222222222222222222222
222222222222222222222222222222222222222222222222222222222222222222222222
222222222222222222222222222222222222222222222222222222222222222222222222
222222222222222222222222222222222222222222222222222222222222222222222222
222222222222222222222222222222222222222222222222222222222222222222222222
222222222222222222222222222222222222222222222222222222222222222222222222
222222222222222222222222222222222222222222222222222222222222222222222222
222222222222222222222222222222222222222222222222222222222222222222222222
222222222222222222222222222222222222222222222222222222222222222222222222
222222222222222222222222222222222222222222222222222222222222222222222222
222222222222222222222222222222222222222222222222222222222222222222222222
222222222222222222222222222222222222222222222222222222222222222222222222
222222222222222222222222222222222222222222222222222222222222222222222222
222222222222222222222222222222222222222222222222222222222222222222222222
222222222222222222222222222222222222222222222222222222222222222222222222
222222222222222222222222222222222222222222222222222222222222222222222222
222222222222222222222222222222222222222222222222222222222222222222222222
222222222222222222222222222222222222222222222222222222222222222222222222
222222222222222222222222222222222222222222222222222222222222222222222222
222222222222222222222222222222222222222222222222222222222222222222222222
222222222222222222222222222222222222222222222222222222222222222222222222
222222222222222222222222222222222222222222222222222222222222222222222222
222222222222222222222222222222222222222222222222222222222222222222222222
222222222222222222222222222222222222222222222222222222222222222222222222
222222222222222222222222222222222222222222222222222222222222222222222222
222222222222222222222222222222222222222222222222222222222222222222222222
222222222222222222222222222222222222222222222222222222222222222222222222
222222222222222222222222222222222222222222222222222222222222222222222222
222222222222222222222222222222222222222222222222222222222222222222222222
222222222222222222222222222222222222222222222222222222222222222222222222
222222222222222222222222222222222222222222222222222222222222222222222222
222222222222222222222222222222222222222222222222222222222222222222222222
222222222222222222222222222222222222222222222222222222222222222222222222
222222222222222222222222222222222222222222222222222222222222222222222222
2222222222222222222222222222222222222222
# atoms in fragment 1/2:    76  7524
 fragment masses (1/2) :      495.68    49071.94
CMA distance (Bohr)    :  56.011
constraining FC (au)   :  0.0500
          GFN-FF topology read from file successfully!
           ------------------------------------------------- 
          |                   G F N - F F                   |
          |          A general generic force-field          |
          |                  Version 1.0.3                  | 
           ------------------------------------------------- 
          Number of HB bonds (bound hydrogen)     291691
          Number of HB bonds (unbound hydrogen)   28986
          Number of XB bonds                      0

 E+G (total)                   0 d,  0 h,  0 min, 12.810 sec
 distance/D3 list               ...        0 min,  0.249 sec (  1.940%)
 non bonded repulsion           ...        0 min,  0.105 sec (  0.817%)
 dCN                            ...        0 min,  0.873 sec (  6.813%)
 EEQ energy and q               ...        0 min,  4.250 sec ( 33.178%)
 D3                             ...        0 min,  3.551 sec ( 27.717%)
 EEQ gradient                   ...        0 min,  0.664 sec (  5.187%)
 bonds                          ...        0 min,  0.951 sec (  7.424%)
 bend and torsion               ...        0 min,  0.004 sec (  0.028%)
 bonded ATM                     ...        0 min,  0.005 sec (  0.037%)
 HB/XB (incl list setup)        ...        0 min,  2.160 sec ( 16.858%)

         :::::::::::::::::::::::::::::::::::::::::::::::::::::
         ::                     SUMMARY                     ::
         :::::::::::::::::::::::::::::::::::::::::::::::::::::
         :: total energy           -1268.043521122775 Eh    ::
         :: gradient norm             33.256415618459 Eh/a0 ::
         ::.................................................::
         :: bond energy            -1319.496233972819 Eh    ::
         :: angle energy              15.247243433638 Eh    ::
         :: torsion energy             1.921205149801 Eh    ::
         :: repulsion energy          58.166533919813 Eh    ::
         :: electrostat energy       -13.232609352270 Eh    ::
         :: dispersion energy        -10.175078173536 Eh    ::
         :: HB energy                 -0.034802510396 Eh    ::
         :: XB energy                  0.000000000000 Eh    ::
         :: bonded atm energy         -0.439779617005 Eh    ::
         :: external energy            0.000000000000 Eh    ::
         :: add. restraining           0.000000000000 Eh    ::
         :: total charge              -0.000000000000 e     ::
         :::::::::::::::::::::::::::::::::::::::::::::::::::::

           -------------------------------------------------
          |                Property Printout                |
           -------------------------------------------------

           -------------------------------------------------
          | TOTAL ENERGY            -1268.043521122775 Eh   |
          | GRADIENT NORM              33.256415618459 Eh/α |
           -------------------------------------------------
           ------------------------------------------------- 
          |               Molecular Dynamics                |
           ------------------------------------------------- 
 trajectories on xtb.trj or xtb.trj.<n>

 MD time /ps        :   10.00
 dt /fs             :    2.00
 SCC accuracy       :    2.00
 temperature /K     :  300.00
 max steps          :  5000
 block length (av.) :  2500
 dumpstep(trj) /fs  :  500.00   250
 dumpstep(coords)/fs: 1000.00   500
 H atoms mass (amu) :     4
 # deg. of freedom  : 22800
 SHAKE off
 Berendsen THERMOSTAT on
         time (ps)    <Epot>      Ekin   <T>   T     Etot
      0    0.00      0.00000  27.5037    0.    0. -1240.53979
Note: The following floating-point exceptions are signalling: IEEE_UNDERFLOW_FLAG IEEE_DENORMAL
normal termination of xtb
  -1299.5744420418864        21287.026270867129     
 MD is unstable, emergency exit 
 but still taking it as converged!
 average properties 
 Epot               :  -1226.7255672027145     
 Epot (accurate SCC):  -1315.8537833644584     
 Ekin               :   242.73139824918192     
 Etot               :  -983.99416895353249     
 T                  :   6723.5601358566801     
 normal exit of md()

------------------------------------------------------------------------
 * finished run on 2025/03/13 at 17:51:27.566     
------------------------------------------------------------------------
 total:
 * wall-time:     0 d,  0 h,  2 min, 46.857 sec
 *  cpu-time:     0 d,  0 h, 12 min, 38.440 sec
 * ratio c/w:     4.545 speedup
 SCF:
 * wall-time:     0 d,  0 h,  0 min, 16.599 sec
 *  cpu-time:     0 d,  0 h,  1 min, 17.093 sec
 * ratio c/w:     4.644 speedup
 MD:
 * wall-time:     0 d,  0 h,  2 min, 25.263 sec
 *  cpu-time:     0 d,  0 h, 11 min, 15.518 sec
 * ratio c/w:     4.650 speedup

