7600
 energy: -1268.043521122775 gnorm: 33.256415618459 xtb: 6.6.1 (8d0f1dd)
C           20.46600000000000       -0.15100000000000       46.42600000000000
C           21.64600000000000        0.65200000000000       45.79500000000000
C           21.61300000000000        1.02600000000000       44.28100000000000
C           20.53000000000000        0.39200000000000       43.34900000000000
C           19.33300000000000       -0.38100000000000       43.98500000000000
C           19.28700000000000       -0.63400000000000       45.52399999999999
C           22.76800000000000        2.00700000000000       43.62200000000000
C           22.93400000000000        1.87300000000000       41.98500000000000
C           21.78600000000000        1.08400000000000       41.09500000000000
N           20.64900000000000        0.45700000000000       41.75400000000000
C           23.62100000000000        3.02400000000000       44.33299999999999
C           24.93400000000000        3.68300000000000       43.56399999999999
N           25.21400000000000        3.46400000000000       42.15200000000000
C           24.20900000000000        2.61200000000000       41.23800000000000
C           24.35700000000000        2.49100000000000       39.74700000000000
C           23.21200000000000        1.70500000000000       38.84000000000000
C           21.99500000000000        1.06400000000000       39.45200000000000
C           23.23600000000000        3.60200000000000       45.83799999999999
C           24.16500000000000        4.55600000000000       46.53700000000000
C           25.58000000000000        5.06600000000000       45.84200000000000
C           25.95100000000000        4.64900000000000       44.44600000000000
O           21.86300000000000        3.24800000000000       46.51800000000000
O           22.89399999999999        1.03200000000000       46.66499999999999
C           17.98900000000000       -1.44700000000000       46.21700000000000
C           26.60800000000000        6.08500000000000       46.70400000000000
C           23.40400000000000        1.63400000000000       37.16700000000000
C           25.85600000000000        6.56300000000000       48.16700000000000
C           28.07100000000000        5.26400000000000       47.05200000000000
C           26.94900000000000        7.47300000000000       45.76100000000000
C           23.22900000000000        0.01400000000000       36.64099999999999
C           22.21500000000000        2.61200000000000       36.41500000000000
C           24.96300000000000        2.20300000000000       36.74500000000000
C           17.32500000000000       -0.48500000000000       47.46900000000000
C           18.53300000000000       -2.93400000000000       46.87199999999999
C           16.78800000000000       -1.75300000000000       45.03500000000000
H           18.44100000000000       -0.80500000000000       43.26899999999999
H           20.47000000000000       -0.41100000000000       47.61800000000000
H           21.16600000000000        0.52000000000000       38.73500000000000
H           25.32500000000000        2.99800000000000       39.19600000000000
H           26.99900000000000        5.04200000000000       43.95200000000000
H           23.86400000000000        4.97400000000000       47.64700000000000
C           22.36100000000000        2.79500000000000       47.86100000000000
C           23.67200000000000        0.08800000000000       46.64000000000000
H           16.44600000000000       -0.82600000000000       44.62500000000000
H           15.96500000000000       -2.26800000000000       45.48700000000000
H           17.20100000000000       -2.35800000000000       44.25500000000000
H           19.28400000000000       -2.74500000000000       47.61100000000000
H           18.94600000000000       -3.53800000000000       46.09100000000000
H           17.71000000000000       -3.44800000000000       47.32299999999999
H           18.07500000000000       -0.29400000000000       48.20800000000000
H           16.50400000000000       -1.00300000000000       47.91999999999999
H           16.98000000000000        0.44200000000000       47.06200000000000
H           22.25500000000000       -0.34400000000000       36.90400000000000
H           23.97200000000000       -0.59600000000000       37.11099999999999
H           23.35000000000000       -0.03100000000000       35.57900000000000
H           25.70500000000000        1.59300000000000       37.21500000000000
H           25.07400000000000        3.21600000000000       37.07200000000000
H           25.08300000000000        2.15700000000000       35.68200000000000
H           21.24200000000000        2.25600000000000       36.67900000000000
H           22.33600000000000        2.56600000000000       35.35299999999999
H           22.32700000000000        3.62400000000000       36.74300000000000
H           26.03600000000000        7.98800000000000       45.54099999999999
H           27.42000000000000        7.17700000000000       44.84699999999999
H           27.60200000000000        8.12300000000000       46.30399999999999
H           27.86199999999999        4.39600000000000       47.64200000000000
H           28.72400000000000        5.91500000000000       47.59600000000000
H           28.54100000000000        4.96900000000000       46.13800000000000
H           25.64200000000000        5.69700000000000       48.75800000000000
H           24.94400000000000        7.07800000000000       47.94700000000000
H           26.51100000000000        7.21200000000000       48.70900000000000
H           24.77100000000000       -0.24000000000000       47.11899999999999
H           24.08400000000000       -0.42700000000000       45.86999999999999
H           23.52600000000000       -1.04500000000000       46.84400000000000
H           21.50100000000000        2.75700000000000       48.74000000000000
H           22.69200000000000        3.55400000000000       48.62000000000000
H           22.99900000000000        2.06700000000000       48.32000000000000
C           19.20400000000000       25.07000000000000        8.87100000000000
C           20.52100000000000       24.23900000000000        8.96600000000000
C           21.71099999999999       24.55300000000000        8.00700000000000
C           21.50100000000000       25.52300000000000        6.80000000000000
C           20.19700000000000       26.37800000000000        6.72700000000000
C           19.05900000000000       26.17000000000000        7.77400000000000
C           23.17000000000000       23.79600000000000        8.18700000000000
C           24.11799999999999       23.79600000000000        6.83500000000000
C           23.74700000000000       24.78200000000000        5.56100000000000
N           22.55600000000000       25.61700000000000        5.60000000000000
C           23.73200000000000       23.17700000000000        9.43800000000000
C           25.06600000000000       22.19500000000000        9.34600000000000
N           25.84600000000000       22.03600000000000        8.12700000000000
C           25.48500000000000       22.87000000000000        6.80700000000000
C           26.34900000000000       22.87300000000000        5.57500000000000
C           25.99200000000000       23.85900000000000        4.28900000000000
C           24.79500000000000       24.77200000000000        4.27800000000000
C           23.13000000000000       23.52300000000000       10.94300000000000
C           23.67600000000000       22.81400000000000       12.15300000000000
C           24.88300000000000       21.68600000000000       12.03400000000000
C           25.53400000000000       21.38400000000000       10.71300000000000
O           22.06000000000000       24.65500000000000       11.14900000000000
O           20.63000000000000       23.04800000000000        9.98000000000000
C           17.66200000000000       27.10400000000000        7.71300000000000
C           25.40500000000000       20.88100000000000       13.41900000000000
C           27.01500000000000       23.85500000000000        2.95100000000000
C           24.65000000000000       21.55600000000000       14.80000000000000
C           25.00800000000000       19.21900000000000       13.30200000000000
C           27.10400000000000       21.04800000000000       13.56300000000000
C           26.08900000000000       23.64100000000000        1.52500000000000
C           27.85400000000000       25.34600000000000        2.87000000000000
C           28.14200000000000       22.57300000000000        3.09400000000000
C           17.41700000000000       27.85300000000000        9.23400000000000
C           16.32100000000000       26.10000000000000        7.35200000000000
C           17.81100000000000       28.30800000000000        6.50300000000000
H           20.06400000000000       27.19900000000000        5.83500000000000
H           18.28600000000000       24.85300000000000        9.64500000000000
H           24.59300000000000       25.50000000000000        3.31500000000000
H           27.33700000000000       22.15300000000000        5.53300000000000
H           26.42700000000000       20.55000000000000       10.65200000000000
H           23.22100000000000       23.08400000000000       13.25600000000000
C           21.05000000000000       23.89699999999999       11.96200000000000
C           20.17200000000000       22.05000000000000        9.44000000000000
H           18.64800000000000       28.93600000000000        6.72600000000000
H           16.91900000000000       28.89800000000000        6.47500000000000
H           17.96000000000000       27.84100000000000        5.55100000000000
H           16.22600000000000       25.34800000000000        8.10700000000000
H           16.47100000000000       25.63400000000000        6.40100000000000
H           15.43000000000000       26.69200000000000        7.32400000000000
H           17.32400000000000       27.10200000000000        9.99000000000000
H           16.52400000000000       28.44100000000000        9.20300000000000
H           18.25200000000000       28.48400000000000        9.45900000000000
H           25.38500000000000       24.44100000000000        1.43400000000000
H           25.56600000000000       22.70900000000000        1.57600000000000
H           26.73900000000000       23.63900000000000        0.67500000000000
H           27.61799999999999       21.64099999999999        3.14400000000000
H           28.72100000000000       22.70500000000000        3.98400000000000
H           28.79000000000000       22.57100000000000        2.24300000000000
H           27.15000000000000       26.14699999999999        2.78100000000000
H           28.50300000000000       25.34500000000000        2.01900000000000
H           28.43300000000000       25.47800000000000        3.76000000000000
H           27.35500000000000       22.08600000000000       13.63600000000000
H           27.57800000000000       20.62600000000000       12.70200000000000
H           27.44000000000000       20.53700000000000       14.44100000000000
H           23.94700000000000       19.11100000000000       13.21200000000000
H           25.34500000000000       18.70900000000000       14.18100000000000
H           25.48300000000000       18.79799999999999       12.44100000000000
H           23.58800000000000       21.45300000000000       14.71200000000000
H           24.90200000000000       22.59300000000000       14.87300000000000
H           24.98699999999999       21.04400000000000       15.67700000000000
H           19.95400000000000       20.85400000000000        9.70100000000000
H           20.38100000000000       21.60700000000000        8.55200000000000
H           19.16900000000000       21.85500000000000        8.89000000000000
H           20.23700000000000       24.60300000000000       12.55900000000000
H           21.24100000000000       23.69800000000000       13.05000000000000
H           20.41500000000000       23.03400000000000       11.92300000000000
C           23.69800000000000       29.71900000000000       36.26900000000000
C           24.30800000000000       28.80900000000000       37.38000000000000
C           25.74100000000000       29.09900000000000       37.92499999999999
C           26.65300000000000       30.13800000000000       37.19600000000000
C           26.03100000000000       31.07000000000000       36.10900000000000
C           24.54799999999999       30.87800000000000       35.66100000000000
C           26.35000000000000       28.25100000000000       39.20600000000000
C           27.99800000000000       28.26200000000000       39.31799999999999
C           28.88500000000000       29.32800000000000       38.41900000000000
N           28.22500000000000       30.22800000000000       37.48499999999999
C           25.57800000000000       27.54000000000000       40.28400000000000
C           26.35800000000000       26.48800000000000       41.30300000000000
N           27.80700000000000       26.34300000000000       41.32800000000000
C           28.74100000000000       27.26000000000000       40.40100000000000
C           30.24100000000000       27.27300000000000       40.50400000000000
C           31.14500000000000       28.33900000000000       39.61100000000000
C           30.52500000000000       29.32000000000000       38.65100000000000
C           23.97500000000000       27.84700000000000       40.57299999999999
C           23.23100000000000       27.05000000000000       41.60900000000000
C           23.97000000000000       25.86000000000000       42.49400000000000
C           25.44100000000000       25.58600000000000       42.34500000000000
O           23.23100000000000       29.02900000000000       39.84999999999999
O           23.51000000000000       27.56600000000000       37.90699999999999
C           23.86700000000000       31.89300000000000       34.50699999999999
C           23.06500000000000       24.96000000000000       43.59300000000000
C           32.82000000000000       28.34000000000000       39.79400000000000
C           21.48500000000000       25.61000000000000       43.71000000000000
C           22.97800000000000       23.33200000000000       43.06900000000000
C           23.81900000000000       25.02100000000000       45.13000000000000
C           33.56200000000000       28.25100000000000       38.25200000000000
C           33.30600000000000       29.78300000000000       40.58000000000000
C           33.29500000000000       26.99000000000000       40.73300000000000
C           22.43000000000000       32.58000000000000       35.13900000000000
C           23.49300000000000       30.98699999999999       33.10200000000000
C           24.96600000000000       33.14300000000000       34.10099999999999
H           26.71600000000000       31.93900000000000       35.59700000000000
H           22.56300000000000       29.51800000000000       35.86800000000000
H           31.23500000000000       30.10400000000000       38.03700000000000
H           30.79700000000000       26.50000000000000       41.27200000000000
H           25.96500000000000       24.70499999999999       43.01300000000000
H           22.04799999999999       27.29200000000000       41.80899999999999
C           22.02200000000000       28.29200000000000       39.34899999999999
C           23.74600000000000       26.62300000000000       37.16300000000000
H           25.20000000000000       33.71000000000000       34.97799999999999
H           24.52100000000000       33.78500000000000       33.37000000000000
H           25.86200000000000       32.71500000000000       33.70300000000000
H           22.80700000000000       30.20600000000000       33.35400000000000
H           24.39000000000000       30.56000000000000       32.70400000000000
H           23.04900000000000       31.63000000000000       32.37100000000000
H           21.74400000000000       31.80000000000000       35.39300000000000
H           21.98800000000000       33.22000000000000       34.40400000000000
H           22.66300000000000       33.15000000000000       36.01400000000000
H           33.26700000000000       29.09400000000000       37.66400000000000
H           33.25900000000000       27.34900000000000       37.76200000000000
H           34.62600000000000       28.25200000000000       38.36800000000000
H           32.99200000000000       26.08900000000000       40.24199999999999
H           32.83300000000000       27.04400000000000       41.69600000000000
H           34.35900000000000       26.99200000000000       40.84800000000000
H           33.00900000000000       30.62600000000000       39.99299999999999
H           34.37000000000000       29.78500000000000       40.69400000000000
H           32.84300000000000       29.83700000000000       41.54299999999999
H           23.87500000000000       26.03800000000000       45.45999999999999
H           24.80600000000000       24.61500000000000       45.05900000000000
H           23.24800000000000       24.45000000000000       45.83100000000000
H           22.50700000000000       23.29000000000000       42.10899999999999
H           22.40700000000000       22.76100000000000       43.77100000000000
H           23.96600000000000       22.92599999999999       42.99999999999999
H           21.01100000000000       25.57300000000000       42.75099999999999
H           21.54100000000000       26.62700000000000       44.04100000000000
H           20.91400000000000       25.03800000000000       44.41199999999999
H           23.42400000000000       25.43100000000000       37.02100000000000
H           24.61900000000000       26.21300000000000       36.84900000000000
H           23.70000000000000       26.51400000000000       36.00800000000000
H           21.08300000000000       29.01400000000000       39.01700000000000
H           21.19300000000000       28.02900000000000       40.05900000000000
H           21.73700000000000       27.47000000000000       38.72299999999999
C            8.05100000000000        4.40800000000000       10.09100000000000
C            9.28500000000000        4.33300000000000       11.04400000000000
C            9.32000000000000        3.27700000000000       12.19200000000000
C            8.03100000000000        2.46500000000000       12.54000000000000
C            6.81200000000000        2.51500000000000       11.56600000000000
C            6.82900000000000        3.46700000000000       10.33000000000000
C           10.67500000000000        3.07100000000000       13.11600000000000
C           10.40800000000000        2.36000000000000       14.58200000000000
C            8.96400000000000        1.61900000000000       14.89500000000000
N            7.90000000000000        1.63400000000000       13.90200000000000
C           12.09600000000000        3.40200000000000       12.74500000000000
C           13.27300000000000        3.41700000000000       13.91400000000000
N           13.04100000000000        2.94700000000000       15.27200000000000
C           11.62900000000000        2.31800000000000       15.69400000000000
C           11.38400000000000        1.66700000000000       17.02800000000000
C            9.94100000000000        0.91700000000000       17.35600000000000
C            8.81200000000000        0.86600000000000       16.36200000000000
C           12.56400000000000        3.65400000000000       11.17400000000000
C           13.97800000000000        4.06100000000000       10.86700000000000
C           15.10800000000000        4.26400000000000       12.06200000000000
C           14.77700000000000        3.97200000000000       13.49900000000000
O           11.57900000000000        3.38000000000000        9.98000000000000
O           10.46200000000000        5.35800000000000       10.89100000000000
C            5.52700000000000        3.50900000000000        9.26600000000000
C           16.65900000000000        4.78500000000000       11.65700000000000
C            9.73400000000000        0.16700000000000       18.85000000000000
C           16.82300000000000        4.84400000000000        9.95300000000000
C           16.93200000000000        6.34300000000000       12.31400000000000
C           17.80800000000000        3.69000000000000       12.30100000000000
C            8.26600000000000        0.69700000000000       19.55700000000000
C            9.68400000000000       -1.53200000000000       18.63400000000000
C           11.04000000000000        0.57300000000000       19.88200000000000
C            6.09300000000000        3.23100000000000        7.67300000000000
C            4.77900000000000        5.04700000000000        9.34300000000000
C            4.38700000000000        2.30100000000000        9.68500000000000
H            5.83500000000000        1.81800000000000       11.78700000000000
H            8.03800000000000        5.20600000000000        9.16900000000000
H            7.77700000000000        0.27600000000000       16.64400000000000
H           12.27000000000000        1.67500000000000       17.87100000000000
H           15.63100000000000        4.12500000000000       14.36300000000000
H           14.30600000000000        4.24100000000000        9.70200000000000
C           11.72900000000000        4.67400000000000        9.23300000000000
C           10.17300000000000        6.36200000000000       11.52800000000000
H            4.85300000000000        1.33800000000000        9.63700000000000
H            3.56500000000000        2.33300000000000        9.00000000000000
H            4.03000000000000        2.47600000000000       10.67800000000000
H            5.49000000000000        5.80300000000000        9.08200000000000
H            4.42200000000000        5.22100000000000       10.33600000000000
H            3.95700000000000        5.07900000000000        8.65800000000000
H            6.80500000000000        3.98500000000000        7.41100000000000
H            5.26900000000000        3.26600000000000        6.99100000000000
H            6.55700000000000        2.26800000000000        7.62200000000000
H            7.44900000000000        0.44400000000000       18.91400000000000
H            8.29800000000000        1.75800000000000       19.69200000000000
H            8.13400000000000        0.22000000000000       20.50500000000000
H           11.07100000000000        1.63300000000000       20.01700000000000
H           11.95700000000000        0.24200000000000       19.44200000000000
H           10.90600000000000        0.09600000000000       20.83000000000000
H            8.86800000000000       -1.78500000000000       17.98900000000000
H            9.55000000000000       -2.00800000000000       19.58200000000000
H           10.60100000000000       -1.86200000000000       18.19400000000000
H           17.64000000000000        2.71500000000000       11.89200000000000
H           17.70799999999999        3.65200000000000       13.36500000000000
H           18.79500000000000        4.01700000000000       12.04700000000000
H           16.21500000000000        7.02900000000000       11.91400000000000
H           17.91900000000000        6.66900000000000       12.06000000000000
H           16.83200000000000        6.30400000000000       13.37900000000000
H           16.10600000000000        5.52700000000000        9.54900000000000
H           16.65600000000000        3.86900000000000        9.54500000000000
H           17.81000000000000        5.17100000000000        9.70100000000000
H           10.64000000000000        7.48600000000000       11.77700000000000
H            9.88700000000000        6.49100000000000       12.49200000000000
H            9.22300000000000        7.02900000000000       11.53800000000000
H           11.32900000000000        4.64400000000000        8.07000000000000
H           12.64400000000000        4.85800000000000        8.61000000000000
H           11.60400000000000        5.73200000000000        9.34900000000000
C           48.63800000000000       15.16600000000000       11.82300000000000
C           47.26400000000000       14.44600000000000       11.65000000000000
C           46.58600000000000       14.38800000000000       10.24600000000000
C           47.15299999999999       15.25100000000000        9.07400000000000
C           48.54300000000000       15.94300000000000        9.23800000000000
C           49.29699999999999       15.88200000000000       10.60300000000000
C           45.21300000000000       13.50100000000000       10.00300000000000
C           44.32500000000000       13.95300000000000        8.68500000000000
C           44.97699999999999       14.96400000000000        7.55200000000000
N           46.31700000000000       15.50300000000000        7.73200000000000
C           44.73200000000000       12.31900000000000       10.80000000000000
C           43.18300000000000       11.76000000000000       10.59800000000000
N           42.30100000000000       12.24400000000000        9.54500000000000
C           42.81700000000000       13.31400000000000        8.46900000000000
C           42.01199999999999       13.72500000000000        7.26700000000000
C           42.65300000000000       14.73600000000000        6.11900000000000
C           44.04400000000000       15.30300000000000        6.22600000000000
C           45.73300000000000       11.47000000000000       11.81300000000000
C           45.18100000000000       10.34700000000000       12.64800000000000
C           43.58300000000000        9.91500000000000       12.58600000000000
C           42.63600000000000       10.58500000000000       11.62900000000000
O           47.27900000000000       11.75000000000000       11.85000000000000
O           46.53300000000000       13.83400000000000       12.89600000000000
C           50.80499999999999       16.60500000000000       10.77800000000000
C           43.01400000000000        8.69100000000000       13.59500000000000
C           41.72300000000000       15.13200000000000        4.77100000000000
C           44.32800000000000        7.96800000000000       14.42300000000000
C           41.91100000000000        9.34700000000000       14.72900000000000
C           42.21699999999999        7.50500000000000       12.65000000000000
C           41.71500000000000       16.83300000000000        4.56300000000000
C           42.39200000000000       14.39000000000000        3.37900000000000
C           40.11899999999999       14.58000000000000        4.99800000000000
C           51.92100000000000       15.44700000000000       11.36600000000000
C           50.68800000000000       17.89900000000000       11.89500000000000
C           51.34800000000000       17.20600000000000        9.26800000000000
H           49.02999999999999       16.54800000000000        8.29700000000000
H           49.18899999999999       15.18000000000000       12.91100000000000
H           44.47900000000000       16.02300000000000        5.33700000000000
H           40.87700000000000       13.29000000000000        7.12700000000000
H           41.46100000000000       10.24500000000000       11.59800000000000
H           45.93500000000000        9.73000000000000       13.38900000000000
C           47.47000000000000       11.89700000000000       13.33200000000000
C           45.87400000000000       14.72200000000000       13.42000000000000
H           51.42100000000000       16.39900000000000        8.56900000000000
H           52.30899999999999       17.66000000000000        9.39000000000000
H           50.65300000000000       17.93300000000000        8.90200000000000
H           50.34899999999999       17.52600000000000       12.83800000000000
H           49.99400000000000       18.62600000000000       11.52800000000000
H           51.64899999999999       18.35300000000000       12.01500000000000
H           51.58200000000000       15.07100000000000       12.30900000000000
H           52.88000000000000       15.90500000000000       11.48800000000000
H           51.99800000000000       14.64000000000000       10.66700000000000
H           42.71699999999999       17.18000000000000        4.42100000000000
H           41.29700000000000       17.29600000000000        5.43200000000000
H           41.12500000000000       17.08500000000000        3.70700000000000
H           39.70100000000000       15.04400000000000        5.86800000000000
H           40.12200000000000       13.51800000000000        5.12800000000000
H           39.52900000000000       14.83300000000000        4.14200000000000
H           43.39399999999999       14.73500000000000        3.23700000000000
H           41.80200000000000       14.64300000000000        2.52300000000000
H           42.39500000000000       13.32800000000000        3.50900000000000
H           42.90400000000000        7.09400000000000       11.94100000000000
H           41.39600000000000        7.95500000000000       12.13200000000000
H           41.85400000000000        6.72600000000000       13.28800000000000
H           42.40599999999999       10.08800000000000       15.32100000000000
H           41.54800000000000        8.56700000000000       15.36500000000000
H           41.09000000000000        9.79500000000000       14.21000000000000
H           44.82700000000000        8.70700000000000       15.01400000000000
H           45.01400000000000        7.55600000000000       13.71300000000000
H           43.96200000000000        7.18900000000000       15.06000000000000
H           45.13099999999999       14.88900000000000       14.40200000000000
H           45.18100000000000       15.35900000000000       13.04400000000000
H           46.14999999999999       15.79700000000000       13.75900000000000
H           48.63700000000000       11.80200000000000       13.71100000000000
H           47.48600000000000       10.98500000000000       13.98700000000000
H           47.14600000000000       12.48300000000000       14.16900000000000
C           26.54800000000000       18.92400000000000        0.68900000000000
C           26.60500000000000       18.54100000000000        2.20000000000000
C           27.85600000000000       18.91600000000000        3.05300000000000