192
 energy: -249.241389995501 gnorm: 0.083948488480 xtb: 6.7.1 (edcfbbe)
C            0.01300000000000        3.31940000000000       -3.52450000000000
C            2.25830000000000       -1.89650000000000        1.25160000000000
C           -4.23300000000000        1.59150000000000       -1.39030000000000
C           -3.22200000000000        0.83290000000000       -0.80900000000000
C           -1.86960000000000        1.27460000000000       -0.96830000000000
C           -1.58390000000000        2.25740000000000       -1.94910000000000
C           -2.64680000000000        2.98370000000000       -2.49210000000000
C           -3.96620000000000        2.69330000000000       -2.19040000000000
C           -0.78670000000000        0.73470000000000       -0.19520000000000
C            0.52580000000000        0.82510000000000       -0.72240000000000
C            0.79580000000000        1.70420000000000       -1.80130000000000
N           -0.25650000000000        2.43870000000000       -2.37060000000000
C           -0.95610000000000        0.09390000000000        1.08280000000000
C           -0.00020000000000       -0.88360000000000        1.46900000000000
N            1.25770000000000       -0.89060000000000        0.84510000000000
C            1.56270000000000        0.02740000000000       -0.17430000000000
C            2.84290000000000        0.15420000000000       -0.70750000000000
C            3.13810000000000        1.04870000000000       -1.72330000000000
C            2.10980000000000        1.81370000000000       -2.25140000000000
C           -2.03420000000000        0.38090000000000        1.98670000000000
C           -2.33880000000000       -0.57210000000000        2.95620000000000
C           -1.55860000000000       -1.70730000000000        3.14670000000000
C           -0.35960000000000       -1.79960000000000        2.46050000000000
O           -2.78480000000000        1.56810000000000        1.98900000000000
O           -3.45910000000000       -0.36770000000000       -0.14100000000000
H           -5.25580000000000        1.31260000000000       -1.22620000000000
H           -2.43200000000000        3.81140000000000       -3.13860000000000
H           -3.18970000000000       -0.38220000000000        3.58230000000000
H            0.28080000000000       -2.63560000000000        2.66460000000000
H            3.63800000000000       -0.45410000000000       -0.32410000000000
H            2.33710000000000        2.52110000000000       -3.02340000000000
C            2.21000000000000       -3.13230000000000        0.36800000000000
C            3.22280000000000       -4.18650000000000        0.78160000000000
C            0.37110000000000        4.73370000000000       -3.09420000000000
C            0.63130000000000        5.65730000000000       -4.27240000000000
C           -2.08580000000000        2.72380000000000        1.56260000000000
C           -4.81380000000000       -0.66920000000000        0.09220000000000
C           -5.13750000000000        3.52140000000000       -2.73970000000000
C           -6.00480000000000        2.63520000000000       -3.65160000000000
C           -5.98360000000000        4.04130000000000       -1.56190000000000
C           -4.64900000000000        4.73330000000000       -3.55660000000000
C           -1.98320000000000       -2.85810000000000        4.07220000000000
C           -1.92970000000000       -4.18530000000000        3.29060000000000
C           -3.42040000000000       -2.66710000000000        4.58680000000000
C           -1.03190000000000       -2.93330000000000        5.27470000000000
C            4.58320000000000        1.15220000000000       -2.23620000000000
C            4.72440000000000        2.21480000000000       -3.34380000000000
C            5.01510000000000       -0.20940000000000       -2.81120000000000
C            5.51050000000000        1.54160000000000       -1.06980000000000
H            6.03110000000000       -0.16300000000000       -3.20280000000000
H            4.35370000000000       -0.51090000000000       -3.62320000000000
H            4.98680000000000       -0.98860000000000       -2.05050000000000
H            5.75580000000000        2.27650000000000       -3.69050000000000
H            4.44010000000000        3.20200000000000       -2.97970000000000
H            4.10300000000000        1.97000000000000       -4.20500000000000
H            6.54060000000000        1.64740000000000       -1.40960000000000
H            5.49650000000000        0.78910000000000       -0.28240000000000
H            5.20020000000000        2.49010000000000       -0.63190000000000
H           -1.29160000000000       -3.76400000000000        5.93020000000000
H           -1.08870000000000       -2.01890000000000        5.85940000000000
H            0.00060000000000       -3.06320000000000        4.95370000000000
H           -3.72950000000000       -3.51310000000000        5.20000000000000
H           -4.12480000000000       -2.57460000000000        3.76050000000000
H           -3.49390000000000       -1.77590000000000        5.20460000000000
H           -5.49290000000000        5.32240000000000       -3.91540000000000
H           -4.07700000000000        4.41580000000000       -4.42810000000000
H           -4.02340000000000        5.38820000000000       -2.95040000000000
H           -6.81300000000000        4.65260000000000       -1.91690000000000
H           -5.37680000000000        4.65080000000000       -0.89240000000000
H           -6.40100000000000        3.22110000000000       -0.97920000000000
H           -6.83520000000000        3.20260000000000       -4.07150000000000
H           -6.42170000000000        1.79100000000000       -3.10390000000000
H           -5.41430000000000        2.23920000000000       -4.47740000000000
H           -2.27480000000000       -5.01470000000000        3.90760000000000
H           -0.91670000000000       -4.41660000000000        2.96420000000000
H           -2.56410000000000       -4.13520000000000        2.40590000000000
H            2.09970000000000       -2.16380000000000        2.29830000000000
H            3.25710000000000       -1.45540000000000        1.24050000000000
H            2.37190000000000       -2.83300000000000       -0.67580000000000
H            1.19370000000000       -3.54700000000000        0.38710000000000
H            4.24080000000000       -3.79400000000000        0.73670000000000
H            3.18200000000000       -5.06960000000000        0.13980000000000
H            3.05070000000000       -4.51710000000000        1.80800000000000
H           -2.37640000000000        2.97390000000000        0.54360000000000
H           -1.00900000000000        2.56140000000000        1.61220000000000
H           -2.34950000000000        3.56490000000000        2.20190000000000
H           -4.86770000000000       -1.57530000000000        0.69640000000000
H           -5.32620000000000       -0.84380000000000       -0.85440000000000
H           -5.28560000000000        0.14640000000000        0.64020000000000
H           -0.85540000000000        3.32300000000000       -4.18830000000000
H            0.80470000000000        2.88410000000000       -4.13910000000000
H            1.24750000000000        4.69810000000000       -2.43420000000000
H           -0.43590000000000        5.13300000000000       -2.46600000000000
H            1.45480000000000        5.28920000000000       -4.88760000000000
H            0.88700000000000        6.67000000000000       -3.95220000000000
H           -0.24600000000000        5.72870000000000       -4.91850000000000
C           -0.58310000000000        3.44460000000000        4.59630000000000
C            1.88870000000000       -2.49080000000000        8.16840000000000
C           -4.84440000000000        0.87080000000000        5.91570000000000
C           -3.79620000000000        0.19900000000000        6.53840000000000
C           -2.47250000000000        0.72430000000000        6.41440000000000
C           -2.24680000000000        1.79350000000000        5.51320000000000
C           -3.34220000000000        2.41050000000000        4.91010000000000
C           -4.64080000000000        1.98470000000000        5.11450000000000
C           -1.33780000000000        0.12850000000000        7.07410000000000
C           -0.07540000000000        0.23430000000000        6.43280000000000
C            0.11510000000000        1.21360000000000        5.43050000000000
N           -0.92330000000000        2.12090000000000        5.16090000000000
C           -1.41710000000000       -0.65590000000000        8.27640000000000
C           -0.42210000000000       -1.64340000000000        8.50660000000000
N            0.78280000000000       -1.59140000000000        7.78530000000000
C            0.98630000000000       -0.63780000000000        6.77690000000000
C            2.17950000000000       -0.54100000000000        6.06190000000000
C            2.36650000000000        0.38800000000000        5.04880000000000
C            1.33580000000000        1.26900000000000        4.76680000000000
C           -2.43610000000000       -0.48040000000000        9.26910000000000
C           -2.62730000000000       -1.49350000000000       10.20500000000000
C           -1.78150000000000       -2.59030000000000       10.29240000000000
C           -0.66600000000000       -2.62090000000000        9.47460000000000
O           -3.23250000000000        0.67150000000000        9.40320000000000
O           -3.97710000000000       -1.03210000000000        7.17310000000000
H           -5.83500000000000        0.47170000000000        6.00550000000000
H           -3.17040000000000        3.18510000000000        4.19200000000000
H           -3.44300000000000       -1.37670000000000       10.89270000000000
H            0.01410000000000       -3.44530000000000        9.57050000000000
H            2.98030000000000       -1.21490000000000        6.29170000000000
H            1.46960000000000        2.00530000000000        3.99880000000000
C            1.90820000000000       -3.76590000000000        7.33860000000000
C            3.01310000000000       -4.72180000000000        7.75520000000000
C            0.31530000000000        4.24900000000000        5.52630000000000
C            0.69380000000000        5.60200000000000        4.94800000000000
C           -2.54990000000000        1.89270000000000        9.18510000000000
C           -5.30250000000000       -1.32240000000000        7.55210000000000
C           -5.79210000000000        2.61660000000000        4.31760000000000
C           -5.83640000000000        1.96160000000000        2.92650000000000
C           -7.14410000000000        2.40100000000000        5.02610000000000
C           -5.57720000000000        4.13590000000000        4.16170000000000
C           -2.01780000000000       -3.72960000000000       11.29480000000000
C           -2.09310000000000       -5.06670000000000       10.53390000000000
C           -3.33550000000000       -3.54120000000000       12.07100000000000
C           -0.85610000000000       -3.77010000000000       12.30350000000000
C            3.70980000000000        0.49900000000000        4.31090000000000
C            3.50400000000000        1.05420000000000        2.88480000000000
C            4.39010000000000       -0.88110000000000        4.19850000000000
C            4.62660000000000        1.45190000000000        5.09500000000000
H            5.27010000000000       -0.82980000000000        3.55750000000000
H            3.70930000000000       -1.61840000000000        3.77650000000000
H            4.72080000000000       -1.24400000000000        5.17080000000000
H            4.41890000000000        0.97490000000000        2.29810000000000
H            3.22320000000000        2.10650000000000        2.90190000000000
H            2.71980000000000        0.50610000000000        2.36520000000000
H            5.59190000000000        1.56050000000000        4.60090000000000
H            4.80180000000000        1.07800000000000        6.10350000000000
H            4.17560000000000        2.44040000000000        5.17940000000000
H           -1.00580000000000       -4.56030000000000       13.03900000000000
H           -0.77650000000000       -2.82300000000000       12.83660000000000
H            0.09480000000000       -3.95420000000000       11.80490000000000
H           -3.50610000000000       -4.37520000000000       12.75160000000000
H           -4.18580000000000       -3.48950000000000       11.39130000000000
H           -3.31370000000000       -2.63030000000000       12.66860000000000
H           -6.44090000000000        4.60250000000000        3.68830000000000
H           -4.71140000000000        4.35900000000000        3.54030000000000
H           -5.43120000000000        4.60710000000000        5.13340000000000
H           -7.94070000000000        2.93780000000000        4.51100000000000
H           -7.10530000000000        2.76330000000000        6.05320000000000
H           -7.42480000000000        1.34870000000000        5.04270000000000
H           -6.63050000000000        2.38850000000000        2.31450000000000
H           -6.01080000000000        0.88940000000000        3.01190000000000
H           -4.89140000000000        2.10150000000000        2.40280000000000
H           -2.29140000000000       -5.89310000000000       11.21620000000000
H           -1.16050000000000       -5.28200000000000       10.01400000000000
H           -2.89140000000000       -5.04190000000000        9.79240000000000
H            1.81260000000000       -2.72240000000000        9.23400000000000
H            2.83800000000000       -1.95540000000000        8.08630000000000
H            2.01070000000000       -3.50410000000000        6.27760000000000
H            0.92990000000000       -4.25790000000000        7.41410000000000
H            3.99580000000000       -4.25710000000000        7.65350000000000
H            3.01620000000000       -5.63330000000000        7.15280000000000
H            2.90400000000000       -5.01910000000000        8.80010000000000
H           -2.83680000000000        2.60020000000000        9.96340000000000
H           -2.83270000000000        2.30230000000000        8.21580000000000
H           -1.47050000000000        1.74090000000000        9.22270000000000
H           -5.29250000000000       -2.19740000000000        8.20260000000000
H           -5.90730000000000       -1.54420000000000        6.67240000000000
H           -5.71840000000000       -0.47830000000000        8.10380000000000
H           -1.49130000000000        4.01660000000000        4.40310000000000
H           -0.10960000000000        3.30290000000000        3.62190000000000
H            1.21790000000000        3.66910000000000        5.75710000000000
H           -0.19180000000000        4.37200000000000        6.49240000000000
H            1.23160000000000        5.49040000000000        4.00430000000000
H            1.33250000000000        6.17410000000000        5.62510000000000
H           -0.19270000000000        6.20570000000000        4.74340000000000
192
 energy: -249.257157244852 gnorm: 0.038554804897 xtb: 6.7.1 (edcfbbe)
C            0.01014524720646        3.30793175389307       -3.50760738253010
C            2.24452620293415       -1.88841837352340        1.23944749769944
C           -4.23166063758530        1.59219228877841       -1.39830653454306
C           -3.22007428915361        0.84595571865391       -0.81552569001802
C           -1.86742619528399        1.25999743192452       -0.97496687746008
C           -1.58086545446641        2.23758507766036       -1.95974665279528
C           -2.63352457783168        2.98084723517208       -2.49651365565580
C           -3.95907220311869        2.70007625780340       -2.19207945065070
C           -0.78991640353278        0.72548020770554       -0.19795622540678
C            0.52197105164965        0.81498091419671       -0.72836340937989
C            0.79176780650748        1.69695488780304       -1.80234295987191
N           -0.25638924794603        2.43319085839136       -2.36510377854018
C           -0.94880481657569        0.09431457545099        1.07949355086152
C            0.00357571245218       -0.88062644910884        1.46653342645757
N            1.25223519147532       -0.89314324917185        0.83614833358763
C            1.55828703232116        0.01933406096170       -0.18041491092989
C            2.84038079538122        0.14798776465415       -0.70635535922279
C            3.13372654763602        1.05042775732856       -1.72199014638747
C            2.10386113327214        1.81755957120667       -2.25173550540416
C           -2.01179934611748        0.36442246109056        1.97946974403614
C           -2.33051205222125       -0.56794273700099        2.95582466994797
C           -1.56299709527158       -1.71262309755981        3.13532626752941
C           -0.35503584142269       -1.79924206334036        2.45129338414084
O           -2.75388148176077        1.53853190390440        1.96181808865233
O           -3.45416876035171       -0.33322386403364       -0.13851921524713
H           -5.25756671551425        1.31436970526508       -1.23347503587795
H           -2.41538159592508        3.80743071070318       -3.14526898828160
H           -3.18891448728729       -0.36950291591044        3.57397418505452
H            0.29083355301467       -2.63177503898937        2.66546522386937
H            3.63957497295503       -0.45926979885456       -0.32174839740268
H            2.33093278480924        2.52340313947124       -3.02709469120453
C            2.20001347753224       -3.13237882207146        0.35742825417771
C            3.22006385541999       -4.17794384651102        0.78418285195849
C            0.36981848566043        4.73041034936449       -3.08257078549833
C            0.62807803233775        5.64567366376220       -4.27102196240439
C           -2.08462419871652        2.71479093422966        1.55200564193240
C           -4.80259222017734       -0.66081626097983        0.09487592821632
C           -5.12747345794655        3.52261665108384       -2.73843652429600
C           -5.99644109259733        2.63781775749423       -3.64706296043229
C           -5.97601007544145        4.03867004815336       -1.56464874435333
C           -4.65109377248240        4.73132124702937       -3.55502774446507
C           -1.98448455797825       -2.85696618522170        4.05947663738724
C           -1.92800143412293       -4.18212738613778        3.28262135208610
C           -3.41554643376180       -2.67541910286073        4.57197049944878
C           -1.03837002107607       -2.93466437718664        5.26290957404949
C            4.57290877504643        1.15494338819196       -2.23429825066687
C            4.72386522672274        2.21093124974144       -3.33869843681503
C            5.00809005323332       -0.20350664722263       -2.80773136763419
C            5.50245796721391        1.54153844634725       -1.07261821301023
H            6.02411161176065       -0.14826813898218       -3.19648724370735
H            4.34767551396270       -0.50244133652881       -3.61985010079822
H            4.98165763870698       -0.98145888730145       -2.04806949372664
H            5.75874924030529        2.26052261813419       -3.67386094611468
H            4.44459653733066        3.19810820034563       -2.97458628087667
H            4.10813387744236        1.96336371150608       -4.20156837934271
H            6.52928528876540        1.64481727308139       -1.42099881072327
H            5.48977204719510        0.78877517642343       -0.28781949053506
H            5.19177490051445        2.48948202156452       -0.63686347273948
H           -1.30375455257520       -3.76749354523341        5.91253548151701
H           -1.10636337251747       -2.02239790927844        5.84514247567247
H           -0.00553477977557       -3.06132902751930        4.94462291193518
H           -3.71016305591784       -3.52527025708034        5.18589856015115
H           -4.11878045847792       -2.58485483689455        3.74607475645350
H           -3.48135081613859       -1.78964461377954        5.18991010291747
H           -5.50511665522648        5.30881352621423       -3.90523216890425
H           -4.08548223327549        4.41332177743051       -4.42894770068879
H           -4.02900047960808        5.38723686899353       -2.94863214639520
H           -6.80306146766486        4.64708494657280       -1.92817577148077
H           -5.36940509541423        4.64854852441558       -0.89750220763790
H           -6.39294268975860        3.21858484882468       -0.98472497119715
H           -6.82442140024881        3.21092467753926       -4.06233221309981
H           -6.41368942395065        1.79587078055275       -3.09929437425702
H           -5.40594852354524        2.24355342315103       -4.47230900770563
H           -2.27624865396829       -5.00158258992668        3.91010597658137
H           -0.91589451739503       -4.41596439476033        2.96102535603660
H           -2.56329384564303       -4.13053045435701        2.40045925237904
H            2.07052315840305       -2.15461548650710        2.28464392341957
H            3.24285908041067       -1.44530817499068        1.21367412238338
H            2.38077066540681       -2.83474650252260       -0.68067769836734
H            1.19091652647967       -3.55542497965239        0.39287242033061
H            4.23417074458966       -3.78111852432475        0.73385644336597
H            3.17208090913225       -5.05422486670893        0.13923870236901
H            3.04082984760824       -4.50639886383217        1.80802985068594
H           -2.37037321223998        2.98519744419737        0.53411504012396
H           -1.00335727808108        2.58290419275225        1.60317159578806
H           -2.37563237246792        3.53362991678481        2.21378136501661
H           -4.81851992641302       -1.56983844816068        0.69662070583565
H           -5.32879445958067       -0.85145861160317       -0.84641799297635
H           -5.30039261945788        0.13875381235657        0.64929686833721
H           -0.86739326889242        3.31655935639874       -4.16007336909560
H            0.81327391579503        2.87565789523893       -4.11093729588544
H            1.25513096755611        4.69664057395605       -2.43931569427897
H           -0.44371704640557        5.13518374508633       -2.47164817432345
H            1.45355911515673        5.27596562263015       -4.87909388300992
H            0.88198056124318        6.65227326329879       -3.94066297848751
H           -0.25194274433689        5.71661689826177       -4.91010809408212
C           -0.57922491095490        3.42707158092278        4.61124282046384
C            1.87528504545694       -2.48011072436935        8.16298325209567
C           -4.84061768748454        0.87172242432735        5.91011693007320
C           -3.79260042416871        0.22343190041684        6.54628620596379
C           -2.46778094732920        0.71934003365382        6.41292690814934
C           -2.24023786816167        1.77663017717085        5.49919532352971
C           -3.32881170642993        2.40058012420873        4.89424904527296
C           -4.63375520092883        1.97999184830401        5.09956213278525
C           -1.33885493284813        0.12972353542808        7.08051442810981
C           -0.07812676049617        0.23463545744887        6.43559195694217
C            0.11187630913183        1.21584884652291        5.43777253847874
N           -0.92182323311900        2.11967971704223        5.17488626171670
C           -1.40892328578507       -0.64775674637304        8.28068326152879
C           -0.41431457273060       -1.63245992771458        8.51293072220060
N            0.77990829152200       -1.58814681412333        7.78393123056710
C            0.98180742605008       -0.63890625693491        6.77753753313633
C            2.17634604668115       -0.54270830533843        6.06736615668932
C            2.36251271310071        0.39295839584042        5.05454027488520
C            1.32817843554665        1.27465804450712        4.76754812679679
C           -2.42068816990663       -0.49221114252641        9.26252414991315
C           -2.62067548541049       -1.48564103134000       10.20865459701406
C           -1.78460108455378       -2.59035064329684       10.28801825975736
C           -0.65947118500671       -2.61647034139049        9.46995113320268
O           -3.20961577731410        0.64720456339040        9.38224740728971
O           -3.97239059574460       -0.97751179616516        7.21105403720728
H           -5.83448338114232        0.47662772422387        6.01088387738413
H           -3.15771920465756        3.19428645876632        4.19406941527895
H           -3.44133376043785       -1.35726907310609       10.89268032703717
H            0.02394317579436       -3.44106028702534        9.56980799741432
H            2.98052093550063       -1.21646622601970        6.29671762959040
H            1.46135149065166        2.00916321914699        3.99516499452742
C            1.90004241111504       -3.76290231731469        7.33426993956098
C            3.01087114350971       -4.71188570093051        7.76010502124109
C            0.31949149572543        4.23981155248117        5.54190945208233
C            0.68696093262615        5.59184772121130        4.94633550859472
C           -2.55077324470020        1.88326652205672        9.18026607420673
C           -5.29477786092794       -1.30759903029762        7.56388876067366
C           -5.78840252262789        2.61891786816700        4.32474951833095
C           -5.83716236406167        1.96409965377617        2.93587259030824
C           -7.13840767221810        2.40433108953565        5.02692310349492
C           -5.57832405952947        4.13299961991345        4.16481248097976
C           -2.02023120639042       -3.72346350818697       11.28871891362236
C           -2.09319856245063       -5.05991519160856       10.53316734043360
C           -3.33020322270041       -3.54237087676493       12.06791236253114
C           -0.86063725803954       -3.76674794345690       12.29670371121287
C            3.69925193656794        0.49625093403132        4.31369774986072
C            3.50424398961229        1.05407930650602        2.89348389168890
C            4.38627294853135       -0.87521525036139        4.20146206250126
C            4.61802516716001        1.44692178130293        5.09647853168194
H            5.26197724469554       -0.81188094521495        3.55695501607550
H            3.70582486482735       -1.61224730205579        3.78184328113734
H            4.72517402218825       -1.23373780951766        5.17076953927765
H            4.42376471340098        0.96655493406205        2.31674266347336
H            3.23690117022492        2.10794679434295        2.91080878041175
H            2.71753366722168        0.51359931656990        2.37517448092285
H            5.58018864155635        1.55066654144720        4.59630342221069
H            4.79408586363179        1.07223241454200        6.10337688528733
H            4.16766737297034        2.43469796244497        5.17789165206068
H           -1.01741448479041       -4.55813109951111       13.02854373311839
H           -0.78395603964694       -2.82009166293357       12.82873365903860
H            0.08893803266894       -3.95240577550422       11.79948818801308
H           -3.48747816429839       -4.38278331162818       12.74263126610074
H           -4.17935392357031       -3.49270896942433       11.38912738514295
H           -3.30603346748487       -2.63529375514457       12.66848704975967
H           -6.44821779916277        4.58804449973684        3.69371733810206
H           -4.71913806423880        4.35432295814392        3.53672010886382
H           -5.42967838963747        4.60233558790166        5.13583086537810
H           -7.92539786583621        2.94681605288500        4.50498875493979
H           -7.09909198692728        2.76386790540402        6.05359505630393
H           -7.42274900214509        1.35449171874688        5.03542069167906
H           -6.63445100160380        2.39722859106485        2.33232920674928
H           -6.01493660134157        0.89349622960715        3.02641758893510
H           -4.89238381487740        2.10050067306174        2.41555277924514
H           -2.29143728035016       -5.87959539125150       11.22259793164811
H           -1.16123646017710       -5.27530971255029       10.01565144595926
H           -2.89179732361776       -5.03249479603030        9.79420847607882
H            1.78600305131986       -2.71642189723523        9.22689740579396
H            2.82341525859296       -1.94344855995087        8.06443477374218
H            2.02029579861032       -3.50144700118155        6.27842928895361
H            0.92970183603675       -4.26089179503990        7.42309108723056
H            3.98980216634416       -4.24481923636594        7.65261863570396
H            3.00427535082628       -5.61650566078023        7.15298966470673
H            2.89509980039944       -5.00901912447144        8.80227849159514
H           -2.86018740499469        2.56967430311888        9.97276078247488
H           -2.82886639366341        2.31099592958623        8.21410348184462
H           -1.46694827798495        1.75952783027714        9.22243827359987
H           -5.24907110112423       -2.18696716787428        8.20657304569981
H           -5.89672989057337       -1.55257750806983        6.68222225676015
H           -5.74990878697375       -0.48203006962705        8.11667702532178
H           -1.49212674201872        3.99429496928115        4.43335537474603
H           -0.09573686666014        3.29276820927667        3.63794001851253
H            1.22886683386841        3.67058024323796        5.75671969102949
H           -0.19846815545189        4.37988709665690        6.49653310673230
H            1.22685585724507        5.47345087951844        4.00671971706641