      -----------------------------------------------------------      
     |                   =====================                   |     
     |                           x T B                           |     
     |                   =====================                   |     
     |                         S. Grimme                         |     
     |          Mulliken Center for Theoretical Chemistry        |     
     |                    University of Bonn                     |     
      -----------------------------------------------------------      

   * xtb version 6.6.1 (8d0f1dd) compiled by 'runner@Mac-1690902418499.local' on 2023-08-01

   xtb is free software: you can redistribute it and/or modify it under
   the terms of the GNU Lesser General Public License as published by
   the Free Software Foundation, either version 3 of the License, or
   (at your option) any later version.
   
   xtb is distributed in the hope that it will be useful,
   but WITHOUT ANY WARRANTY; without even the implied warranty of
   MERCHANTABILITY or FITNESS FOR A PARTICULAR PURPOSE.  See the
   GNU Lesser General Public License for more details.
   
   Cite this work as:
   * C. Bannwarth, E. Caldeweyher, S. Ehlert, A. Hansen, P. Pracht,
     J. Seibert, S. Spicher, S. Grimme, WIREs Comput. Mol. Sci., 2020, 11,
     e01493. DOI: 10.1002/wcms.1493
   
   for GFN2-xTB:
   * C. Bannwarth, S. Ehlert and S. Grimme., J. Chem. Theory Comput., 2019,
     15, 1652-1671. DOI: 10.1021/acs.jctc.8b01176
   for GFN1-xTB:
   * S. Grimme, C. Bannwarth, P. Shushkov, J. Chem. Theory Comput., 2017,
     13, 1989-2009. DOI: 10.1021/acs.jctc.7b00118
   for GFN0-xTB:
   * P. Pracht, E. Caldeweyher, S. Ehlert, S. Grimme, ChemRxiv, 2019, preprint.
     DOI: 10.26434/chemrxiv.8326202.v1
   for GFN-FF:
   * S. Spicher and S. Grimme, Angew. Chem. Int. Ed., 2020, 59, 15665-15673.
     DOI: 10.1002/anie.202004239
   
   for ALPB and GBSA implicit solvation:
   * S. Ehlert, M. Stahn, S. Spicher, S. Grimme, J. Chem. Theory Comput.,
     2021, 17, 4250-4261. DOI: 10.1021/acs.jctc.1c00471
   
   for DFT-D4:
   * E. Caldeweyher, C. Bannwarth and S. Grimme, J. Chem. Phys., 2017,
     147, 034112. DOI: 10.1063/1.4993215
   * E. Caldeweyher, S. Ehlert, A. Hansen, H. Neugebauer, S. Spicher,
     C. Bannwarth and S. Grimme, J. Chem. Phys., 2019, 150, 154122.
     DOI: 10.1063/1.5090222
   * E. Caldeweyher, J.-M. Mewes, S. Ehlert and S. Grimme, Phys. Chem. Chem. Phys.
     2020, 22, 8499-8512. DOI: 10.1039/D0CP00502A
   
   for sTDA-xTB:
   * S. Grimme and C. Bannwarth, J. Chem. Phys., 2016, 145, 054103.
     DOI: 10.1063/1.4959605
   
   in the mass-spec context:
   * V. Asgeirsson, C. Bauer and S. Grimme, Chem. Sci., 2017, 8, 4879.
     DOI: 10.1039/c7sc00601b
   * J. Koopman and S. Grimme, ACS Omega 2019, 4, 12, 15120-15133.
     DOI: 10.1021/acsomega.9b02011
   
   for metadynamics refer to:
   * S. Grimme, J. Chem. Theory Comput., 2019, 155, 2847-2862
     DOI: 10.1021/acs.jctc.9b00143
   
   for SPH calculations refer to:
   * S. Spicher and S. Grimme, J. Chem. Theory Comput., 2021, 17, 1701-1714
     DOI: 10.1021/acs.jctc.0c01306
   
   with help from (in alphabetical order)
   P. Atkinson, C. Bannwarth, F. Bohle, G. Brandenburg, E. Caldeweyher
   M. Checinski, S. Dohm, S. Ehlert, S. Ehrlich, I. Gerasimov, C. Hölzer
   A. Katbashev, J. Koopman, C. Lavigne, S. Lehtola, F. März, M. Müller,
   F. Musil, H. Neugebauer, J. Pisarek, C. Plett, P. Pracht, F. Pultar,
   J. Seibert, P. Shushkov, S. Spicher, M. Stahn, M. Steiner, T. Strunk,
   J. Stückrath, T. Rose, and J. Unsleber
   
 * started run on 2025/03/14 at 13:05:23.959     

           -------------------------------------------------
          |                Calculation Setup                |
           -------------------------------------------------

          program call               : xtb scoord.19 --md --gfnff --input md_settings.inp
          coordinate file            : scoord.19
          omp threads                :                     8

   ID    Z sym.   atoms
    1    6 C      1-9, 11, 12, 14-21, 24, 25, 34, 35, 38, 41-43, 59-67, 69,
                  70, 72-79, 82, 83, 92, 93, 96, 99-101
    2    7 N      10, 13, 68, 71
    3    8 O      22, 23, 32, 33, 36, 37, 39, 40, 80, 81, 90, 91, 94, 95, 97,
                  98
    4    1 H      26-31, 44-58, 84-89, 102-116

molecular fragmentation (1/2 indicates fragments):
111111111111111111111111111111111111111111111111111111111122222222222222
22222222222222222222222222222222222222222222
# atoms in fragment 1/2:    58    58
 fragment masses (1/2) :      501.47      501.47
CMA distance (Bohr)    :  10.321
constraining FC (au)   :  0.0500
          GFN-FF topology read from file successfully!
           ------------------------------------------------- 
          |                   G F N - F F                   |
          |          A general generic force-field          |
          |                  Version 1.0.3                  | 
           ------------------------------------------------- 
          Number of HB bonds (bound hydrogen)     17802
          Number of HB bonds (unbound hydrogen)   495
          Number of XB bonds                      0

 E+G (total)                   0 d,  0 h,  0 min,  0.002 sec
 distance/D3 list               ...        0 min,  0.000 sec (  0.943%)
 non bonded repulsion           ...        0 min,  0.000 sec (  4.054%)
 dCN                            ...        0 min,  0.000 sec (  6.367%)
 EEQ energy and q               ...        0 min,  0.000 sec ( 11.971%)
 D3                             ...        0 min,  0.000 sec ( 17.889%)
 EEQ gradient                   ...        0 min,  0.000 sec (  2.538%)
 bonds                          ...        0 min,  0.000 sec (  5.469%)
 bend and torsion               ...        0 min,  0.000 sec (  4.099%)
 bonded ATM                     ...        0 min,  0.000 sec (  1.830%)
 HB/XB (incl list setup)        ...        0 min,  0.001 sec ( 44.469%)

         :::::::::::::::::::::::::::::::::::::::::::::::::::::
         ::                     SUMMARY                     ::
         :::::::::::::::::::::::::::::::::::::::::::::::::::::
         :: total energy             -22.926452011514 Eh    ::
         :: gradient norm              0.326689868784 Eh/a0 ::
         ::.................................................::
         :: bond energy              -23.591239020014 Eh    ::
         :: angle energy               0.103311311416 Eh    ::
         :: torsion energy             0.076322521452 Eh    ::
         :: repulsion energy           1.631548831359 Eh    ::
         :: electrostat energy        -0.957415022176 Eh    ::
         :: dispersion energy         -0.152425123746 Eh    ::
         :: HB energy                 -0.007940716287 Eh    ::
         :: XB energy                  0.000000000000 Eh    ::
         :: bonded atm energy         -0.028614793518 Eh    ::
         :: external energy            0.000000000000 Eh    ::
         :: add. restraining           0.000000000000 Eh    ::
         :: total charge              -0.000000000000 e     ::
         :::::::::::::::::::::::::::::::::::::::::::::::::::::

           -------------------------------------------------
          |                Property Printout                |
           -------------------------------------------------

           -------------------------------------------------
          | TOTAL ENERGY              -22.926452011514 Eh   |
          | GRADIENT NORM               0.326689868784 Eh/α |
           -------------------------------------------------
           ------------------------------------------------- 
          |               Molecular Dynamics                |
           ------------------------------------------------- 
 trajectories on xtb.trj or xtb.trj.<n>

 MD time /ps        :   20.00
 dt /fs             :    2.00
 SCC accuracy       :    2.00
 temperature /K     :  345.00
 max steps          : 10000
 block length (av.) :  2500
 dumpstep(trj) /fs  :  500.00   250
 dumpstep(coords)/fs: 1000.00   500
 H atoms mass (amu) :     4
 # deg. of freedom  :   348
 SHAKE off
 Berendsen THERMOSTAT on
         time (ps)    <Epot>      Ekin   <T>   T     Etot
      0    0.00      0.00000   0.3966    0.    0.   -22.52986
est. speed in wall clock h for 100 ps :  0.02
    200    0.40    -22.71817   0.2716  496.  493.   -22.57491
    400    0.80    -22.78754   0.2292  470.  416.   -22.61511
    600    1.20    -22.81587   0.2180  450.  396.   -22.66536
    800    1.60    -22.83392   0.2158  436.  392.   -22.69628
   1000    2.00    -22.84601   0.2020  423.  367.   -22.70317
   1200    2.40    -22.85585   0.2146  414.  389.   -22.71341
   1400    2.80    -22.86329   0.1948  406.  353.   -22.72734
   1600    3.20    -22.86906   0.2057  400.  373.   -22.71221
   1800    3.60    -22.87353   0.2088  394.  379.   -22.71122
   2000    4.00    -22.87744   0.1883  390.  342.   -22.72634
   2200    4.40    -22.88093   0.1983  386.  360.   -22.71775
   2400    4.80    -22.88387   0.1831  383.  332.   -22.74404
block <Epot> / <T> :     -22.89433  382.     drift:  0.99D+02   Tbath : 345.
   2600    5.20    -22.88615   0.1745  380.  317.   -22.72305
   2800    5.60    -22.88801   0.1844  377.  335.   -22.71420
   3000    6.00    -22.88954   0.1856  375.  337.   -22.72956
   3200    6.40    -22.89112   0.1874  373.  340.   -22.72971
   3400    6.80    -22.89250   0.1946  372.  353.   -22.72160
   3600    7.20    -22.89375   0.1777  370.  323.   -22.72797
   3800    7.60    -22.89483   0.1722  369.  312.   -22.72944
   4000    8.00    -22.89578   0.1916  368.  348.   -22.73240
   4200    8.40    -22.89667   0.2023  367.  367.   -22.71849
   4400    8.80    -22.89757   0.1847  366.  335.   -22.72840
   4600    9.20    -22.89833   0.2060  365.  374.   -22.71241
   4800    9.60    -22.89876   0.1990  364.  361.   -22.72639
   5000   10.00    -22.89936   0.2183  363.  396.   -22.70880
block <Epot> / <T> :     -22.91355  345.     drift:  0.99D+02   Tbath : 345.
   5200   10.40    -22.89987   0.1862  362.  338.   -22.72315
   5400   10.80    -22.90051   0.1873  362.  340.   -22.73757
   5600   11.20    -22.90113   0.2054  361.  373.   -22.71770
   5800   11.60    -22.90166   0.1972  361.  358.   -22.72907
   6000   12.00    -22.90216   0.2116  360.  384.   -22.72482
   6200   12.40    -22.90264   0.1896  360.  344.   -22.72986
   6400   12.80    -22.90300   0.1701  359.  309.   -22.73243
   6600   13.20    -22.90344   0.1644  359.  298.   -22.72914
   6800   13.60    -22.90371   0.1936  358.  351.   -22.72286
   7000   14.00    -22.90406   0.1723  358.  313.   -22.73852
   7200   14.40    -22.90432   0.1737  358.  315.   -22.73511
   7400   14.80    -22.90461   0.1830  357.  332.   -22.72472
block <Epot> / <T> :     -22.91550  345.     drift:  0.99D+02   Tbath : 345.
   7600   15.20    -22.90477   0.1841  357.  334.   -22.72753
   7800   15.60    -22.90498   0.1891  357.  343.   -22.71380
   8000   16.00    -22.90519   0.1813  356.  329.   -22.73836
   8200   16.40    -22.90551   0.1942  356.  353.   -22.72451
   8400   16.80    -22.90586   0.1800  356.  327.   -22.73490
   8600   17.20    -22.90614   0.1844  356.  335.   -22.72420
   8800   17.60    -22.90636   0.1813  355.  329.   -22.73193
   9000   18.00    -22.90653   0.1759  355.  319.   -22.72747
   9200   18.40    -22.90679   0.1970  355.  357.   -22.73495
   9400   18.80    -22.90700   0.1957  355.  355.   -22.71812
   9600   19.20    -22.90726   0.1822  355.  331.   -22.73329
   9800   19.60    -22.90745   0.1800  354.  327.   -22.72920
 average properties 
 Epot               :  -22.907668042468973     
 Epot (accurate SCC):  -22.909981755635808     
 Ekin               :  0.19520624580601437     
 Etot               :  -22.712461796662961     
 T                  :   354.26043225259923     
 thermostating problem
 normal exit of md()

------------------------------------------------------------------------
 * finished run on 2025/03/14 at 13:05:39.703     
------------------------------------------------------------------------
 total:
 * wall-time:     0 d,  0 h,  0 min, 15.744 sec
 *  cpu-time:     0 d,  0 h,  0 min, 30.913 sec
 * ratio c/w:     1.964 speedup
 SCF:
 * wall-time:     0 d,  0 h,  0 min,  0.003 sec
 *  cpu-time:     0 d,  0 h,  0 min,  0.005 sec
Note: The following floating-point exceptions are signalling: IEEE_UNDERFLOW_FLAG
normal termination of xtb
 * ratio c/w:     1.779 speedup
 MD:
 * wall-time:     0 d,  0 h,  0 min, 15.734 sec
 *  cpu-time:     0 d,  0 h,  0 min, 30.904 sec
 * ratio c/w:     1.964 speedup

