116
 energy: -22.926452011514 gnorm: 0.326689868784 xtb: 6.6.1 (8d0f1dd)
C           -0.89450938928208        0.09288707905772       -2.01349088374293
C           -1.29236368487885        0.79152279126275       -0.90070198537392
C           -0.44409733406445        0.65808230066793        0.29450137374927
C            0.62836197178517       -0.27705398394797        0.34579897603653
C            0.89574677442325       -0.98054465143699       -0.85024847755151
C            0.21318043379722       -0.75805916613994       -2.02974103963930
C           -0.43731278638463        1.70774953439047        1.28064923756362
C            0.25473111308922        1.37140914262290        2.47045909928209
C            0.97064330623488        0.19726247343393        2.52502351094250
N            1.24536533989246       -0.54588794704056        1.49610221991971
C           -1.05601099772144        2.97957540738809        1.33725989517138
C           -1.56302524560409        3.47605979773297        2.61484272725495
N           -1.12492492311961        2.93223071551415        3.79759196063174
C           -0.15058537368848        2.03474408230412        3.71074968234571
C            0.41132457546101        1.51364939416683        4.89275348620442
C            1.19615917616846        0.41690621379871        4.90532506969473
C            1.57713515435106       -0.15117938176309        3.69340237254405
C           -1.31758279948016        3.82214763540206        0.20654621643808
C           -2.20552068062714        4.89080144565834        0.27267676594967
C           -2.60979973970985        5.36261667942799        1.52408848410218
C           -2.31796662520169        4.59907960628181        2.64052799325494
O           -0.68436632226148        3.40110951253535       -0.95581030534902
O           -2.50531647114858        1.49696443988938       -1.01186591035123
C            0.72326475388814       -1.52369270427135       -3.24473151356968
C           -3.33489710631667        6.63501071694201        1.66078627103382
H            1.54905848363877       -1.87002295938189       -0.84019234788877
H           -1.49645261936717        0.30071899343821       -2.89624419257001
H            2.39276346318795       -0.85799030399329        3.74561057071398
H            0.18229289755241        1.98544474853495        5.85642981370078
H           -2.62395515353752        4.93315078844641        3.64550831811139
H           -2.33016866455445        5.59042770141937       -0.54455032455762
O            1.05651962611047       -2.69191205933654       -3.07570485829294
O            0.64239685967835       -0.92223460873259       -4.48261417047063
C            1.42127535182591       -1.64961224359933       -5.49447923798935
C            1.78482393183329       -0.18777976870153        6.14609543350619
O            2.58464625381786       -1.04421585377898        5.95965758372252
O            1.44278490747850        0.30155582253714        7.33554746051702
C            2.04036127428043       -0.49313331775092        8.34557288236110
O           -3.68305214279651        7.08498430485511        2.74221601774063
O           -3.71084384385375        7.16624508304787        0.42668062788505
C           -4.56316629103897        8.16280534532746        0.72576323803412
C           -1.14778655200303        3.80434399126159       -2.26570793257926
C           -3.31883284607921        1.35425524209865        0.07889714536376
H           -4.60269202427818        8.87658319059728       -0.19612195732708
H           -4.17933116567466        8.67780096963570        1.57714367610628
H           -5.43213570684521        7.58267332304330        0.98248214632705
H            1.60210392963792       -1.50072351668334        8.27124903929215
H            1.99057791340322       -0.13979240710574        9.42391045577061
H            3.13446710886232       -0.56233176065594        8.14554991092150
H           -2.96439495835382        0.41018808567207        0.54510272344591
H           -4.29820688270950        1.47304843784932       -0.22417619009285
H           -3.33935873311022        2.19064438808955        0.80212800302724
H           -0.73403409054993        3.06583351638036       -2.97550225922244
H           -0.84012115859912        4.76958696857195       -2.52213968814807
H           -2.23506196153141        3.69822493696887       -2.39326137888141
H            2.38156342187982       -1.09322404057233       -5.60567925586569
H            0.77125915903843       -1.65589229766160       -6.39731756215340
H            1.57366522284945       -2.60247806741175       -4.98233160106890
C           -0.25664018179370       -3.52376623848244        3.32236211738448
C           -0.64098129139846       -2.91381024088563        4.50826499045572
C           -1.69713757725275       -1.96873582578959        4.42276162554094
C           -2.32034399166698       -1.71316177715321        3.17142589175963
C           -1.97376448826347       -2.42330427027268        2.03658496167601
C           -0.88795208668850       -3.28459558323657        2.09172570989235
C           -2.15818524394673       -1.26692147800085        5.55103451765580
C           -2.98244401526257       -0.16033552490973        5.33046986308559
C           -3.41072647540790        0.10149017852871        3.99636118145299
N           -3.13134914840920       -0.67728093644966        2.97772853506025
C           -1.89745500065311       -1.64832870904326        6.88261539129625
C           -2.06752749449946       -0.53477092602814        7.82433714465426
N           -2.65657051244820        0.72593766860641        7.54599760410311
C           -3.19669466968136        0.82020724590800        6.34648105402446
C           -3.87917936916079        1.97797729409432        6.01657743595190
C           -4.39976667054238        2.22138330272032        4.75823111998355
C           -4.18320456463980        1.21830298104885        3.73248167329657
C           -1.77303156352094       -3.00962634690294        7.42944380414537
C           -1.14829803957453       -3.07648612568724        8.67189426562685
C           -0.78438919517668       -1.89589140998006        9.41459830206013
C           -1.33371858011384       -0.69569765920082        9.01068582584750
O           -2.29855416895559       -4.29066825047069        6.95480761620728
O            0.12078079145308       -3.02755155977424        5.69097942435259
C           -0.32507420964112       -4.08383481943755        0.97371915440303
C            0.00342142652490       -2.07689065150238       10.68496042400495
H           -2.43441696491258       -2.44277049406784        1.07777208759952
H            0.55951172133240       -4.25191260375662        3.41097066442775
H           -4.38498711822936        1.56858345779901        2.76712717168402
H           -3.82385626308846        2.85630393604952        6.66884256628271
H           -1.30427493070434        0.14992037583764        9.68493630984077
H           -0.86065210476170       -4.06393209564408        9.09180132850428
O            0.56294047149226       -4.92132831441743        1.27823684368423
O           -0.76223900657927       -3.87874562427472       -0.25291549433945
C           -0.14983129840478       -4.74838089659809       -1.18253622992242
C           -5.07580112465965        3.55456212422318        4.46073739202438
O           -5.47494122465707        3.72095915818222        3.34687585095335
O           -5.04354109665369        4.50875832098657        5.45248393170982
C           -5.62483587355560        5.62922939165417        4.96987922033840
O           -0.38473589518249       -2.76466763765192       11.62340050649482
O            1.06551897440359       -1.22144705634056       10.80568807578951
C            1.76270228982629       -1.45097549994490       12.06080111543908
C           -1.34468192383765       -5.32014783370660        7.21894101278689
C            1.23709046761516       -3.83262046726557        5.58649576832970
H            1.96050644328763       -2.52718798978239       12.10703999228011
H            1.08392850518527       -1.23391277350344       12.83955614735494
H            2.61583722865188       -0.82241530288348       12.25596146315266
H           -5.29237631107413        5.74080346549238        3.95972669713484
H           -5.22123335429816        6.51178923412244        5.52788223184664
H           -6.69508284291513        5.51554249722586        4.80007811459604
H            0.99298497560525       -4.83651434370619        5.19517767097995
H            1.53629355764506       -3.99622151779976        6.62692272460412
H            2.01772154106281       -3.35725373932373        5.02799035277345
H           -1.59202726901838       -6.12838777208355        8.00663918160334
H           -0.37306811916571       -4.89502680554439        7.33499959831993
H           -1.35106724222236       -5.88402792288508        6.21886384489077
H           -0.12940898377979       -4.10673034897403       -2.05645201190586
H           -0.71547315875349       -5.63046544800987       -1.23322343908836
H            0.81303243949178       -5.17113748259774       -0.89889581460704
116
 energy: -22.855032550707 gnorm: 0.380985295639 xtb: 6.6.1 (8d0f1dd)
C           -0.87475352163605       -0.15389854418383       -1.84824283609582
C           -1.27572538149590        0.62174448871025       -0.68422475816849
C           -0.56450412354853        0.68989350082282        0.57446008390373
C            0.58416976547813       -0.23967448087089        0.62638570455973
C            0.90570605077554       -0.99238625664684       -0.52903150034590
C            0.26096823763317       -0.90300126843869       -1.75215939801450
C           -0.65185037700263        1.71020833647757        1.53395654536224
C            0.00951926143705        1.33418966575625        2.69165417263590
C            0.97112554434881        0.26970571312398        2.79929060637392
N            1.42096445352169       -0.40853607107796        1.67737192203075
C           -1.37081923995752        2.87735810520336        1.50109866178311
C           -1.58838796437349        3.57783015670300        2.66312698018336
N           -1.03773788880437        3.28446706990617        3.84576608313379
C           -0.12667544523206        2.17340327331178        3.87630495903922
C            0.51757974755836        1.69957241512575        5.06031270998609
C            1.33695373493030        0.57845463783536        5.18949148016589
C            1.59461828211963       -0.07363013957738        3.99509521052130
C           -1.56419304208345        3.55320047245166        0.25478446438011
C           -2.61544981955572        4.53923598284858        0.21497875588535
C           -2.94491709950879        5.15595614759674        1.43435794369033
C           -2.29676459240611        4.76233628001915        2.65389815274706
O           -0.75232452723758        3.16363730440620       -0.86626537060161
O           -2.54930594892604        1.17258330697843       -0.70761044005178
C            0.81727263465673       -1.71216193375173       -2.92613252118171
C           -3.83989075565196        6.36159461411110        1.33229088558983
H            1.66016295594595       -1.78071125745888       -0.43526111574171
H           -1.52227472779582       -0.16170682136713       -2.70437865788743
H            2.39625707777381       -0.81464634181067        3.96831272326727
H            0.19956422053907        2.26839011921581        5.96211094714144
H           -2.23804189723062        5.47238880520778        3.48077466496928
H           -2.91326907250138        4.65944227175174       -0.81359063849225
O            1.99162110899580       -1.99893650261115       -2.84554785316821
O            0.03806930486162       -2.09458330359773       -3.95144469201151
C            0.81425532248133       -2.80560410557870       -4.91735963427325
C            2.07799027601389        0.21041780861473        6.41627334965842
O            3.17669488103705       -0.33964574094196        6.38576338161295
O            1.40771338421587        0.47818524823864        7.64107602078981
C            2.14814503859155        0.24461985330503        8.74754671667953
O           -4.03883492149882        7.06459484717589        2.30302984881995
O           -4.09564615184994        6.89006998413963        0.08499786400202
C           -5.03317888882751        7.79622883727122        0.18023614882037
C            0.45294934550675        3.96645199849142       -1.16645424813102
C           -3.60474307097635        0.49202689775710       -0.01337437894504
H           -5.21102596542394        8.16053172354049       -0.83483794966091
H           -4.79874465441229        8.67824340958851        0.76720253525241
H           -5.95843251975665        7.36708682599777        0.53154457453244
H            1.58609273404389       -0.67186922597658        9.21037720735946
H            2.15900294983360        1.09529883288173        9.38687111231433
H            3.21900441073922       -0.00984840955860        8.49447448124747
H           -3.52121207455625        0.34675234873023        1.07327645637119
H           -3.54614545675824       -0.54492853740798       -0.49862766081471
H           -4.52703440395717        0.90015841043671       -0.44489750317918
H            1.20656318663500        3.34298636224811       -1.70431405034619
H            0.86590933569254        4.37243622335951       -0.22902344024778
H            0.04734540007993        4.86517201496866       -1.75442659009760
H            0.51889274400033       -3.87680948106458       -5.09768220329865
H            1.84268845333010       -2.84891968051155       -4.66907990102737
H            0.66157084631994       -2.25093694227487       -5.89647245655451
C           -0.11355300747313       -3.21081927512959        2.82135446102780
C           -0.26546676757184       -2.49796452923467        4.06144429830258
C           -1.45738003758786       -1.66256539978868        4.14903616781278
C           -2.31080633442120       -1.47763525965811        3.00821316697868
C           -2.23747605372673       -2.44346467650156        1.99292943359038
C           -1.07536213355296       -3.21092731972178        1.83102549383826
C           -1.65213665837356       -0.97969833105142        5.37894612186445
C           -2.47582256274832        0.16195212254104        5.18736148444988
C           -3.19530889745148        0.38265755249088        4.00713035132065
N           -3.18379115705809       -0.46776842774930        2.94116227826180
C           -1.29594472670930       -1.40777458910969        6.64339418914910
C           -1.29145705436122       -0.41479569737904        7.59731116297116
N           -1.56662395931240        0.86877584437739        7.28548678290332
C           -2.44706771673871        1.06514666186240        6.23717025418773
C           -3.45419062678752        2.05387595289817        6.25985587549792
C           -4.34910121672352        2.12636513957722        5.16711387107197
C           -4.25748294755991        1.28790549769476        4.06168379569033
C           -1.24766873078861       -2.74787747888656        7.12073145369133
C           -0.80764362921239       -2.95179504741000        8.45026640112790
C           -0.62844842548866       -1.91422425228967        9.31221310242719
C           -0.99944844598088       -0.66802129115924        8.94440192726601
O           -1.61650697673723       -3.78193820528901        6.35091232912675
O            0.54771964139384       -2.59390033792834        5.17852562486599
C           -0.82426544680085       -3.83295418045832        0.50950044264743
C           -0.08565873459672       -2.02794355840711       10.63545723781848
H           -2.79998288295980       -2.20499614703611        1.11025315227274
H            0.73251682291784       -3.89026002788251        2.76866698249724
H           -4.74499970715130        1.50014872222864        3.11940618498935
H           -3.43211704504647        2.94593320635307        6.95617657754776
H           -0.87935146948001        0.14951933613383        9.68569992571558
H           -0.54030523050447       -3.87819026339383        8.84389167371720
O           -0.01843338332793       -4.70754091745456        0.44614025603712
O           -1.51493758683005       -3.44969417723720       -0.55960425267098
C           -0.97206446376589       -4.14229729098890       -1.65093656902906
C           -5.38356778579972        3.24415294636210        4.79219103120598
O           -6.38276357336329        3.10620983933457        4.15682469587840
O           -4.93928054653588        4.45653146136036        5.16622953059959
C           -5.56975007986587        5.57932541819373        4.50155295150797
O            0.29817061793048       -1.07662134056536       11.29363643371640
O            0.06143832584601       -3.29967477659769       11.03667413612894
C            0.74861963826502       -3.27229613934320       12.22111166329075
C           -1.64798054561785       -5.00848327094718        6.99355085692978
C            1.53394449732810       -3.45941737853367        4.92096468029275
H            0.09573435625213       -2.68551336703854       12.95961006581320
H            1.76029724520228       -2.84539723133122       12.01956126096605
H            0.93500127934205       -4.26245805961423       12.65360168905889
H           -6.54940248456636        5.47503908566181        4.91899486364188
H           -5.24922984640065        5.52283267495785        3.45349835366121
H           -5.10658804674912        6.44275207904201        5.19333395739205
H            1.25882192482487       -4.52574124431601        4.67547418800765
H            2.22703151512039       -3.38374001564306        5.86275185310738
H            2.21901498975266       -3.06549540917313        4.13830503054818
H           -2.34483047657531       -4.82934388930605        7.90019472115533
H           -0.61559495574308       -5.41006525861563        7.27406347369117
H           -2.11099525774903       -5.61350184158164        6.27995608878245
H           -1.38927487497436       -3.83865768228734       -2.66681138682756
H           -1.14278528717126       -5.25207282893780       -1.55796713908741
H            0.14228015963064       -3.80650344915429       -1.50045279350898
116
 energy: -22.886932921215 gnorm: 0.354598670747 xtb: 6.6.1 (8d0f1dd)
C           -0.58664412913205       -0.05882633479037       -1.68678352508305
C           -0.94294720250648        0.79100124255290       -0.71871593503375
C           -0.24708768248951        0.71338192853632        0.50979494366478
C            0.76628030315077       -0.24400590852097        0.73062135119583
C            1.01926779289328       -1.16533294973511       -0.31400741199376
C            0.35639643644471       -1.10137921323492       -1.46417176262181
C           -0.32943273638129        1.71482205688096        1.57661931718061
C            0.20526990062612        1.30302874201759        2.86175162462246
C            1.16490276182055        0.31535424741233        2.92052914036392
N            1.59387260736267       -0.26482557955230        1.77678600800522
C           -0.89983233617790        3.04038134377903        1.56872615730280
C           -1.51383885043511        3.47772363751267        2.79129833053321
N           -1.12763379575974        3.09101137941434        4.02972524592000
C           -0.15256775433958        2.14256296354895        3.98522403660987
C            0.51235686375542        1.82454914551742        5.20574692756717
C            1.59779503198084        0.93073432014433        5.22618763337066
C            1.91913085541502        0.26178000645450        4.04186769472859
C           -1.02457347654896        3.87126562147119        0.44336944433981
C           -2.04822816503536        4.77209085024150        0.38861906763150
C           -2.85101999763417        5.01083602704895        1.54407285901012
C           -2.56184150003062        4.40637030762811        2.77537041618050
O           -0.32719853999937        3.75779428504844       -0.71647061005603
O           -2.17680073059935        1.49854464089195       -0.78982096681664
C            0.66810265597723       -2.06066370133042       -2.57008028618329
C           -3.99655775841414        6.00395980451600        1.41469581449906
H            1.67162151797887       -1.98822621454323       -0.15414242669403
H           -1.04628589438121        0.05626851589182       -2.64409668891412
H            2.64884167085575       -0.53093770808456        3.94299821736187
H            0.16152826696964        2.17463882894223        6.20993403454479
H           -2.91064615124110        4.83243982868306        3.67144875972181
H           -2.14019285444680        5.37181470700583       -0.45977021151440
O            1.75538133016451       -2.64327775096037       -2.39711786071711
O           -0.18954699779143       -2.01881288378522       -3.62646328912447
C            0.39359426372465       -2.79841039963542       -4.63448418765561
C            2.33381657177856        0.82537916778007        6.50534572149913
O            3.40408821136527        0.23142836185615        6.63193206887214
O            1.65531295876821        1.49281715282321        7.59659662952003
C            1.90662294070158        0.76775340494794        8.83062871739730
O           -4.98062028125931        5.70202917352482        2.02203111374908
O           -3.94191788449197        7.07763035472631        0.61140870880162
C           -5.21278769758826        7.72392121464581        0.56176171446742
C            1.17644202404807        3.31574924391431       -0.75733267836040
C           -2.99432879509692        1.28127301567503        0.35414631903759
H           -5.69811076462087        7.30233869358383       -0.32094407320725
H           -4.95371376701672        8.79735354489016        0.38471844828180
H           -5.72060744256771        7.57559890657462        1.48595180550004
H            1.13355955529739       -0.08322106141592        8.99800755440631
H            1.88431048985617        1.41530388428732        9.69056260304680
H            2.95360998144074        0.30790886804759        8.72496864787901
H           -3.05139507111906        0.12983027825093        0.56189020240437
H           -3.98532611941169        1.71129913666431        0.18135776952995
H           -2.51069105642042        1.91283971494470        1.11395493419639
H            1.11686455784797        2.49590246596433       -1.48671920838736
H            1.49989073056046        2.83096122134196        0.17395470926778
H            1.74856980059663        4.20819111584855       -1.10558682101760
H            0.72412073926213       -3.73949492582880       -4.15911928405579
H            1.30303009840219       -2.20693586469687       -4.90467933375173
H           -0.32428054651252       -2.88396901709513       -5.41624777189678
C           -0.42713282863894       -3.46897922627187        2.67711499722486
C           -0.42049346879837       -2.54655179730589        3.71037439767018
C           -1.63847423379613       -1.84056333308454        3.90865153921258
C           -2.62871675432707       -1.78199515017625        2.85350128974976
C           -2.52479960588643       -2.66084485738045        1.78897755895832
C           -1.43758746679443       -3.55911808638765        1.71627876531467
C           -1.95162055049525       -1.13635609771885        5.11000648099640
C           -2.99329378000393       -0.22539610561974        5.10185635537960
C           -3.69200696120328       -0.06524321107412        3.89414565040330
N           -3.56398809643855       -0.90729295602508        2.82924388772675
C           -1.32748886895965       -1.45482073278174        6.41299913221680
C           -1.64606407272612       -0.54290091391132        7.46255095188670
N           -2.35256171340752        0.60916357292977        7.32903566959262
C           -3.15608093274053        0.70807513964331        6.19874861144416
C           -3.73215352890249        1.97227851840607        5.89959782926396
C           -4.36081009180476        2.25735762884021        4.68531290989712
C           -4.45017399314281        1.18381354298133        3.75929404684067
C           -0.76650647584690       -2.68250839971585        6.90817344293036
C           -0.33561435374235       -2.81432647828538        8.22453016429290
C           -0.39424690584156       -1.81372737236555        9.20290872590347
C           -1.07316642973873       -0.67515183022033        8.73494316728739
O           -0.80926436062706       -3.74391607182777        6.01621282560108
O            0.67384539972955       -2.28516933060842        4.53526639494480
C           -1.22019826563821       -4.23406803192073        0.38130010880031
C            0.27109394460920       -1.88923767453632       10.49766446635423
H           -3.31395251271199       -2.53341607592706        1.04864754973706
H            0.38890995081681       -4.20023607814777        2.65510586279242
H           -5.05338205510082        1.29381522121002        2.82632472332764
H           -3.67703213486789        2.79264281682716        6.67275387854448
H           -1.06238178191508        0.22088475019888        9.37092935360123
H            0.09090795369512       -3.72023607398767        8.49496530133489
O           -0.17349593737244       -4.76167665599716        0.08459641562326
O           -2.23202005522427       -4.18587770995079       -0.52586911506162
C           -1.85830125553303       -4.49659343532608       -1.84754379313484
C           -5.21714058960200        3.55527803110355        4.58877800118431
O           -6.39091536465405        3.46486500914224        4.20288717241879
O           -4.68064893582737        4.71034088531199        5.16205854301934
C           -5.63016690492773        5.83233324768230        4.84394601050881
O            0.55889598179929       -0.88765008400590       11.12966652440792
O            0.31682501206645       -3.18727965588014       10.99461743517544
C            0.35092408662547       -3.15631694471189       12.42574785346990
C           -1.06629967054481       -5.00410638407805        6.48420049328714
C            1.71782928698232       -3.19803710458100        4.43350291635095
H            0.81477680321503       -2.32289370797144       12.91397044001533
H            0.68358432039731       -4.19930366207177       12.71881792138619
H           -0.66399274982782       -2.98730170545375       12.78479195979055
H           -6.60715994774713        5.53169511718009        5.15596866055784
H           -5.63109332787923        5.86842508702580        3.75466520756231
H           -5.12550692511041        6.73071755157937        5.21824829467225
H            1.37691215873264       -4.25561074474876        4.38221657866026
H            2.32832713921993       -3.15781713694482        5.32072657998196
H            2.34110911439488       -3.10104114194550        3.56807470758767
H           -1.95920059589840       -5.17502345358748        7.03278738784682
H           -0.11475660101118       -5.29333118181674        7.05432802183886
H           -1.16483325989801       -5.65139579422834        5.54221213784979
H           -2.64190871354036       -4.91418093501315       -2.42625558889131
H           -1.05167925361973       -5.21508358013191       -1.64477325622086
H           -1.49133713806905       -3.66260178141376       -2.33008025083409
116
 energy: -22.890035583446 gnorm: 0.355912847021 xtb: 6.6.1 (8d0f1dd)
C           -0.68882521097388       -0.43061648456384       -1.62873410738974
C           -1.37599395122697        0.20595334249635       -0.56370420665787
C           -0.68746626993904        0.40666423393735        0.79062131671802
C            0.31793085256921       -0.54704807109360        1.03356445947151
C            0.91507275700103       -1.28711209399483       -0.01524323722532
C            0.46935047630052       -1.14362179719284       -1.33586538409219
C           -0.77276306995353        1.51159966204419        1.70194533896891
C           -0.20930230017305        1.23380555408250        2.93425190941724
C            0.58431256439966        0.04864825387649        3.19318609947214
N            0.81641638458661       -0.84392090814704        2.23832759109625
C           -1.29329292823433        2.85351178756475        1.64963002005088
C           -1.64906777437192        3.55555366621823        2.86977238741863
N           -1.22887197724451        3.08214138088315        4.04949723790829
C           -0.41502052625975        2.06685598464435        4.05337952203666
C            0.09411210530974        1.78143026051704        5.28827518982945
C            0.93041155942917        0.71724894573980        5.54981270361127
C            1.20145915135148       -0.14755531822723        4.47424100322633
C           -1.39761482165693        3.56684559236765        0.43020124909861
C           -1.97363313247903        4.88187550088970        0.41917187880569
C           -2.52729456382415        5.42393907995630        1.56191612034787
C           -2.33779772031231        4.78437639912028        2.74335576497583
O           -0.97012142961452        2.87904201961788       -0.75099494019086
O           -2.72990172798782        0.54845756129942       -0.79158881833988
C            1.18128469718168       -2.01877024775571       -2.36237032763556
C           -3.15145041909273        6.76572783022683        1.57811199133486
H            1.71389747050081       -1.98130665441774        0.27362776646538
H           -1.12125659855575       -0.36242153640794       -2.59216075647867
H            1.80216075842644       -1.05148192831763        4.70869605085629
H           -0.25718626015242        2.41329848929942        6.06399684664913
H           -2.37372124450298        5.27876296354752        3.65755823958545
H           -2.19644309751013        5.45082826835844       -0.42838446659566
O            2.32628424774343       -2.36795405425046       -2.14008283978095