      -----------------------------------------------------------      
     |                   =====================                   |     
     |                           x T B                           |     
     |                   =====================                   |     
     |                         S. Grimme                         |     
     |          Mulliken Center for Theoretical Chemistry        |     
     |                    University of Bonn                     |     
      -----------------------------------------------------------      

   * xtb version 6.6.1 (8d0f1dd) compiled by 'runner@Mac-1690902418499.local' on 2023-08-01

   xtb is free software: you can redistribute it and/or modify it under
   the terms of the GNU Lesser General Public License as published by
   the Free Software Foundation, either version 3 of the License, or
   (at your option) any later version.
   
   xtb is distributed in the hope that it will be useful,
   but WITHOUT ANY WARRANTY; without even the implied warranty of
   MERCHANTABILITY or FITNESS FOR A PARTICULAR PURPOSE.  See the
   GNU Lesser General Public License for more details.
   
   Cite this work as:
   * C. Bannwarth, E. Caldeweyher, S. Ehlert, A. Hansen, P. Pracht,
     J. Seibert, S. Spicher, S. Grimme, WIREs Comput. Mol. Sci., 2020, 11,
     e01493. DOI: 10.1002/wcms.1493
   
   for GFN2-xTB:
   * C. Bannwarth, S. Ehlert and S. Grimme., J. Chem. Theory Comput., 2019,
     15, 1652-1671. DOI: 10.1021/acs.jctc.8b01176
   for GFN1-xTB:
   * S. Grimme, C. Bannwarth, P. Shushkov, J. Chem. Theory Comput., 2017,
     13, 1989-2009. DOI: 10.1021/acs.jctc.7b00118
   for GFN0-xTB:
   * P. Pracht, E. Caldeweyher, S. Ehlert, S. Grimme, ChemRxiv, 2019, preprint.
     DOI: 10.26434/chemrxiv.8326202.v1
   for GFN-FF:
   * S. Spicher and S. Grimme, Angew. Chem. Int. Ed., 2020, 59, 15665-15673.
     DOI: 10.1002/anie.202004239
   
   for ALPB and GBSA implicit solvation:
   * S. Ehlert, M. Stahn, S. Spicher, S. Grimme, J. Chem. Theory Comput.,
     2021, 17, 4250-4261. DOI: 10.1021/acs.jctc.1c00471
   
   for DFT-D4:
   * E. Caldeweyher, C. Bannwarth and S. Grimme, J. Chem. Phys., 2017,
     147, 034112. DOI: 10.1063/1.4993215
   * E. Caldeweyher, S. Ehlert, A. Hansen, H. Neugebauer, S. Spicher,
     C. Bannwarth and S. Grimme, J. Chem. Phys., 2019, 150, 154122.
     DOI: 10.1063/1.5090222
   * E. Caldeweyher, J.-M. Mewes, S. Ehlert and S. Grimme, Phys. Chem. Chem. Phys.
     2020, 22, 8499-8512. DOI: 10.1039/D0CP00502A
   
   for sTDA-xTB:
   * S. Grimme and C. Bannwarth, J. Chem. Phys., 2016, 145, 054103.
     DOI: 10.1063/1.4959605
   
   in the mass-spec context:
   * V. Asgeirsson, C. Bauer and S. Grimme, Chem. Sci., 2017, 8, 4879.
     DOI: 10.1039/c7sc00601b
   * J. Koopman and S. Grimme, ACS Omega 2019, 4, 12, 15120-15133.
     DOI: 10.1021/acsomega.9b02011
   
   for metadynamics refer to:
   * S. Grimme, J. Chem. Theory Comput., 2019, 155, 2847-2862
     DOI: 10.1021/acs.jctc.9b00143
   
   for SPH calculations refer to:
   * S. Spicher and S. Grimme, J. Chem. Theory Comput., 2021, 17, 1701-1714
     DOI: 10.1021/acs.jctc.0c01306
   
   with help from (in alphabetical order)
   P. Atkinson, C. Bannwarth, F. Bohle, G. Brandenburg, E. Caldeweyher
   M. Checinski, S. Dohm, S. Ehlert, S. Ehrlich, I. Gerasimov, C. Hölzer
   A. Katbashev, J. Koopman, C. Lavigne, S. Lehtola, F. März, M. Müller,
   F. Musil, H. Neugebauer, J. Pisarek, C. Plett, P. Pracht, F. Pultar,
   J. Seibert, P. Shushkov, S. Spicher, M. Stahn, M. Steiner, T. Strunk,
   J. Stückrath, T. Rose, and J. Unsleber
   
 * started run on 2024/11/14 at 15:20:28.843     

           -------------------------------------------------
          |                Calculation Setup                |
           -------------------------------------------------

          program call               : xtb opt_radical_Verdazyl2.mol --gfn2 --sp --chrg -1 --uhf 0
          coordinate file            : opt_radical_Verdazyl2.mol
          omp threads                :                     8

   ID    Z sym.   atoms
    1    6 C      1-26, 41, 44, 48-59
    2    1 H      27-40, 60-70
    3    7 N      42, 43, 45, 46
    4    8 O      47

           -------------------------------------------------
          |                 G F N 2 - x T B                 |
           -------------------------------------------------

        Reference                      10.1021/acs.jctc.8b01176
      * Hamiltonian:
        H0-scaling (s, p, d)           1.850000    2.230000    2.230000
        zeta-weighting                 0.500000
      * Dispersion:
        s8                             2.700000
        a1                             0.520000
        a2                             5.000000
        s9                             5.000000
      * Repulsion:
        kExp                           1.500000    1.000000
        rExp                           1.000000
      * Coulomb:
        alpha                          2.000000
        third order                    shell-resolved
        anisotropic                    true
        a3                             3.000000
        a5                             4.000000
        cn-shift                       1.200000
        cn-exp                         4.000000
        max-rad                        5.000000

q/qsh data taken from xtbrestart
CAMM data taken from xtbrestart

          ...................................................
          :                      SETUP                      :
          :.................................................:
          :  # basis functions                 205          :
          :  # atomic orbitals                 205          :
          :  # shells                          115          :
          :  # electrons                       212          :
          :  max. iterations                   250          :
          :  Hamiltonian                  GFN2-xTB          :
          :  restarted?                       true          :
          :  GBSA solvation                  false          :
          :  PC potential                    false          :
          :  electronic temp.          300.0000000     K    :
          :  accuracy                    1.0000000          :
          :  -> integral cutoff          0.2500000E+02      :
          :  -> integral neglect         0.1000000E-07      :
          :  -> SCF convergence          0.1000000E-05 Eh   :
          :  -> wf. convergence          0.1000000E-03 e    :
          :  Broyden damping             0.4000000          :
          ...................................................

 iter      E             dE          RMSdq      gap      omega  full diag
   1   -116.4238392 -0.116424E+03  0.100E+00    1.51       0.0  T
   2   -115.9994287  0.424410E+00  0.168E+00    0.11       1.0  T
   3   -116.4335078 -0.434079E+00  0.700E-01    1.46       1.0  T
   4   -116.4513508 -0.178430E-01  0.471E-01    1.01       1.0  T
   5   -116.4573015 -0.595063E-02  0.337E-01    0.75       1.0  T
   6   -116.4635576 -0.625617E-02  0.237E-01    0.42       1.0  T
   7   -116.4676179 -0.406033E-02  0.139E-01    0.22       1.0  T
   8   -116.3254171  0.142201E+00  0.940E-01    0.06       1.0  T
   9   -116.4627889 -0.137372E+00  0.210E-01    0.09       1.0  T
  10   -116.4683567 -0.556781E-02  0.103E-01    0.11       1.0  T
  11   -116.4697319 -0.137519E-02  0.479E-02    0.13       1.0  T
  12   -116.4700075 -0.275626E-03  0.233E-02    0.13       1.0  T
  13   -116.4700497 -0.422497E-04  0.161E-02    0.14       1.0  T
  14   -116.4700838 -0.340592E-04  0.683E-03    0.14       1.8  T
  15   -116.4700889 -0.504754E-05  0.377E-03    0.14       3.2  T
  16   -116.4700895 -0.612586E-06  0.324E-03    0.14       3.7  T
  17   -116.4700905 -0.106780E-05  0.193E-03    0.14       6.2  T
  18   -116.4700910 -0.469458E-06  0.882E-04    0.14      13.6  T
  19   -116.4700911 -0.104915E-06  0.341E-04    0.14      35.0  T

   *** convergence criteria satisfied after 19 iterations ***

         #    Occupation            Energy/Eh            Energy/eV
      -------------------------------------------------------------
         1        2.0000           -0.5910530             -16.0834
       ...           ...                  ...                  ...
       100        2.0000           -0.2828665              -7.6972
       101        2.0000           -0.2775425              -7.5523
       102        2.0000           -0.2763992              -7.5212
       103        2.0000           -0.2714566              -7.3867
       104        2.0000           -0.2580476              -7.0218
       105        2.0000           -0.2226414              -6.0584
       106        1.8773           -0.1803441              -4.9074 (HOMO)
       107        0.1167           -0.1751096              -4.7650 (LUMO)
       108        0.0060           -0.1722370              -4.6868
       109                         -0.1510871              -4.1113
       110                         -0.1442848              -3.9262
       111                         -0.1255077              -3.4152
       ...                                ...                  ...
       205                          0.8167791              22.2257
      -------------------------------------------------------------
                  HL-Gap            0.0052345 Eh            0.1424 eV
             Fermi-level           -0.1777522 Eh           -4.8369 eV

 SCC (total)                   0 d,  0 h,  0 min,  0.538 sec
 SCC setup                      ...        0 min,  0.000 sec (  0.033%)
 Dispersion                     ...        0 min,  0.001 sec (  0.100%)
 classical contributions        ...        0 min,  0.000 sec (  0.023%)
 integral evaluation            ...        0 min,  0.003 sec (  0.519%)
 iterations                     ...        0 min,  0.518 sec ( 96.274%)
 molecular gradient             ...        0 min,  0.016 sec (  2.925%)
 printout                       ...        0 min,  0.001 sec (  0.123%)

         :::::::::::::::::::::::::::::::::::::::::::::::::::::
         ::                     SUMMARY                     ::
         :::::::::::::::::::::::::::::::::::::::::::::::::::::
         :: total energy            -114.423096180086 Eh    ::
         :: gradient norm              0.084558341118 Eh/a0 ::
         :: HOMO-LUMO gap              0.142438515366 eV    ::
         ::.................................................::
         :: SCC energy              -116.470091111035 Eh    ::
         :: -> isotropic ES            0.130162126081 Eh    ::
         :: -> anisotropic ES          0.017070315365 Eh    ::
         :: -> anisotropic XC          0.067030684955 Eh    ::
         :: -> dispersion             -0.117125709968 Eh    ::
         :: repulsion energy           2.043788515135 Eh    ::
         :: add. restraining           0.000000000000 Eh    ::
         :: total charge              -0.999999181949 e     ::
         :::::::::::::::::::::::::::::::::::::::::::::::::::::

           -------------------------------------------------
          |                Property Printout                |
           -------------------------------------------------

    * Orbital Energies and Occupations

         #    Occupation            Energy/Eh            Energy/eV
      -------------------------------------------------------------
         1        2.0000           -0.5910530             -16.0834
       ...           ...                  ...                  ...
        94        2.0000           -0.3058474              -8.3225
        95        2.0000           -0.3015795              -8.2064
        96        2.0000           -0.2973047              -8.0901
        97        2.0000           -0.2936053              -7.9894
        98        2.0000           -0.2906883              -7.9100
        99        2.0000           -0.2878141              -7.8318
       100        2.0000           -0.2828665              -7.6972
       101        2.0000           -0.2775425              -7.5523
       102        2.0000           -0.2763992              -7.5212
       103        2.0000           -0.2714566              -7.3867
       104        2.0000           -0.2580476              -7.0218
       105        2.0000           -0.2226414              -6.0584
       106        1.8773           -0.1803441              -4.9074 (HOMO)
       107        0.1167           -0.1751096              -4.7650 (LUMO)
       108        0.0060           -0.1722370              -4.6868
       109                         -0.1510871              -4.1113
       110                         -0.1442848              -3.9262
       111                         -0.1255077              -3.4152
       112                         -0.1174690              -3.1965
       113                         -0.1167024              -3.1756
       114                         -0.1134241              -3.0864
       115                         -0.1046872              -2.8487
       116                         -0.1022330              -2.7819
       117                         -0.0930854              -2.5330
       ...                                ...                  ...
       205                          0.8167791              22.2257
      -------------------------------------------------------------
                  HL-Gap            0.0052345 Eh            0.1424 eV
             Fermi-level           -0.1777522 Eh           -4.8369 eV

     #   Z          covCN         q      C6AA      α(0)
     1   6 C        2.977     0.003    27.959     8.673
     2   6 C        2.980    -0.003    28.094     8.694
     3   6 C        2.978    -0.000    28.024     8.684
     4   6 C        2.990     0.003    27.960     8.674
     5   6 C        2.988    -0.001    28.044     8.687
     6   6 C        2.989     0.005    27.893     8.663
     7   6 C        2.984     0.007    27.865     8.659
     8   6 C        2.983     0.013    27.710     8.635
     9   6 C        2.989     0.002    27.971     8.676
    10   6 C        2.989     0.018    27.589     8.616
    11   6 C        2.919    -0.047    29.179     8.858
    12   6 C        2.918    -0.048    29.185     8.859
    13   6 C        2.917    -0.045    29.111     8.848
    14   6 C        2.918    -0.043    29.060     8.840
    15   6 C        2.917    -0.046    29.153     8.854
    16   6 C        2.918    -0.038    28.942     8.822
    17   6 C        2.914    -0.043    29.079     8.843
    18   6 C        2.915    -0.031    28.778     8.797
    19   6 C        2.930    -0.039    28.965     8.826
    20   6 C        2.920    -0.034    28.840     8.807
    21   6 C        2.921    -0.045    29.110     8.848
    22   6 C        2.922    -0.029    28.734     8.790
    23   6 C        2.987     0.004    27.917     8.667
    24   6 C        2.918    -0.032    28.808     8.801
    25   6 C        2.918    -0.034    28.846     8.807
    26   6 C        2.916    -0.029    28.728     8.789
    27   1 H        0.926     0.011     2.881     2.654
    28   1 H        0.926     0.011     2.870     2.649
    29   1 H        0.926     0.010     2.886     2.657
    30   1 H        0.926     0.015     2.809     2.621
    31   1 H        0.926     0.009     2.905     2.665
    32   1 H        0.926     0.020     2.736     2.587
    33   1 H        0.926     0.011     2.867     2.648
    34   1 H        0.926     0.027     2.631     2.537
    35   1 H        0.926     0.057     2.240     2.340
    36   1 H        0.926     0.024     2.668     2.554
    37   1 H        0.926     0.013     2.843     2.637
    38   1 H        0.925     0.025     2.659     2.550
    39   1 H        0.926     0.017     2.785     2.610
    40   1 H        0.926     0.022     2.709     2.574
    41   6 C        2.877     0.155    24.635     8.137
    42   7 N        1.928    -0.335    29.529     8.057
    43   7 N        2.849    -0.006    21.366     6.865
    44   6 C        2.701     0.304    21.835     7.648
    45   7 N        2.846    -0.003    21.311     6.856
    46   7 N        1.932    -0.344    29.775     8.091
    47   8 O        0.858    -0.485    23.450     6.493
    48   6 C        2.930     0.067    26.507     8.443
    49   6 C        2.919    -0.052    29.290     8.875
    50   6 C        2.921    -0.037    28.931     8.821
    51   6 C        2.918    -0.051    29.269     8.872
    52   6 C        2.920    -0.035    28.870     8.811
    53   6 C        2.925    -0.044    29.104     8.847
    54   6 C        2.931     0.067    26.509     8.444
    55   6 C        2.924    -0.045    29.121     8.850
    56   6 C        2.920    -0.037    28.924     8.819
    57   6 C        2.919    -0.051    29.274     8.872
    58   6 C        2.922    -0.037    28.911     8.817
    59   6 C        2.919    -0.048    29.180     8.858
    60   1 H        0.926     0.046     2.376     2.410
    61   1 H        0.926     0.010     2.887     2.657
    62   1 H        0.926     0.004     2.994     2.706
    63   1 H        0.926     0.011     2.871     2.650
    64   1 H        0.926     0.047     2.355     2.400
    65   1 H        0.926     0.050     2.315     2.379
    66   1 H        0.926     0.009     2.902     2.664
    67   1 H        0.926     0.003     3.012     2.714
    68   1 H        0.926     0.010     2.884     2.656
    69   1 H        0.926     0.045     2.383     2.414
    70   1 H        0.926     0.042     2.422     2.433

 Mol. C6AA /au·bohr⁶  :      77645.663460
 Mol. C8AA /au·bohr⁸  :    1967008.631427
 Mol. α(0) /au        :        449.559879


Wiberg/Mayer (AO) data.
largest (>0.10) Wiberg bond orders for each atom

 ---------------------------------------------------------------------------
     #   Z sym  total        # sym  WBO       # sym  WBO       # sym  WBO
 ---------------------------------------------------------------------------
     1   6 C    3.984 --     4 C    1.297     2 C    1.220     3 C    1.212
     2   6 C    3.942 --     5 C    1.307     1 C    1.220     7 C    1.177
     3   6 C    3.949 --     6 C    1.312     1 C    1.212     8 C    1.179
     4   6 C    3.979 --     1 C    1.297    12 C    1.249    11 C    1.246
     5   6 C    3.969 --     2 C    1.307    13 C    1.252    15 C    1.227
     6   6 C    3.974 --     3 C    1.312    14 C    1.255    16 C    1.222
     7   6 C    3.987 --    19 C    1.330     9 C    1.267     2 C    1.177
     8   6 C    3.987 --    20 C    1.312    10 C    1.277     3 C    1.179
     9   6 C    3.981 --    21 C    1.299     7 C    1.267    17 C    1.226
    10   6 C    3.986 --    22 C    1.308     8 C    1.277    18 C    1.216
    11   6 C    3.953 --    13 C    1.581     4 C    1.246    27 H    0.968
    12   6 C    3.950 --    14 C    1.575     4 C    1.249    28 H    0.968
    13   6 C    3.968 --    11 C    1.581     5 C    1.252    29 H    0.968
    14   6 C    3.962 --    12 C    1.575     6 C    1.255    30 H    0.968
    15   6 C    3.974 --    17 C    1.610     5 C    1.227    31 H    0.968
    16   6 C    3.987 --    18 C    1.625     6 C    1.222    32 H    0.967
    17   6 C    3.961 --    15 C    1.610     9 C    1.226    33 H    0.968
    18   6 C    3.971 --    16 C    1.625    10 C    1.216    34 H    0.967
    19   6 C    3.971 --    23 C    1.444     7 C    1.330    35 H    0.954
    20   6 C    3.981 --    24 C    1.517     8 C    1.312    36 H    0.965
                            22 C    0.108
    21   6 C    3.973 --    25 C    1.531     9 C    1.299    37 H    0.969
    22   6 C    3.977 --    26 C    1.519    10 C    1.308    38 H    0.968
                            20 C    0.108
    23   6 C    3.975 --    19 C    1.444    25 C    1.308    41 C    1.041
    24   6 C    3.984 --    20 C    1.517    26 C    1.351    39 H    0.971
    25   6 C    3.974 --    21 C    1.531    23 C    1.308    70 H    0.967
    26   6 C    3.979 --    22 C    1.519    24 C    1.351    40 H    0.971
    27   1 H    0.999 --    11 C    0.968
    28   1 H    0.999 --    12 C    0.968
    29   1 H    0.998 --    13 C    0.968
    30   1 H    0.999 --    14 C    0.968
    31   1 H    0.999 --    15 C    0.968
    32   1 H    0.998 --    16 C    0.967
    33   1 H    0.998 --    17 C    0.968
    34   1 H    0.998 --    18 C    0.967
    35   1 H    0.996 --    19 C    0.954
    36   1 H    0.999 --    20 C    0.965
    37   1 H    0.999 --    21 C    0.969
    38   1 H    0.999 --    22 C    0.968
    39   1 H    0.999 --    24 C    0.971
    40   1 H    0.999 --    26 C    0.971
    41   6 C    3.972 --    46 N    1.393    42 N    1.391    23 C    1.041
Note: The following floating-point exceptions are signalling: IEEE_UNDERFLOW_FLAG
normal termination of xtb
    42   7 N    2.787 --    41 C    1.391    43 N    1.043    46 N    0.163
    43   7 N    3.539 --    44 C    1.106    54 C    1.074    42 N    1.043
                            47 O    0.120
    44   6 C    3.958 --    47 O    1.598    45 N    1.113    43 N    1.106
    45   7 N    3.552 --    44 C    1.113    48 C    1.080    46 N    1.042
                            47 O    0.120
    46   7 N    2.798 --    41 C    1.393    45 N    1.042    42 N    0.163
    47   8 O    1.956 --    44 C    1.598    45 N    0.120    43 N    0.120
    48   6 C    3.957 --    49 C    1.350    53 C    1.337    45 N    1.080
    49   6 C    3.975 --    50 C    1.461    48 C    1.350    65 H    0.964
    50   6 C    3.988 --    49 C    1.461    51 C    1.421    66 H    0.972
                            53 C    0.100
    51   6 C    3.960 --    50 C    1.421    52 C    1.413    67 H    0.973
    52   6 C    3.989 --    53 C    1.473    51 C    1.413    68 H    0.972
    53   6 C    3.976 --    52 C    1.473    48 C    1.337    69 H    0.965
                            50 C    0.100
    54   6 C    3.957 --    59 C    1.353    55 C    1.343    43 N    1.074
    55   6 C    3.975 --    56 C    1.471    54 C    1.343    60 H    0.966
                            58 C    0.101
    56   6 C    3.989 --    55 C    1.471    57 C    1.413    61 H    0.972
                            59 C    0.100
    57   6 C    3.958 --    58 C    1.421    56 C    1.413    62 H    0.973
    58   6 C    3.988 --    59 C    1.461    57 C    1.421    63 H    0.972
                            55 C    0.101
    59   6 C    3.975 --    58 C    1.461    54 C    1.353    64 H    0.966
                            56 C    0.100
    60   1 H    0.998 --    55 C    0.966
    61   1 H    0.999 --    56 C    0.972
    62   1 H    1.000 --    57 C    0.973
    63   1 H    0.999 --    58 C    0.972
    64   1 H    0.998 --    59 C    0.966
    65   1 H    0.997 --    49 C    0.964
    66   1 H    0.999 --    50 C    0.972
    67   1 H    1.000 --    51 C    0.973
    68   1 H    0.999 --    52 C    0.972
    69   1 H    0.998 --    53 C    0.965
    70   1 H    0.997 --    25 C    0.967
 ---------------------------------------------------------------------------

Topologies differ in bond orders
Writing corrected topology to xtbtopo.mol

molecular dipole:
                 x           y           z       tot (Debye)
 q only:       -1.777       1.375       0.694
   full:       -1.709       1.256       0.709       5.683
molecular quadrupole (traceless):
                xx          xy          yy          xz          yz          zz
 q only:      -26.352      22.417      -3.122      -5.379      11.621      29.474
  q+dip:      -19.233      23.806       1.408      -0.876       3.445      17.825
   full:      -25.670      21.918      -1.754      -3.887      10.188      27.424


           -------------------------------------------------
          | TOTAL ENERGY             -114.423096180086 Eh   |
          | GRADIENT NORM               0.084558341118 Eh/α |
          | HOMO-LUMO GAP               0.142438515366 eV   |
           -------------------------------------------------
########################################################################
[WARNING] Runtime exception occurred
-2- restart_readRestart: Multiplicity missmatch in restart file.
-1- restart_readRestart: Number of electron missmatch in restart file.
########################################################################

------------------------------------------------------------------------
 * finished run on 2024/11/14 at 15:20:29.391     
------------------------------------------------------------------------
 total:
 * wall-time:     0 d,  0 h,  0 min,  0.547 sec
 *  cpu-time:     0 d,  0 h,  0 min,  1.679 sec
 * ratio c/w:     3.070 speedup
 SCF:
 * wall-time:     0 d,  0 h,  0 min,  0.538 sec
 *  cpu-time:     0 d,  0 h,  0 min,  1.662 sec
 * ratio c/w:     3.091 speedup

