      -----------------------------------------------------------      
     |                   =====================                   |     
     |                           x T B                           |     
     |                   =====================                   |     
     |                         S. Grimme                         |     
     |          Mulliken Center for Theoretical Chemistry        |     
     |                    University of Bonn                     |     
      -----------------------------------------------------------      

   * xtb version 6.6.1 (8d0f1dd) compiled by 'runner@Mac-1690902418499.local' on 2023-08-01

   xtb is free software: you can redistribute it and/or modify it under
   the terms of the GNU Lesser General Public License as published by
   the Free Software Foundation, either version 3 of the License, or
   (at your option) any later version.
   
   xtb is distributed in the hope that it will be useful,
   but WITHOUT ANY WARRANTY; without even the implied warranty of
   MERCHANTABILITY or FITNESS FOR A PARTICULAR PURPOSE.  See the
   GNU Lesser General Public License for more details.
   
   Cite this work as:
   * C. Bannwarth, E. Caldeweyher, S. Ehlert, A. Hansen, P. Pracht,
     J. Seibert, S. Spicher, S. Grimme, WIREs Comput. Mol. Sci., 2020, 11,
     e01493. DOI: 10.1002/wcms.1493
   
   for GFN2-xTB:
   * C. Bannwarth, S. Ehlert and S. Grimme., J. Chem. Theory Comput., 2019,
     15, 1652-1671. DOI: 10.1021/acs.jctc.8b01176
   for GFN1-xTB:
   * S. Grimme, C. Bannwarth, P. Shushkov, J. Chem. Theory Comput., 2017,
     13, 1989-2009. DOI: 10.1021/acs.jctc.7b00118
   for GFN0-xTB:
   * P. Pracht, E. Caldeweyher, S. Ehlert, S. Grimme, ChemRxiv, 2019, preprint.
     DOI: 10.26434/chemrxiv.8326202.v1
   for GFN-FF:
   * S. Spicher and S. Grimme, Angew. Chem. Int. Ed., 2020, 59, 15665-15673.
     DOI: 10.1002/anie.202004239
   
   for ALPB and GBSA implicit solvation:
   * S. Ehlert, M. Stahn, S. Spicher, S. Grimme, J. Chem. Theory Comput.,
     2021, 17, 4250-4261. DOI: 10.1021/acs.jctc.1c00471
   
   for DFT-D4:
   * E. Caldeweyher, C. Bannwarth and S. Grimme, J. Chem. Phys., 2017,
     147, 034112. DOI: 10.1063/1.4993215
   * E. Caldeweyher, S. Ehlert, A. Hansen, H. Neugebauer, S. Spicher,
     C. Bannwarth and S. Grimme, J. Chem. Phys., 2019, 150, 154122.
     DOI: 10.1063/1.5090222
   * E. Caldeweyher, J.-M. Mewes, S. Ehlert and S. Grimme, Phys. Chem. Chem. Phys.
     2020, 22, 8499-8512. DOI: 10.1039/D0CP00502A
   
   for sTDA-xTB:
   * S. Grimme and C. Bannwarth, J. Chem. Phys., 2016, 145, 054103.
     DOI: 10.1063/1.4959605
   
   in the mass-spec context:
   * V. Asgeirsson, C. Bauer and S. Grimme, Chem. Sci., 2017, 8, 4879.
     DOI: 10.1039/c7sc00601b
   * J. Koopman and S. Grimme, ACS Omega 2019, 4, 12, 15120-15133.
     DOI: 10.1021/acsomega.9b02011
   
   for metadynamics refer to:
   * S. Grimme, J. Chem. Theory Comput., 2019, 155, 2847-2862
     DOI: 10.1021/acs.jctc.9b00143
   
   for SPH calculations refer to:
   * S. Spicher and S. Grimme, J. Chem. Theory Comput., 2021, 17, 1701-1714
     DOI: 10.1021/acs.jctc.0c01306
   
   with help from (in alphabetical order)
   P. Atkinson, C. Bannwarth, F. Bohle, G. Brandenburg, E. Caldeweyher
   M. Checinski, S. Dohm, S. Ehlert, S. Ehrlich, I. Gerasimov, C. Hölzer
   A. Katbashev, J. Koopman, C. Lavigne, S. Lehtola, F. März, M. Müller,
   F. Musil, H. Neugebauer, J. Pisarek, C. Plett, P. Pracht, F. Pultar,
   J. Seibert, P. Shushkov, S. Spicher, M. Stahn, M. Steiner, T. Strunk,
   J. Stückrath, T. Rose, and J. Unsleber
   
 * started run on 2024/11/14 at 15:18:05.555     

           -------------------------------------------------
          |                Calculation Setup                |
           -------------------------------------------------

          program call               : xtb Verdazyl2.mol --opt --gfn2 --chrg -1 --uhf 0 --tight
          coordinate file            : Verdazyl2.mol
          omp threads                :                     8

   ID    Z sym.   atoms
    1    6 C      1-26, 41, 44, 48-59
    2    1 H      27-40, 60-70
    3    7 N      42, 43, 45, 46
    4    8 O      47
########################################################################
[WARNING] Please study the warnings concerning your input carefully
-1- prog_main_parseArguments: Unknown option '--tight' provided
########################################################################

           -------------------------------------------------
          |                 G F N 2 - x T B                 |
           -------------------------------------------------

        Reference                      10.1021/acs.jctc.8b01176
      * Hamiltonian:
        H0-scaling (s, p, d)           1.850000    2.230000    2.230000
        zeta-weighting                 0.500000
      * Dispersion:
        s8                             2.700000
        a1                             0.520000
        a2                             5.000000
        s9                             5.000000
      * Repulsion:
        kExp                           1.500000    1.000000
        rExp                           1.000000
      * Coulomb:
        alpha                          2.000000
        third order                    shell-resolved
        anisotropic                    true
        a3                             3.000000
        a5                             4.000000
        cn-shift                       1.200000
        cn-exp                         4.000000
        max-rad                        5.000000

q/qsh data taken from xtbrestart
CAMM data taken from xtbrestart

          ...................................................
          :                      SETUP                      :
          :.................................................:
          :  # basis functions                 205          :
          :  # atomic orbitals                 205          :
          :  # shells                          115          :
          :  # electrons                       212          :
          :  max. iterations                   250          :
          :  Hamiltonian                  GFN2-xTB          :
          :  restarted?                       true          :
          :  GBSA solvation                  false          :
          :  PC potential                    false          :
          :  electronic temp.          300.0000000     K    :
          :  accuracy                    1.0000000          :
          :  -> integral cutoff          0.2500000E+02      :
          :  -> integral neglect         0.1000000E-07      :
          :  -> SCF convergence          0.1000000E-05 Eh   :
          :  -> wf. convergence          0.1000000E-03 e    :
          :  Broyden damping             0.4000000          :
          ...................................................

 iter      E             dE          RMSdq      gap      omega  full diag
   1   -116.2307045 -0.116231E+03  0.345E+00    1.41       0.0  T
   2   -115.7864834  0.444221E+00  0.266E+00    0.09       1.0  T
   3   -115.9436736 -0.157190E+00  0.209E+00    0.65       1.0  T
   4   -116.1883140 -0.244640E+00  0.121E+00    1.57       1.0  T
   5   -116.2185475 -0.302335E-01  0.851E-01    1.77       1.0  T
   6   -116.2504331 -0.318856E-01  0.641E-01    1.50       1.0  T
   7   -116.2633221 -0.128891E-01  0.527E-01    1.15       1.0  T
   8   -116.2712810 -0.795888E-02  0.422E-01    0.75       1.0  T
   9   -116.2163703  0.549107E-01  0.685E-01    0.02       1.0  T
  10   -116.2803649 -0.639946E-01  0.272E-01    0.25       1.0  T
  11   -115.9421570  0.338208E+00  0.145E+00    0.08       1.0  T
  12   -116.2821923 -0.340035E+00  0.238E-01    0.21       1.0  T
  13   -116.2870999 -0.490765E-02  0.156E-01    0.15       1.0  T
  14   -116.2869396  0.160318E-03  0.160E-01    0.15       1.0  T
  15   -116.2875993 -0.659678E-03  0.146E-01    0.15       1.0  T
  16   -116.2889948 -0.139553E-02  0.112E-01    0.13       1.0  T
  17   -116.2896111 -0.616270E-03  0.941E-02    0.13       1.0  T
  18   -116.2906146 -0.100348E-02  0.522E-02    0.12       1.0  T
  19   -116.2907666 -0.152051E-03  0.429E-02    0.11       1.0  T
  20   -116.2910662 -0.299550E-03  0.383E-03    0.10       3.1  T
  21   -116.2910620  0.422788E-05  0.603E-03    0.10       2.0  T
  22   -116.2910668 -0.489105E-05  0.193E-03    0.10       6.2  T
  23   -116.2910661  0.735983E-06  0.285E-03    0.10       4.2  T
  24   -116.2910672 -0.108903E-05  0.121E-03    0.10       9.9  T
  25   -116.2910673 -0.120359E-06  0.865E-04    0.10      13.8  T
  26   -116.2910674 -0.112639E-06  0.225E-04    0.10      53.2  T

   *** convergence criteria satisfied after 26 iterations ***

         #    Occupation            Energy/Eh            Energy/eV
      -------------------------------------------------------------
         1        2.0000           -0.5930747             -16.1384
       ...           ...                  ...                  ...
       100        2.0000           -0.2809260              -7.6444
       101        2.0000           -0.2754170              -7.4945
       102        2.0000           -0.2749935              -7.4830
       103        2.0000           -0.2681617              -7.2971
       104        2.0000           -0.2607588              -7.0956
       105        2.0000           -0.2200784              -5.9886
       106        1.7452           -0.1826129              -4.9691 (HOMO)
       107        0.2350           -0.1788692              -4.8673 (LUMO)
       108        0.0198           -0.1764115              -4.8004
       109                         -0.1564455              -4.2571
       110                         -0.1508657              -4.1053
       111                         -0.1359017              -3.6981
       ...                                ...                  ...
       205                          0.8122503              22.1025
      -------------------------------------------------------------
                  HL-Gap            0.0037436 Eh            0.1019 eV
             Fermi-level           -0.1807849 Eh           -4.9194 eV

 SCC (total)                   0 d,  0 h,  0 min,  1.268 sec
 SCC setup                      ...        0 min,  0.000 sec (  0.015%)
 Dispersion                     ...        0 min,  0.001 sec (  0.042%)
 classical contributions        ...        0 min,  0.000 sec (  0.010%)
 integral evaluation            ...        0 min,  0.003 sec (  0.208%)
 iterations                     ...        0 min,  1.252 sec ( 98.670%)
 molecular gradient             ...        0 min,  0.013 sec (  1.021%)
 printout                       ...        0 min,  0.000 sec (  0.032%)

         :::::::::::::::::::::::::::::::::::::::::::::::::::::
         ::                     SUMMARY                     ::
         :::::::::::::::::::::::::::::::::::::::::::::::::::::
         :: total energy            -114.357996736934 Eh    ::
         :: gradient norm              0.203255654472 Eh/a0 ::
         :: HOMO-LUMO gap              0.101869004290 eV    ::
         ::.................................................::
         :: SCC energy              -116.291067427755 Eh    ::
         :: -> isotropic ES            0.129671546443 Eh    ::
         :: -> anisotropic ES          0.020010886762 Eh    ::
         :: -> anisotropic XC          0.070410539470 Eh    ::
         :: -> dispersion             -0.107737739435 Eh    ::
         :: repulsion energy           1.931275716621 Eh    ::
         :: add. restraining           0.000000000000 Eh    ::
         :: total charge              -0.999999984051 e     ::
         :::::::::::::::::::::::::::::::::::::::::::::::::::::

      ----------------------------------------------------------- 
     |                   =====================                   |
     |                        A N C O P T                        |
     |                   =====================                   |
     |               Approximate Normal Coordinate               |
     |                Rational Function Optimizer                |
      ----------------------------------------------------------- 

          ...................................................
          :                      SETUP                      :
          :.................................................:
          :   optimization level            normal          :
          :   max. optcycles                   210          :
          :   ANC micro-cycles                  20          :
          :   degrees of freedom               204          :
          :.................................................:
          :   RF solver                   davidson          :
          :   write xtbopt.log                true          :
          :   linear?                        false          :
          :   energy convergence         0.5000000E-05 Eh   :
          :   grad. convergence          0.1000000E-02 Eh/α :
          :   maxmium RF displ.          1.0000000          :
          :   Hlow (freq-cutoff)         0.1000000E-01      :
          :   Hmax (freq-cutoff)         5.0000000          :
          :   S6 in model hess.         20.0000000          :
          ...................................................

generating ANC from model Hessian ...
Using Lindh-Hessian (1995)
 Shifting diagonal of input Hessian by    9.9317828338655028E-003
 Lowest  eigenvalues of input Hessian
    0.000000    0.000000    0.000000    0.000000    0.000000    0.000000
    0.010000    0.010123    0.010315    0.010560    0.010718    0.010856
    0.010902    0.011010    0.011201    0.011803    0.012094    0.012910
 Highest eigenvalues
    2.052478    2.070074    2.083934    2.087543    2.197300    2.496594


........................................................................
.............................. CYCLE    1 ..............................
........................................................................

 iter      E             dE          RMSdq      gap      omega  full diag
   1   -116.2910674 -0.116291E+03  0.135E-04    0.10       0.0  T
   2   -116.2910669  0.485771E-06  0.174E-03    0.10       6.9  T
   3   -116.2910674 -0.488701E-06  0.706E-06    0.10    1693.6  T
   4   -116.2910674 -0.326850E-11  0.424E-06    0.10    2817.3  T
     SCC iter.                  ...        0 min,  0.231 sec
     gradient                   ...        0 min,  0.015 sec
 * total energy  :  -114.3579967 Eh     change       -0.8036210E-08 Eh
   gradient norm :     0.2032745 Eh/α   predicted     0.0000000E+00 (-100.00%)
   displ. norm   :     0.4024334 α      lambda       -0.4154428E-01
   maximum displ.:     0.1417469 α      in ANC's #27, #18, #23, ...

........................................................................
.............................. CYCLE    2 ..............................
........................................................................

 iter      E             dE          RMSdq      gap      omega  full diag
   1   -116.3462356 -0.116346E+03  0.350E-01    0.39       0.0  T
   2   -115.8555102  0.490725E+00  0.180E+00    0.12       1.0  T
   3   -116.3487459 -0.493236E+00  0.249E-01    0.31       1.0  T
   4   -116.3551311 -0.638525E-02  0.115E-01    0.15       1.0  T
   5   -116.3474096  0.772151E-02  0.239E-01    0.07       1.0  T
   6   -116.3563698 -0.896017E-02  0.188E-02    0.12       1.0  T
   7   -116.3563663  0.343612E-05  0.147E-02    0.12       1.0  T
   8   -116.3563843 -0.180076E-04  0.831E-03    0.12       1.4  T
   9   -116.3563952 -0.108621E-04  0.189E-03    0.12       6.3  T
  10   -116.3563954 -0.149328E-06  0.736E-04    0.12      16.2  T
  11   -116.3563954 -0.122630E-07  0.459E-04    0.12      26.0  T
     SCC iter.                  ...        0 min,  0.499 sec
     gradient                   ...        0 min,  0.022 sec
 * total energy  :  -114.3888274 Eh     change       -0.3083067E-01 Eh
   gradient norm :     0.0972859 Eh/α   predicted    -0.2417400E-01 ( -21.59%)
   displ. norm   :     0.4820235 α      lambda       -0.2007693E-01
   maximum displ.:     0.1964267 α      in ANC's #27, #18, #23, ...

........................................................................
.............................. CYCLE    3 ..............................
........................................................................

 iter      E             dE          RMSdq      gap      omega  full diag
   1   -116.4024195 -0.116402E+03  0.293E-01    0.37       0.0  T
   2   -115.8958919  0.506528E+00  0.179E+00    0.12       1.0  T
   3   -116.4029885 -0.507097E+00  0.216E-01    0.36       1.0  T
   4   -116.4046199 -0.163144E-02  0.167E-01    0.26       1.0  T
   5   -116.4064948 -0.187482E-02  0.100E-01    0.20       1.0  T
   6   -116.4073352 -0.840424E-03  0.604E-02    0.17       1.0  T
   7   -116.4079223 -0.587089E-03  0.971E-03    0.14       1.2  T
   8   -116.4078504  0.719183E-04  0.222E-02    0.13       1.0  T
   9   -116.4079147 -0.643211E-04  0.825E-03    0.14       1.4  T
  10   -116.4079257 -0.110563E-04  0.116E-03    0.14      10.3  T
  11   -116.4079257  0.310294E-08  0.108E-03    0.14      11.1  T
  12   -116.4079259 -0.172258E-06  0.234E-04    0.14      51.0  T
  13   -116.4079259 -0.454922E-08  0.680E-05    0.14     175.7  T
     SCC iter.                  ...        0 min,  0.257 sec
     gradient                   ...        0 min,  0.014 sec
 * total energy  :  -114.4016589 Eh     change       -0.1283152E-01 Eh
   gradient norm :     0.0283201 Eh/α   predicted    -0.1237087E-01 (  -3.59%)
   displ. norm   :     0.4743413 α      lambda       -0.5568924E-02
   maximum displ.:     0.2013138 α      in ANC's #18, #27, #23, ...

........................................................................
.............................. CYCLE    4 ..............................
........................................................................

 iter      E             dE          RMSdq      gap      omega  full diag
   1   -116.4256398 -0.116426E+03  0.152E-01    0.20       0.0  T
   2   -116.0738944  0.351745E+00  0.147E+00    0.08       1.0  T
   3   -116.4248514 -0.350957E+00  0.137E-01    0.24       1.0  T
   4   -116.4253594 -0.508015E-03  0.111E-01    0.21       1.0  T
   5   -116.4258292 -0.469872E-03  0.845E-02    0.20       1.0  T
   6   -116.4260197 -0.190482E-03  0.735E-02    0.19       1.0  T
   7   -116.4264084 -0.388664E-03  0.546E-02    0.18       1.0  T
   8   -116.4265376 -0.129261E-03  0.463E-02    0.17       1.0  T
   9   -116.4268374 -0.299754E-03  0.146E-02    0.16       1.0  T
  10   -116.4268694 -0.319508E-04  0.142E-03    0.15       8.4  T
  11   -116.4268696 -0.207918E-06  0.503E-04    0.15      23.8  T
  12   -116.4268694  0.117128E-06  0.977E-04    0.15      12.2  T
     SCC iter.                  ...        0 min,  0.470 sec
     gradient                   ...        0 min,  0.019 sec
 * total energy  :  -114.4058576 Eh     change       -0.4198698E-02 Eh
   gradient norm :     0.0175984 Eh/α   predicted    -0.3411906E-02 ( -18.74%)
   displ. norm   :     0.5520204 α      lambda       -0.3706643E-02
   maximum displ.:     0.2415313 α      in ANC's #6, #18, #27, ...

........................................................................
.............................. CYCLE    5 ..............................
........................................................................

 iter      E             dE          RMSdq      gap      omega  full diag
   1   -116.4392783 -0.116439E+03  0.114E-01    0.16       0.0  T
   2   -116.4378314  0.144690E-02  0.117E-01    0.12       1.0  T
   3   -116.4365897  0.124174E-02  0.149E-01    0.27       1.0  T
   4   -116.4388815 -0.229184E-02  0.648E-02    0.18       1.0  T
   5   -116.4392113 -0.329770E-03  0.317E-02    0.17       1.0  T
   6   -116.4393729 -0.161631E-03  0.457E-03    0.15       2.6  T
   7   -116.4393748 -0.187076E-05  0.188E-03    0.15       6.4  T
   8   -116.4393749 -0.820637E-07  0.707E-04    0.15      16.9  T
   9   -116.4393749 -0.380234E-07  0.249E-04    0.15      48.0  T
     SCC iter.                  ...        0 min,  0.255 sec
     gradient                   ...        0 min,  0.013 sec
 * total energy  :  -114.4086505 Eh     change       -0.2792867E-02 Eh
   gradient norm :     0.0132350 Eh/α   predicted    -0.2418105E-02 ( -13.42%)
   displ. norm   :     0.5743627 α      lambda       -0.2353495E-02
   maximum displ.:     0.3140819 α      in ANC's #6, #3, #10, ...

........................................................................
.............................. CYCLE    6 ..............................
........................................................................

 iter      E             dE          RMSdq      gap      omega  full diag
   1   -116.4457345 -0.116446E+03  0.108E-01    0.14       0.0  T
   2   -116.4433714  0.236309E-02  0.148E-01    0.26       1.0  T
   3   -116.4441333 -0.761854E-03  0.115E-01    0.12       1.0  T
   4   -116.4447160 -0.582672E-03  0.928E-02    0.20       1.0  T
   5   -116.4456897 -0.973729E-03  0.438E-02    0.17       1.0  T
   6   -116.4459658 -0.276112E-03  0.141E-02    0.16       1.0  T
   7   -116.4459970 -0.311965E-04  0.183E-03    0.15       6.5  T
   8   -116.4459965  0.501389E-06  0.204E-03    0.15       5.9  T
   9   -116.4459971 -0.597390E-06  0.267E-04    0.15      44.8  T
  10   -116.4459971 -0.320733E-08  0.129E-04    0.15      92.8  T
     SCC iter.                  ...        0 min,  0.275 sec
     gradient                   ...        0 min,  0.013 sec
 * total energy  :  -114.4105485 Eh     change       -0.1897974E-02 Eh
   gradient norm :     0.0127270 Eh/α   predicted    -0.1564988E-02 ( -17.54%)
   displ. norm   :     0.6175867 α      lambda       -0.1958419E-02
   maximum displ.:     0.3602387 α      in ANC's #6, #3, #10, ...

........................................................................
.............................. CYCLE    7 ..............................
........................................................................

 iter      E             dE          RMSdq      gap      omega  full diag
   1   -116.4475492 -0.116448E+03  0.120E-01    0.13       0.0  T
   2   -116.4439781  0.357103E-02  0.184E-01    0.32       1.0  T
   3   -116.4480861 -0.410797E-02  0.573E-02    0.14       1.0  T
   4   -116.4480487  0.374178E-04  0.389E-02    0.14       1.0  T
   5   -116.4480602 -0.114770E-04  0.253E-02    0.14       1.0  T
   6   -116.4481411 -0.809592E-04  0.112E-02    0.15       1.1  T
   7   -116.4481584 -0.173119E-04  0.290E-03    0.15       4.1  T
   8   -116.4481592 -0.778246E-06  0.134E-03    0.15       8.9  T
   9   -116.4481594 -0.213382E-06  0.242E-04    0.15      49.4  T
  10   -116.4481594 -0.556767E-09  0.173E-04    0.15      69.2  T
     SCC iter.                  ...        0 min,  0.310 sec
     gradient                   ...        0 min,  0.018 sec
 * total energy  :  -114.4122278 Eh     change       -0.1679353E-02 Eh
   gradient norm :     0.0107172 Eh/α   predicted    -0.1352702E-02 ( -19.45%)
   displ. norm   :     0.6632887 α      lambda       -0.1864659E-02
   maximum displ.:     0.3937499 α      in ANC's #6, #3, #10, ...

........................................................................
.............................. CYCLE    8 ..............................
........................................................................

 iter      E             dE          RMSdq      gap      omega  full diag
   1   -116.4472867 -0.116447E+03  0.124E-01    0.13       0.0  T
   2   -116.4439477  0.333898E-02  0.174E-01    0.29       1.0  T
   3   -116.4457494 -0.180167E-02  0.120E-01    0.11       1.0  T
   4   -116.4458292 -0.798075E-04  0.108E-01    0.21       1.0  T
   5   -116.4472876 -0.145840E-02  0.498E-02    0.17       1.0  T
   6   -116.4476846 -0.397039E-03  0.717E-03    0.15       1.7  T
   7   -116.4476601  0.245470E-04  0.142E-02    0.15       1.0  T
   8   -116.4476885 -0.284251E-04  0.415E-03    0.15       2.9  T
   9   -116.4476911 -0.263428E-05  0.925E-04    0.14      12.9  T
  10   -116.4476912 -0.117237E-06  0.265E-04    0.14      45.1  T
  11   -116.4476913 -0.685749E-08  0.119E-04    0.14     100.2  T
     SCC iter.                  ...        0 min,  0.267 sec
     gradient                   ...        0 min,  0.015 sec
 * total energy  :  -114.4138593 Eh     change       -0.1631491E-02 Eh
   gradient norm :     0.0092933 Eh/α   predicted    -0.1342523E-02 ( -17.71%)
   displ. norm   :     0.6937805 α      lambda       -0.1765228E-02
   maximum displ.:     0.4178251 α      in ANC's #6, #3, #10, ...

........................................................................
.............................. CYCLE    9 ..............................
........................................................................

 iter      E             dE          RMSdq      gap      omega  full diag
   1   -116.4465492 -0.116447E+03  0.122E-01    0.14       0.0  T
   2   -116.4458200  0.729229E-03  0.100E-01    0.18       1.0  T
   3   -116.3377052  0.108115E+00  0.809E-01    0.03       1.0  T
   4   -116.4451266 -0.107421E+00  0.965E-02    0.20       1.0  T
   5   -116.4455708 -0.444275E-03  0.806E-02    0.19       1.0  T
   6   -116.4459599 -0.389044E-03  0.632E-02    0.18       1.0  T
   7   -116.4462324 -0.272545E-03  0.477E-02    0.17       1.0  T
   8   -116.4463578 -0.125373E-03  0.385E-02    0.16       1.0  T
   9   -116.4465508 -0.193040E-03  0.164E-02    0.15       1.0  T
  10   -116.4465921 -0.412772E-04  0.297E-03    0.14       4.0  T
  11   -116.4465934 -0.128721E-05  0.841E-04    0.14      14.2  T
  12   -116.4465935 -0.107144E-06  0.761E-05    0.14     157.0  T
  13   -116.4465935 -0.101522E-09  0.474E-05    0.14     252.2  T
     SCC iter.                  ...        0 min,  0.361 sec
     gradient                   ...        0 min,  0.014 sec
 * total energy  :  -114.4153987 Eh     change       -0.1539355E-02 Eh
   gradient norm :     0.0102221 Eh/α   predicted    -0.1307453E-02 ( -15.06%)
   displ. norm   :     0.7093950 α      lambda       -0.1614848E-02
   maximum displ.:     0.4353913 α      in ANC's #6, #3, #10, ...

........................................................................
.............................. CYCLE   10 ..............................
........................................................................

 iter      E             dE          RMSdq      gap      omega  full diag
   1   -116.4460288 -0.116446E+03  0.126E-01    0.15       0.0  T
   2   -116.4396033  0.642554E-02  0.212E-01    0.09       1.0  T
   3   -116.4438253 -0.422205E-02  0.137E-01    0.23       1.0  T
   4   -116.4447070 -0.881666E-03  0.972E-02    0.20       1.0  T
   5   -116.4452634 -0.556430E-03  0.725E-02    0.18       1.0  T
   6   -116.4459505 -0.687053E-03  0.316E-02    0.16       1.0  T
   7   -116.4460895 -0.138991E-03  0.110E-02    0.15       1.1  T
   8   -116.4461042 -0.147890E-04  0.491E-03    0.15       2.4  T
   9   -116.4461075 -0.327828E-05  0.170E-03    0.14       7.0  T
  10   -116.4461080 -0.434283E-06  0.171E-04    0.14      70.0  T
  11   -116.4461080 -0.621725E-10  0.945E-05    0.14     126.5  T
     SCC iter.                  ...        0 min,  0.291 sec
     gradient                   ...        0 min,  0.015 sec
 * total energy  :  -114.4167978 Eh     change       -0.1399093E-02 Eh
   gradient norm :     0.0110951 Eh/α   predicted    -0.1213762E-02 ( -13.25%)
   displ. norm   :     0.7178281 α      lambda       -0.1463383E-02
   maximum displ.:     0.4480326 α      in ANC's #6, #3, #10, ...

........................................................................
.............................. CYCLE   11 ..............................
........................................................................

 iter      E             dE          RMSdq      gap      omega  full diag
   1   -116.4466720 -0.116447E+03  0.129E-01    0.16       0.0  T
   2   -116.4108610  0.358111E-01  0.472E-01    0.05       1.0  T
   3   -116.4458220 -0.349611E-01  0.107E-01    0.19       1.0  T
   4   -116.4462108 -0.388711E-03  0.687E-02    0.18       1.0  T
   5   -116.4463661 -0.155316E-03  0.568E-02    0.17       1.0  T
   6   -116.4466917 -0.325644E-03  0.348E-02    0.16       1.0  T
   7   -116.4468007 -0.108981E-03  0.229E-02    0.15       1.0  T
   8   -116.4468784 -0.777336E-04  0.595E-03    0.15       2.0  T
   9   -116.4468838 -0.533726E-05  0.634E-04    0.14      18.8  T
  10   -116.4468838 -0.352821E-07  0.366E-04    0.14      32.7  T
  11   -116.4468838 -0.722360E-08  0.274E-04    0.14      43.6  T
     SCC iter.                  ...        0 min,  0.268 sec
     gradient                   ...        0 min,  0.012 sec
 * total energy  :  -114.4180607 Eh     change       -0.1262927E-02 Eh
   gradient norm :     0.0104439 Eh/α   predicted    -0.1108726E-02 ( -12.21%)
   displ. norm   :     0.7250264 α      lambda       -0.1333173E-02
   maximum displ.:     0.4542488 α      in ANC's #6, #3, #7, ...

........................................................................
.............................. CYCLE   12 ..............................
........................................................................

 iter      E             dE          RMSdq      gap      omega  full diag
   1   -116.4487012 -0.116449E+03  0.129E-01    0.16       0.0  T
   2   -116.4133324  0.353688E-01  0.470E-01    0.05       1.0  T
   3   -116.4478144 -0.344820E-01  0.108E-01    0.20       1.0  T
   4   -116.4482385 -0.424104E-03  0.699E-02    0.18       1.0  T
   5   -116.4483697 -0.131247E-03  0.586E-02    0.18       1.0  T
   6   -116.4486884 -0.318668E-03  0.383E-02    0.16       1.0  T
   7   -116.4488111 -0.122703E-03  0.263E-02    0.16       1.0  T
   8   -116.4489016 -0.904547E-04  0.108E-02    0.15       1.1  T
   9   -116.4489195 -0.179518E-04  0.168E-03    0.15       7.1  T
  10   -116.4489197 -0.198974E-06  0.114E-03    0.15      10.4  T
  11   -116.4489199 -0.188912E-06  0.302E-04    0.15      39.6  T
  12   -116.4489199 -0.103925E-07  0.116E-04    0.15     102.6  T
     SCC iter.                  ...        0 min,  0.301 sec
     gradient                   ...        0 min,  0.015 sec
 * total energy  :  -114.4192085 Eh     change       -0.1147845E-02 Eh
   gradient norm :     0.0088932 Eh/α   predicted    -0.1016997E-02 ( -11.40%)
   displ. norm   :     0.7242393 α      lambda       -0.1196246E-02
   maximum displ.:     0.4448672 α      in ANC's #6, #3, #7, ...

........................................................................
.............................. CYCLE   13 ..............................
........................................................................

 iter      E             dE          RMSdq      gap      omega  full diag
   1   -116.4513820 -0.116451E+03  0.127E-01    0.16       0.0  T
   2   -116.4395913  0.117907E-01  0.278E-01    0.08       1.0  T
   3   -116.4498182 -0.102269E-01  0.124E-01    0.22       1.0  T
   4   -116.4504437 -0.625532E-03  0.867E-02    0.20       1.0  T
   5   -116.4507693 -0.325592E-03  0.680E-02    0.19       1.0  T
   6   -116.4512323 -0.463053E-03  0.417E-02    0.17       1.0  T
   7   -116.4514000 -0.167608E-03  0.260E-02    0.16       1.0  T
   8   -116.4514989 -0.989856E-04  0.711E-03    0.15       1.7  T
   9   -116.4515051 -0.618513E-05  0.324E-03    0.15       3.7  T
  10   -116.4515062 -0.105419E-05  0.191E-03    0.15       6.3  T
  11   -116.4515068 -0.569491E-06  0.125E-04    0.15      95.6  T
  12   -116.4515067  0.651751E-08  0.222E-04    0.15      53.8  T
     SCC iter.                  ...        0 min,  0.259 sec
     gradient                   ...        0 min,  0.012 sec
 * total energy  :  -114.4202347 Eh     change       -0.1026188E-02 Eh
   gradient norm :     0.0083391 Eh/α   predicted    -0.9118543E-03 ( -11.14%)
   displ. norm   :     0.7191112 α      lambda       -0.1046195E-02
   maximum displ.:     0.4241454 α      in ANC's #6, #3, #7, ...

........................................................................
.............................. CYCLE   14 ..............................
........................................................................

 iter      E             dE          RMSdq      gap      omega  full diag
   1   -116.4535543 -0.116454E+03  0.123E-01    0.15       0.0  T
   2   -116.4528042  0.750120E-03  0.993E-02    0.12       1.0  T
   3   -116.4501099  0.269430E-02  0.162E-01    0.30       1.0  T
   4   -116.4524875 -0.237758E-02  0.873E-02    0.20       1.0  T
   5   -116.4534001 -0.912612E-03  0.343E-02    0.16       1.0  T
   6   -116.4535857 -0.185571E-03  0.736E-03    0.14       1.6  T
   7   -116.4535859 -0.226954E-06  0.741E-03    0.15       1.6  T
   8   -116.4535940 -0.811311E-05  0.135E-03    0.15       8.8  T
   9   -116.4535942 -0.204315E-06  0.362E-04    0.15      33.0  T
  10   -116.4535942  0.115856E-07  0.401E-04    0.15      29.8  T
     SCC iter.                  ...        0 min,  0.230 sec
     gradient                   ...        0 min,  0.013 sec
 * total energy  :  -114.4211241 Eh     change       -0.8893420E-03 Eh
   gradient norm :     0.0089557 Eh/α   predicted    -0.7936064E-03 ( -10.76%)
   displ. norm   :     0.6967823 α      lambda       -0.8826740E-03
   maximum displ.:     0.4183761 α      in ANC's #3, #6, #7, ...

........................................................................
.............................. CYCLE   15 ..............................
........................................................................

 iter      E             dE          RMSdq      gap      omega  full diag
   1   -116.4554406 -0.116455E+03  0.118E-01    0.14       0.0  T
   2   -116.4552479  0.192718E-03  0.793E-02    0.16       1.0  T
   3   -116.3447640  0.110484E+00  0.816E-01    0.03       1.0  T
   4   -116.4548890 -0.110125E+00  0.622E-02    0.18       1.0  T
   5   -116.4551473 -0.258263E-03  0.455E-02    0.17       1.0  T
   6   -116.4552568 -0.109446E-03  0.363E-02    0.16       1.0  T
   7   -116.4553543 -0.975465E-04  0.267E-02    0.16       1.0  T
   8   -116.4554069 -0.526074E-04  0.195E-02    0.15       1.0  T
   9   -116.4554553 -0.483639E-04  0.857E-03    0.15       1.4  T
  10   -116.4554668 -0.114862E-04  0.969E-04    0.15      12.3  T
  11   -116.4554669 -0.143101E-06  0.101E-04    0.15     118.3  T
  12   -116.4554669  0.178559E-09  0.818E-05    0.15     146.1  T
     SCC iter.                  ...        0 min,  0.370 sec
     gradient                   ...        0 min,  0.014 sec
 * total energy  :  -114.4218565 Eh     change       -0.7324395E-03 Eh
   gradient norm :     0.0089240 Eh/α   predicted    -0.6556094E-03 ( -10.49%)
   displ. norm   :     0.6705711 α      lambda       -0.7132239E-03
   maximum displ.:     0.4127063 α      in ANC's #3, #6, #7, ...

........................................................................
.............................. CYCLE   16 ..............................
........................................................................

 iter      E             dE          RMSdq      gap      omega  full diag
   1   -116.4545417 -0.116455E+03  0.114E-01    0.14       0.0  T
   2   -116.4539680  0.573767E-03  0.923E-02    0.18       1.0  T
   3   -116.3760790  0.778889E-01  0.688E-01    0.03       1.0  T
   4   -116.4535274 -0.774483E-01  0.828E-02    0.19       1.0  T
   5   -116.4538518 -0.324475E-03  0.683E-02    0.18       1.0  T
   6   -116.4540980 -0.246195E-03  0.553E-02    0.17       1.0  T
   7   -116.4542990 -0.200960E-03  0.423E-02    0.17       1.0  T
   8   -116.4543559 -0.568897E-04  0.377E-02    0.16       1.0  T
   9   -116.4545518 -0.195896E-03  0.132E-02    0.15       1.0  T
  10   -116.4545791 -0.272743E-04  0.662E-04    0.14      18.0  T
  11   -116.4545791 -0.408065E-07  0.378E-04    0.14      31.6  T
  12   -116.4545791  0.792379E-08  0.427E-04    0.14      28.0  T
     SCC iter.                  ...        0 min,  0.420 sec
     gradient                   ...        0 min,  0.026 sec
 * total energy  :  -114.4223946 Eh     change       -0.5380966E-03 Eh
   gradient norm :     0.0095569 Eh/α   predicted    -0.5169694E-03 (  -3.93%)
   displ. norm   :     0.6087659 α      lambda       -0.6590210E-03
   maximum displ.:     0.3792653 α      in ANC's #3, #7, #6, ...

........................................................................
.............................. CYCLE   17 ..............................
........................................................................

 iter      E             dE          RMSdq      gap      omega  full diag
   1   -116.4603479 -0.116460E+03  0.109E-01    0.14       0.0  T
   2   -116.4589332  0.141468E-02  0.118E-01    0.21       1.0  T
   3   -116.4440272  0.149060E-01  0.317E-01    0.07       1.0  T
   4   -116.4588745 -0.148473E-01  0.101E-01    0.21       1.0  T
   5   -116.4594185 -0.544035E-03  0.807E-02    0.19       1.0  T
   6   -116.4599255 -0.507013E-03  0.571E-02    0.17       1.0  T
   7   -116.4601137 -0.188178E-03  0.452E-02    0.17       1.0  T
   8   -116.4603399 -0.226213E-03  0.245E-02    0.16       1.0  T
   9   -116.4604343 -0.943937E-04  0.985E-04    0.14      12.1  T
  10   -116.4604344 -0.126896E-06  0.237E-04    0.14      50.4  T
  11   -116.4604343  0.747910E-07  0.711E-04    0.14      16.8  T
     SCC iter.                  ...        0 min,  0.355 sec
     gradient                   ...        0 min,  0.020 sec
 * total energy  :  -114.4227717 Eh     change       -0.3771305E-03 Eh
   gradient norm :     0.0086280 Eh/α   predicted    -0.4516281E-03 (  19.75%)
   displ. norm   :     0.5827284 α      lambda       -0.4869027E-03
   maximum displ.:     0.3676324 α      in ANC's #3, #7, #6, ...

........................................................................
.............................. CYCLE   18 ..............................
........................................................................

 iter      E             dE          RMSdq      gap      omega  full diag
   1   -116.4491159 -0.116449E+03  0.106E-01    0.15       0.0  T
   2   -116.4489524  0.163499E-03  0.717E-02    0.13       1.0  T
   3   -116.4458814  0.307102E-02  0.150E-01    0.28       1.0  T
   4   -116.4486833 -0.280185E-02  0.551E-02    0.17       1.0  T
   5   -116.4491122 -0.428923E-03  0.115E-02    0.15       1.0  T
   6   -116.4491254 -0.132536E-04  0.731E-03    0.14       1.6  T
   7   -116.4491327 -0.729787E-05  0.300E-03    0.15       4.0  T
   8   -116.4491339 -0.121628E-05  0.562E-04    0.14      21.3  T
   9   -116.4491339 -0.714238E-09  0.401E-04    0.14      29.8  T
  10   -116.4491340 -0.219729E-07  0.800E-05    0.14     149.5  T
     SCC iter.                  ...        0 min,  0.271 sec
     gradient                   ...        0 min,  0.051 sec
 * total energy  :  -114.4228705 Eh     change       -0.9879619E-04 Eh
   gradient norm :     0.0115364 Eh/α   predicted    -0.3261217E-03 ( 230.10%)
   displ. norm   :     0.1960263 α      lambda       -0.5580847E-03
   maximum displ.:     0.1066627 α      in ANC's #3, #10, #7, ...

........................................................................
.............................. CYCLE   19 ..............................
........................................................................

 iter      E             dE          RMSdq      gap      omega  full diag
   1   -116.4565892 -0.116457E+03  0.519E-02    0.15       0.0  T
   2   -116.4565139  0.752417E-04  0.380E-02    0.14       1.0  T
   3   -116.4550688  0.144510E-02  0.100E-01    0.21       1.0  T
   4   -116.4565612 -0.149241E-02  0.178E-02    0.15       1.0  T
   5   -116.4565800 -0.187942E-04  0.960E-03    0.15       1.2  T
   6   -116.4565935 -0.134775E-04  0.258E-03    0.14       4.6  T
   7   -116.4565945 -0.959357E-06  0.577E-04    0.14      20.7  T
   8   -116.4565944  0.958248E-07  0.849E-04    0.14      14.1  T
     SCC iter.                  ...        0 min,  0.397 sec
     gradient                   ...        0 min,  0.014 sec
 * total energy  :  -114.4231307 Eh     change       -0.2601988E-03 Eh
   gradient norm :     0.0090632 Eh/α   predicted    -0.2897682E-03 (  11.36%)
   displ. norm   :     0.1539449 α      lambda       -0.2282658E-03
   maximum displ.:     0.0904621 α      in ANC's #3, #7, #10, ...

........................................................................
.............................. CYCLE   20 ..............................
........................................................................

 iter      E             dE          RMSdq      gap      omega  full diag
   1   -116.4593931 -0.116459E+03  0.377E-02    0.15       0.0  T
   2   -116.4590476  0.345415E-03  0.516E-02    0.13       1.0  T
   3   -116.4589504  0.971924E-04  0.565E-02    0.17       1.0  T
   4   -116.4593694 -0.418981E-03  0.158E-02    0.15       1.0  T
   5   -116.4593894 -0.199735E-04  0.858E-03    0.15       1.4  T
   6   -116.4594007 -0.112884E-04  0.166E-03    0.15       7.2  T
   7   -116.4594010 -0.329938E-06  0.568E-04    0.14      21.1  T
   8   -116.4594010 -0.285038E-07  0.307E-04    0.15      38.9  T
     SCC iter.                  ...        0 min,  0.159 sec
     gradient                   ...        0 min,  0.012 sec
 * total energy  :  -114.4232637 Eh     change       -0.1329600E-03 Eh
   gradient norm :     0.0056565 Eh/α   predicted    -0.1168394E-03 ( -12.12%)
   displ. norm   :     0.3091069 α      lambda       -0.2478713E-03
   maximum displ.:     0.1953165 α      in ANC's #3, #7, #8, ...
 * RMSD in coord.:     1.1213996 α      energy gain  -0.6526695E-01 Eh

generating ANC from model Hessian ...
Using Lindh-Hessian (1995)
 Shifting diagonal of input Hessian by    9.9343544501174150E-003
 Lowest  eigenvalues of input Hessian
    0.000000    0.000000    0.000000    0.000000    0.000000    0.000000
    0.010000    0.010180    0.010615    0.010632    0.010803    0.011000
    0.011148    0.011239    0.011316    0.011914    0.012198    0.013135
 Highest eigenvalues
    2.120996    2.123804    2.131041    2.175813    2.301236    2.480841


........................................................................
.............................. CYCLE   21 ..............................
........................................................................

 iter      E             dE          RMSdq      gap      omega  full diag
   1   -116.4600485 -0.116460E+03  0.663E-02    0.15       0.0  T
   2   -116.4585201  0.152842E-02  0.106E-01    0.11       1.0  T
   3   -116.4592706 -0.750478E-03  0.789E-02    0.19       1.0  T
   4   -116.4598588 -0.588180E-03  0.391E-02    0.17       1.0  T
   5   -116.4599677 -0.108875E-03  0.260E-02    0.16       1.0  T
   6   -116.4600543 -0.866684E-04  0.112E-02    0.15       1.1  T
   7   -116.4600732 -0.188989E-04  0.238E-03    0.15       5.0  T
   8   -116.4600736 -0.346946E-06  0.167E-03    0.15       7.2  T
   9   -116.4600740 -0.425382E-06  0.148E-04    0.15      81.0  T
  10   -116.4600740 -0.372324E-10  0.127E-04    0.15      94.4  T
     SCC iter.                  ...        0 min,  0.519 sec
     gradient                   ...        0 min,  0.024 sec
 * total energy  :  -114.4234269 Eh     change       -0.1631908E-03 Eh
   gradient norm :     0.0060124 Eh/α   predicted     0.0000000E+00 (-100.00%)
   displ. norm   :     0.0632510 α      lambda       -0.7139885E-04
   maximum displ.:     0.0338089 α      in ANC's #4, #6, #1, ...

........................................................................
.............................. CYCLE   22 ..............................
........................................................................

 iter      E             dE          RMSdq      gap      omega  full diag
   1   -116.4588241 -0.116459E+03  0.182E-02    0.15       0.0  T
   2   -116.4587935  0.305758E-04  0.179E-02    0.14       1.0  T
   3   -116.4586209  0.172598E-03  0.365E-02    0.16       1.0  T
   4   -116.4588211 -0.200202E-03  0.565E-03    0.15       2.1  T
   5   -116.4588244 -0.332583E-05  0.254E-03    0.15       4.7  T
   6   -116.4588254 -0.948995E-06  0.286E-04    0.15      41.7  T
   7   -116.4588254 -0.304912E-08  0.141E-04    0.15      84.6  T
     SCC iter.                  ...        0 min,  0.418 sec
     gradient                   ...        0 min,  0.021 sec
 * total energy  :  -114.4234985 Eh     change       -0.7164231E-04 Eh
   gradient norm :     0.0023387 Eh/α   predicted    -0.4380528E-04 ( -38.86%)
   displ. norm   :     0.1997296 α      lambda       -0.1674712E-03
   maximum displ.:     0.1028486 α      in ANC's #4, #6, #5, ...

........................................................................
.............................. CYCLE   23 ..............................
........................................................................

 iter      E             dE          RMSdq      gap      omega  full diag
   1   -116.4569008 -0.116457E+03  0.517E-02    0.15       0.0  T
   2   -116.4566480  0.252852E-03  0.509E-02    0.13       1.0  T
   3   -116.4558111  0.836901E-03  0.864E-02    0.20       1.0  T
   4   -116.4567817 -0.970680E-03  0.289E-02    0.16       1.0  T
   5   -116.4568856 -0.103823E-03  0.120E-02    0.15       1.0  T
   6   -116.4569087 -0.231484E-04  0.915E-04    0.15      13.1  T
   7   -116.4569087 -0.179278E-07  0.646E-04    0.15      18.5  T
   8   -116.4569088 -0.177887E-07  0.201E-04    0.15      59.6  T
     SCC iter.                  ...        0 min,  0.506 sec
     gradient                   ...        0 min,  0.022 sec
 * total energy  :  -114.4236178 Eh     change       -0.1192775E-03 Eh
   gradient norm :     0.0049728 Eh/α   predicted    -0.8707854E-04 ( -27.00%)
   displ. norm   :     0.2265889 α      lambda       -0.1219763E-03
   maximum displ.:     0.1132007 α      in ANC's #4, #6, #5, ...

........................................................................
.............................. CYCLE   24 ..............................
........................................................................

 iter      E             dE          RMSdq      gap      omega  full diag
   1   -116.4559491 -0.116456E+03  0.553E-02    0.15       0.0  T
   2   -116.4557439  0.205121E-03  0.490E-02    0.13       1.0  T
   3   -116.4545736  0.117038E-02  0.967E-02    0.21       1.0  T
   4   -116.4558059 -0.123236E-02  0.315E-02    0.16       1.0  T
   5   -116.4559250 -0.119044E-03  0.137E-02    0.15       1.0  T
   6   -116.4559552 -0.301810E-04  0.883E-04    0.15      13.5  T
   7   -116.4559550  0.170146E-06  0.130E-03    0.15       9.2  T
   8   -116.4559552 -0.182544E-06  0.396E-04    0.15      30.2  T
   9   -116.4559552 -0.190047E-07  0.928E-05    0.15     128.8  T
     SCC iter.                  ...        0 min,  0.560 sec
     gradient                   ...        0 min,  0.019 sec
 * total energy  :  -114.4237168 Eh     change       -0.9903028E-04 Eh
   gradient norm :     0.0074494 Eh/α   predicted    -0.6411970E-04 ( -35.25%)
   displ. norm   :     0.3275034 α      lambda       -0.1723215E-03
   maximum displ.:     0.1597640 α      in ANC's #4, #6, #5, ...

........................................................................
.............................. CYCLE   25 ..............................
........................................................................

 iter      E             dE          RMSdq      gap      omega  full diag
   1   -116.4555449 -0.116456E+03  0.768E-02    0.15       0.0  T
   2   -116.4552265  0.318419E-03  0.641E-02    0.13       1.0  T
   3   -116.4534271  0.179939E-02  0.122E-01    0.24       1.0  T
   4   -116.4551559 -0.172887E-02  0.518E-02    0.18       1.0  T
   5   -116.4554280 -0.272019E-03  0.283E-02    0.16       1.0  T
   6   -116.4555492 -0.121227E-03  0.577E-03    0.15       2.1  T
   7   -116.4555534 -0.421633E-05  0.194E-03    0.15       6.2  T
   8   -116.4555538 -0.345220E-06  0.904E-04    0.15      13.2  T
   9   -116.4555538 -0.694865E-08  0.862E-04    0.15      13.9  T
     SCC iter.                  ...        0 min,  0.439 sec
     gradient                   ...        0 min,  0.019 sec
 * total energy  :  -114.4238569 Eh     change       -0.1400716E-03 Eh
   gradient norm :     0.0073390 Eh/α   predicted    -0.9540239E-04 ( -31.89%)
   displ. norm   :     0.4050104 α      lambda       -0.1995953E-03
   maximum displ.:     0.1937878 α      in ANC's #4, #5, #6, ...

........................................................................
.............................. CYCLE   26 ..............................
........................................................................

 iter      E             dE          RMSdq      gap      omega  full diag
   1   -116.4558318 -0.116456E+03  0.915E-02    0.15       0.0  T
   2   -116.4556226  0.209220E-03  0.652E-02    0.13       1.0  T
   3   -116.4531230  0.249964E-02  0.138E-01    0.27       1.0  T
   4   -116.4553923 -0.226933E-02  0.555E-02    0.18       1.0  T
   5   -116.4557217 -0.329424E-03  0.276E-02    0.16       1.0  T
   6   -116.4558400 -0.118210E-03  0.215E-03    0.15       5.6  T
   7   -116.4558393  0.614841E-06  0.268E-03    0.15       4.5  T
   8   -116.4558401 -0.792430E-06  0.910E-04    0.15      13.1  T
   9   -116.4558402 -0.186144E-07  0.811E-04    0.15      14.7  T
     SCC iter.                  ...        0 min,  0.350 sec
     gradient                   ...        0 min,  0.023 sec
 * total energy  :  -114.4240095 Eh     change       -0.1525755E-03 Eh
   gradient norm :     0.0054454 Eh/α   predicted    -0.1161690E-03 ( -23.86%)
   displ. norm   :     0.3690883 α      lambda       -0.1569575E-03
   maximum displ.:     0.1688235 α      in ANC's #4, #1, #5, ...

........................................................................
.............................. CYCLE   27 ..............................
........................................................................

 iter      E             dE          RMSdq      gap      omega  full diag
   1   -116.4571903 -0.116457E+03  0.801E-02    0.15       0.0  T
   2   -116.4571647  0.256628E-04  0.488E-02    0.14       1.0  T
   3   -116.4554843  0.168044E-02  0.107E-01    0.23       1.0  T
   4   -116.4571832 -0.169897E-02  0.117E-02    0.15       1.0  T
   5   -116.4571877 -0.448190E-05  0.704E-03    0.15       1.7  T
   6   -116.4571936 -0.591053E-05  0.327E-03    0.15       3.7  T
   7   -116.4571952 -0.160230E-05  0.550E-04    0.15      21.7  T
   8   -116.4571951  0.982912E-07  0.831E-04    0.15      14.4  T
   9   -116.4571952 -0.993452E-07  0.240E-04    0.15      49.8  T
     SCC iter.                  ...        0 min,  0.281 sec
     gradient                   ...        0 min,  0.014 sec
 * total energy  :  -114.4241292 Eh     change       -0.1197602E-03 Eh
   gradient norm :     0.0042435 Eh/α   predicted    -0.8917200E-04 ( -25.54%)
   displ. norm   :     0.3458900 α      lambda       -0.1287854E-03
   maximum displ.:     0.1570604 α      in ANC's #1, #5, #4, ...

........................................................................
.............................. CYCLE   28 ..............................
........................................................................

 iter      E             dE          RMSdq      gap      omega  full diag
   1   -116.4586988 -0.116459E+03  0.729E-02    0.15       0.0  T
   2   -116.4587010 -0.225576E-05  0.426E-02    0.15       1.0  T
   3   -116.4586067  0.943678E-04  0.261E-02    0.14       1.0  T
   4   -116.4584757  0.130918E-03  0.382E-02    0.17       1.0  T
   5   -116.4587022 -0.226447E-03  0.276E-03    0.15       4.3  T
   6   -116.4587027 -0.497638E-06  0.149E-03    0.15       8.0  T
   7   -116.4587030 -0.259357E-06  0.443E-04    0.15      27.0  T
   8   -116.4587030 -0.334715E-08  0.205E-04    0.15      58.2  T
     SCC iter.                  ...        0 min,  0.223 sec
     gradient                   ...        0 min,  0.014 sec
 * total energy  :  -114.4242301 Eh     change       -0.1009061E-03 Eh
   gradient norm :     0.0042039 Eh/α   predicted    -0.7211348E-04 ( -28.53%)
   displ. norm   :     0.3674342 α      lambda       -0.1197057E-03
   maximum displ.:     0.1754587 α      in ANC's #1, #5, #4, ...

........................................................................
.............................. CYCLE   29 ..............................
........................................................................

 iter      E             dE          RMSdq      gap      omega  full diag
   1   -116.4591911 -0.116459E+03  0.765E-02    0.15       0.0  T
   2   -116.4591847  0.643682E-05  0.453E-02    0.15       1.0  T
   3   -116.4556860  0.349869E-02  0.147E-01    0.10       1.0  T
   4   -116.4591179 -0.343184E-02  0.246E-02    0.16       1.0  T
   5   -116.4591855 -0.676038E-04  0.817E-03    0.15       1.5  T
   6   -116.4591932 -0.772500E-05  0.395E-03    0.15       3.0  T
   7   -116.4591953 -0.213395E-05  0.127E-03    0.15       9.4  T
   8   -116.4591955 -0.185137E-06  0.401E-04    0.15      29.8  T
   9   -116.4591955 -0.859374E-08  0.296E-04    0.15      40.4  T
     SCC iter.                  ...        0 min,  0.209 sec
     gradient                   ...        0 min,  0.013 sec
 * total energy  :  -114.4243252 Eh     change       -0.9506617E-04 Eh
   gradient norm :     0.0040275 Eh/α   predicted    -0.6793440E-04 ( -28.54%)
   displ. norm   :     0.3486990 α      lambda       -0.1138840E-03
   maximum displ.:     0.1768999 α      in ANC's #1, #5, #8, ...

........................................................................
.............................. CYCLE   30 ..............................
........................................................................

 iter      E             dE          RMSdq      gap      omega  full diag
   1   -116.4602462 -0.116460E+03  0.710E-02    0.15       0.0  T
   2   -116.4601333  0.112859E-03  0.497E-02    0.16       1.0  T
   3   -116.4370475  0.230858E-01  0.376E-01    0.06       1.0  T
   4   -116.4601114 -0.230639E-01  0.331E-02    0.16       1.0  T
   5   -116.4601561 -0.447075E-04  0.249E-02    0.16       1.0  T
   6   -116.4602157 -0.596258E-04  0.155E-02    0.16       1.0  T
   7   -116.4602391 -0.233985E-04  0.953E-03    0.15       1.3  T
   8   -116.4602498 -0.106773E-04  0.466E-03    0.15       2.6  T
   9   -116.4602531 -0.328286E-05  0.591E-04    0.15      20.2  T
  10   -116.4602531 -0.453556E-07  0.876E-05    0.15     136.5  T
  11   -116.4602531 -0.722082E-09  0.358E-05    0.15     333.8  T
     SCC iter.                  ...        0 min,  0.406 sec
     gradient                   ...        0 min,  0.015 sec
 * total energy  :  -114.4244134 Eh     change       -0.8820288E-04 Eh
   gradient norm :     0.0040410 Eh/α   predicted    -0.6387084E-04 ( -27.59%)
   displ. norm   :     0.3971629 α      lambda       -0.1001493E-03
   maximum displ.:     0.2041071 α      in ANC's #1, #5, #8, ...

........................................................................
.............................. CYCLE   31 ..............................
........................................................................

 iter      E             dE          RMSdq      gap      omega  full diag
   1   -116.4578815 -0.116458E+03  0.828E-02    0.15       0.0  T
   2   -116.4578690  0.124630E-04  0.498E-02    0.14       1.0  T
   3   -116.4566056  0.126346E-02  0.914E-02    0.21       1.0  T
   4   -116.4578778 -0.127223E-02  0.105E-02    0.15       1.1  T
   5   -116.4578756  0.223772E-05  0.794E-03    0.15       1.5  T
   6   -116.4578853 -0.972492E-05  0.131E-03    0.15       9.1  T
   7   -116.4578854 -0.113485E-06  0.767E-04    0.15      15.6  T
   8   -116.4578854  0.300452E-08  0.726E-04    0.15      16.5  T
     SCC iter.                  ...        0 min,  0.310 sec
     gradient                   ...        0 min,  0.013 sec
 * total energy  :  -114.4244852 Eh     change       -0.7175430E-04 Eh
   gradient norm :     0.0046204 Eh/α   predicted    -0.5797918E-04 ( -19.20%)
   displ. norm   :     0.3340873 α      lambda       -0.1329322E-03
   maximum displ.:     0.1822796 α      in ANC's #1, #5, #8, ...

........................................................................
.............................. CYCLE   32 ..............................
........................................................................

 iter      E             dE          RMSdq      gap      omega  full diag
   1   -116.4611396 -0.116461E+03  0.668E-02    0.14       0.0  T
   2   -116.4608605  0.279093E-03  0.580E-02    0.17       1.0  T
   3   -116.4498525  0.110080E-01  0.264E-01    0.08       1.0  T
   4   -116.4609486 -0.110961E-01  0.382E-02    0.17       1.0  T
   5   -116.4610159 -0.673610E-04  0.295E-02    0.16       1.0  T
   6   -116.4611022 -0.863234E-04  0.179E-02    0.16       1.0  T
   7   -116.4611348 -0.325272E-04  0.107E-02    0.15       1.1  T
   8   -116.4611490 -0.142208E-04  0.463E-03    0.15       2.6  T
   9   -116.4611523 -0.326890E-05  0.482E-04    0.15      24.8  T
  10   -116.4611523 -0.289538E-07  0.123E-04    0.15      97.0  T
  11   -116.4611523 -0.184079E-08  0.356E-05    0.15     335.6  T
     SCC iter.                  ...        0 min,  0.259 sec
     gradient                   ...        0 min,  0.021 sec
 * total energy  :  -114.4245606 Eh     change       -0.7546948E-04 Eh
   gradient norm :     0.0053014 Eh/α   predicted    -0.7389178E-04 (  -2.09%)
   displ. norm   :     0.3509846 α      lambda       -0.8308147E-04
   maximum displ.:     0.1948222 α      in ANC's #1, #5, #8, ...

........................................................................
.............................. CYCLE   33 ..............................
........................................................................

 iter      E             dE          RMSdq      gap      omega  full diag
   1   -116.4583478 -0.116458E+03  0.731E-02    0.15       0.0  T
   2   -116.4582061  0.141730E-03  0.533E-02    0.14       1.0  T
   3   -116.4562950  0.191110E-02  0.118E-01    0.24       1.0  T
   4   -116.4581483 -0.185330E-02  0.381E-02    0.17       1.0  T
   5   -116.4583097 -0.161365E-03  0.168E-02    0.16       1.0  T
   6   -116.4583545 -0.447916E-04  0.174E-03    0.15       6.9  T
   7   -116.4583548 -0.329750E-06  0.677E-04    0.15      17.6  T
   8   -116.4583546  0.166356E-06  0.110E-03    0.15      10.9  T
   9   -116.4583548 -0.170616E-06  0.321E-04    0.15      37.2  T
     SCC iter.                  ...        0 min,  0.208 sec
     gradient                   ...        0 min,  0.013 sec
 * total energy  :  -114.4246185 Eh     change       -0.5782421E-04 Eh
   gradient norm :     0.0046245 Eh/α   predicted    -0.4665935E-04 ( -19.31%)
   displ. norm   :     0.2037953 α      lambda       -0.8841745E-04
   maximum displ.:     0.1234995 α      in ANC's #1, #8, #5, ...

........................................................................
.............................. CYCLE   34 ..............................
........................................................................

 iter      E             dE          RMSdq      gap      omega  full diag
   1   -116.4582511 -0.116458E+03  0.439E-02    0.15       0.0  T
   2   -116.4580501  0.200944E-03  0.448E-02    0.13       1.0  T
   3   -116.4575259  0.524212E-03  0.705E-02    0.19       1.0  T
   4   -116.4582194 -0.693457E-03  0.167E-02    0.16       1.0  T
   5   -116.4582493 -0.298730E-04  0.744E-03    0.15       1.6  T
   6   -116.4582583 -0.901388E-05  0.682E-04    0.15      17.5  T
   7   -116.4582583  0.586289E-08  0.504E-04    0.15      23.7  T
   8   -116.4582582  0.151418E-07  0.545E-04    0.15      21.9  T
     SCC iter.                  ...        0 min,  0.375 sec
     gradient                   ...        0 min,  0.028 sec
 * total energy  :  -114.4246883 Eh     change       -0.6979945E-04 Eh
   gradient norm :     0.0034888 Eh/α   predicted    -0.4604689E-04 ( -34.03%)
   displ. norm   :     0.2895609 α      lambda       -0.1206312E-03
   maximum displ.:     0.1746655 α      in ANC's #1, #8, #3, ...

........................................................................
.............................. CYCLE   35 ..............................
........................................................................

 iter      E             dE          RMSdq      gap      omega  full diag
   1   -116.4591642 -0.116459E+03  0.645E-02    0.15       0.0  T
   2   -116.4589383  0.225878E-03  0.541E-02    0.13       1.0  T
   3   -116.4576489  0.128940E-02  0.102E-01    0.22       1.0  T
   4   -116.4590754 -0.142652E-02  0.270E-02    0.16       1.0  T
   5   -116.4591521 -0.766319E-04  0.117E-02    0.15       1.0  T
   6   -116.4591737 -0.216545E-04  0.177E-03    0.15       6.8  T
   7   -116.4591741 -0.380669E-06  0.549E-04    0.15      21.8  T
   8   -116.4591739  0.172464E-06  0.109E-03    0.15      10.9  T
   9   -116.4591741 -0.181542E-06  0.226E-04    0.15      52.9  T
     SCC iter.                  ...        0 min,  0.524 sec
     gradient                   ...        0 min,  0.018 sec
 * total energy  :  -114.4247735 Eh     change       -0.8526612E-04 Eh
   gradient norm :     0.0044125 Eh/α   predicted    -0.6537559E-04 ( -23.33%)
   displ. norm   :     0.3165814 α      lambda       -0.9126437E-04
   maximum displ.:     0.2006354 α      in ANC's #1, #8, #3, ...

........................................................................
.............................. CYCLE   36 ..............................
........................................................................

 iter      E             dE          RMSdq      gap      omega  full diag
   1   -116.4589300 -0.116459E+03  0.671E-02    0.15       0.0  T
   2   -116.4588333  0.967389E-04  0.471E-02    0.14       1.0  T
   3   -116.4571603  0.167303E-02  0.110E-01    0.23       1.0  T
   4   -116.4588537 -0.169347E-02  0.246E-02    0.16       1.0  T
   5   -116.4589218 -0.680809E-04  0.940E-03    0.15       1.3  T
   6   -116.4589355 -0.136657E-04  0.166E-03    0.15       7.2  T
   7   -116.4589358 -0.367946E-06  0.498E-04    0.15      24.0  T
   8   -116.4589358  0.512088E-07  0.637E-04    0.15      18.8  T
     SCC iter.                  ...        0 min,  0.362 sec
     gradient                   ...        0 min,  0.015 sec
 * total energy  :  -114.4248452 Eh     change       -0.7163224E-04 Eh
   gradient norm :     0.0056953 Eh/α   predicted    -0.5021090E-04 ( -29.90%)
   displ. norm   :     0.3774968 α      lambda       -0.1211853E-03
   maximum displ.:     0.2433089 α      in ANC's #1, #8, #3, ...

........................................................................
.............................. CYCLE   37 ..............................
........................................................................

 iter      E             dE          RMSdq      gap      omega  full diag
   1   -116.4593124 -0.116459E+03  0.779E-02    0.15       0.0  T
   2   -116.4593132 -0.797347E-06  0.457E-02    0.15       1.0  T
   3   -116.4588840  0.429219E-03  0.512E-02    0.13       1.0  T
   4   -116.4592578 -0.373794E-03  0.203E-02    0.16       1.0  T
   5   -116.4593153 -0.575803E-04  0.191E-03    0.15       6.3  T
   6   -116.4593157 -0.304133E-06  0.904E-04    0.15      13.2  T
   7   -116.4593157 -0.757413E-07  0.345E-04    0.15      34.7  T
     SCC iter.                  ...        0 min,  0.420 sec
     gradient                   ...        0 min,  0.016 sec
 * total energy  :  -114.4249394 Eh     change       -0.9428756E-04 Eh
   gradient norm :     0.0053049 Eh/α   predicted    -0.6922763E-04 ( -26.58%)
   displ. norm   :     0.4608057 α      lambda       -0.1342132E-03
   maximum displ.:     0.3078833 α      in ANC's #1, #8, #3, ...

........................................................................
.............................. CYCLE   38 ..............................
........................................................................

 iter      E             dE          RMSdq      gap      omega  full diag
   1   -116.4585180 -0.116459E+03  0.920E-02    0.15       0.0  T
   2   -116.4584611  0.569479E-04  0.574E-02    0.16       1.0  T
   3   -116.4223457  0.361154E-01  0.467E-01    0.05       1.0  T
   4   -116.4584602 -0.361145E-01  0.233E-02    0.16       1.0  T
   5   -116.4584718 -0.115671E-04  0.182E-02    0.16       1.0  T
   6   -116.4585062 -0.344824E-04  0.111E-02    0.16       1.1  T
   7   -116.4585164 -0.101601E-04  0.754E-03    0.15       1.6  T
   8   -116.4585230 -0.663214E-05  0.378E-03    0.15       3.2  T
   9   -116.4585251 -0.203347E-05  0.102E-03    0.15      11.7  T
  10   -116.4585252 -0.149179E-06  0.787E-05    0.15     151.8  T
  11   -116.4585252  0.654580E-09  0.904E-05    0.15     132.2  T
     SCC iter.                  ...        0 min,  0.475 sec
     gradient                   ...        0 min,  0.018 sec
 * total energy  :  -114.4250288 Eh     change       -0.8934427E-04 Eh
   gradient norm :     0.0043507 Eh/α   predicted    -0.8135879E-04 (  -8.94%)
   displ. norm   :     0.2920849 α      lambda       -0.1184084E-03
   maximum displ.:     0.2014337 α      in ANC's #1, #8, #3, ...

........................................................................
.............................. CYCLE   39 ..............................
........................................................................

 iter      E             dE          RMSdq      gap      omega  full diag
   1   -116.4613033 -0.116461E+03  0.565E-02    0.15       0.0  T
   2   -116.4611441  0.159223E-03  0.467E-02    0.17       1.0  T
   3   -116.4542722  0.687191E-02  0.207E-01    0.09       1.0  T
   4   -116.4611790 -0.690686E-02  0.307E-02    0.17       1.0  T
   5   -116.4612424 -0.633776E-04  0.210E-02    0.16       1.0  T
   6   -116.4612947 -0.522755E-04  0.109E-02    0.16       1.1  T
   7   -116.4613064 -0.117122E-04  0.659E-03    0.15       1.8  T
   8   -116.4613126 -0.619813E-05  0.190E-03    0.15       6.3  T
   9   -116.4613131 -0.521837E-06  0.210E-04    0.15      56.9  T
  10   -116.4613131 -0.326369E-08  0.662E-05    0.15     180.6  T
     SCC iter.                  ...        0 min,  0.428 sec
     gradient                   ...        0 min,  0.013 sec
 * total energy  :  -114.4250806 Eh     change       -0.5176560E-04 Eh
   gradient norm :     0.0043308 Eh/α   predicted    -0.6425662E-04 (  24.13%)
   displ. norm   :     0.4525190 α      lambda       -0.1134762E-03
   maximum displ.:     0.3081079 α      in ANC's #1, #8, #5, ...

........................................................................
.............................. CYCLE   40 ..............................
........................................................................

 iter      E             dE          RMSdq      gap      omega  full diag
   1   -116.4561504 -0.116456E+03  0.877E-02    0.15       0.0  T
   2   -116.4561539 -0.342255E-05  0.516E-02    0.15       1.0  T
   3   -116.4561375  0.163817E-04  0.147E-02    0.15       1.0  T
   4   -116.4561188  0.186751E-04  0.151E-02    0.16       1.0  T
   5   -116.4561533 -0.344912E-04  0.416E-03    0.15       2.9  T
   6   -116.4561556 -0.233124E-05  0.991E-04    0.15      12.1  T
   7   -116.4561557 -0.598052E-07  0.474E-04    0.15      25.2  T
   8   -116.4561557 -0.656001E-08  0.213E-04    0.15      56.1  T
     SCC iter.                  ...        0 min,  0.185 sec
     gradient                   ...        0 min,  0.013 sec
 * total energy  :  -114.4250997 Eh     change       -0.1911529E-04 Eh
   gradient norm :     0.0073017 Eh/α   predicted    -0.6836020E-04 ( 257.62%)
   displ. norm   :     0.0701363 α      lambda       -0.1242921E-03
   maximum displ.:     0.0381726 α      in ANC's #5, #8, #2, ...

........................................................................
.............................. CYCLE   41 ..............................
........................................................................

 iter      E             dE          RMSdq      gap      omega  full diag
   1   -116.4594460 -0.116459E+03  0.215E-02    0.15       0.0  T
   2   -116.4594246  0.213098E-04  0.170E-02    0.14       1.0  T
   3   -116.4591285  0.296108E-03  0.456E-02    0.17       1.0  T
   4   -116.4594468 -0.318242E-03  0.319E-03    0.15       3.7  T
   5   -116.4594473 -0.520955E-06  0.123E-03    0.15       9.7  T
   6   -116.4594475 -0.156423E-06  0.421E-04    0.15      28.4  T
   7   -116.4594475 -0.662247E-08  0.218E-04    0.15      54.9  T
     SCC iter.                  ...        0 min,  0.172 sec
     gradient                   ...        0 min,  0.014 sec
 * total energy  :  -114.4251749 Eh     change       -0.7520555E-04 Eh
   gradient norm :     0.0046843 Eh/α   predicted    -0.6245382E-04 ( -16.96%)
   displ. norm   :     0.1782494 α      lambda       -0.9714927E-04
   maximum displ.:     0.1366390 α      in ANC's #1, #6, #3, ...

........................................................................
.............................. CYCLE   42 ..............................
........................................................................

 iter      E             dE          RMSdq      gap      omega  full diag
   1   -116.4609621 -0.116461E+03  0.309E-02    0.15       0.0  T
   2   -116.4605797  0.382375E-03  0.525E-02    0.13       1.0  T
   3   -116.4607926 -0.212910E-03  0.368E-02    0.17       1.0  T
   4   -116.4609667 -0.174046E-03  0.802E-03    0.15       1.5  T
   5   -116.4609673 -0.655114E-06  0.563E-03    0.15       2.1  T
   6   -116.4609719 -0.456740E-05  0.164E-03    0.15       7.3  T
   7   -116.4609723 -0.396171E-06  0.298E-04    0.15      40.2  T
   8   -116.4609723  0.306355E-08  0.236E-04    0.15      50.7  T
     SCC iter.                  ...        0 min,  0.191 sec
     gradient                   ...        0 min,  0.017 sec
 * total energy  :  -114.4252340 Eh     change       -0.5913631E-04 Eh
   gradient norm :     0.0049711 Eh/α   predicted    -0.5011894E-04 ( -15.25%)
   displ. norm   :     0.4162459 α      lambda       -0.1433555E-03
   maximum displ.:     0.3206525 α      in ANC's #1, #8, #3, ...
 * RMSD in coord.:     0.6975770 α      energy gain  -0.1970324E-02 Eh

generating ANC from model Hessian ...
Using Lindh-Hessian (1995)
 Shifting diagonal of input Hessian by    9.9174498715123918E-003
 Lowest  eigenvalues of input Hessian
    0.000000    0.000000    0.000000    0.000000    0.000000    0.000000
    0.010000    0.010156    0.010495    0.010662    0.010867    0.011017
    0.011121    0.011231    0.011506    0.011943    0.012374    0.013140
 Highest eigenvalues
    2.119760    2.125554    2.130076    2.175159    2.300568    2.474509


........................................................................
.............................. CYCLE   43 ..............................
........................................................................

 iter      E             dE          RMSdq      gap      omega  full diag
   1   -116.4617017 -0.116462E+03  0.692E-02    0.16       0.0  T
   2   -116.4607843  0.917391E-03  0.860E-02    0.12       1.0  T
   3   -116.4606701  0.114208E-03  0.889E-02    0.21       1.0  T
   4   -116.4615272 -0.857078E-03  0.386E-02    0.17       1.0  T
   5   -116.4616292 -0.102076E-03  0.248E-02    0.16       1.0  T
   6   -116.4617172 -0.879638E-04  0.751E-03    0.15       1.6  T
   7   -116.4617255 -0.825952E-05  0.143E-03    0.15       8.4  T
   8   -116.4617255 -0.293318E-07  0.116E-03    0.15      10.3  T
   9   -116.4617257 -0.181467E-06  0.146E-04    0.15      81.6  T
  10   -116.4617257 -0.110421E-08  0.635E-05    0.15     188.3  T
     SCC iter.                  ...        0 min,  0.183 sec
     gradient                   ...        0 min,  0.013 sec
 * total energy  :  -114.4253346 Eh     change       -0.1005869E-03 Eh
   gradient norm :     0.0047420 Eh/α   predicted     0.0000000E+00 (-100.00%)
   displ. norm   :     0.0412415 α      lambda       -0.4406851E-04
   maximum displ.:     0.0212657 α      in ANC's #1, #6, #2, ...

........................................................................
.............................. CYCLE   44 ..............................
........................................................................

 iter      E             dE          RMSdq      gap      omega  full diag
   1   -116.4612250 -0.116461E+03  0.118E-02    0.15       0.0  T
   2   -116.4612235  0.149754E-05  0.780E-03    0.15       1.5  T
   3   -116.4610662  0.157298E-03  0.314E-02    0.14       1.0  T
   4   -116.4612247 -0.158499E-03  0.280E-03    0.15       4.3  T
   5   -116.4612254 -0.737360E-06  0.431E-04    0.15      27.7  T
   6   -116.4612254 -0.941053E-08  0.244E-04    0.15      49.0  T
     SCC iter.                  ...        0 min,  0.149 sec
     gradient                   ...        0 min,  0.015 sec
 * total energy  :  -114.4253727 Eh     change       -0.3813754E-04 Eh
   gradient norm :     0.0019057 Eh/α   predicted    -0.2526708E-04 ( -33.75%)
   displ. norm   :     0.1362175 α      lambda       -0.5025796E-04
   maximum displ.:     0.0721155 α      in ANC's #1, #6, #2, ...

........................................................................
.............................. CYCLE   45 ..............................
........................................................................

 iter      E             dE          RMSdq      gap      omega  full diag
   1   -116.4604335 -0.116460E+03  0.321E-02    0.15       0.0  T
   2   -116.4604344 -0.890703E-06  0.189E-02    0.15       1.0  T
   3   -116.4604204  0.139745E-04  0.104E-02    0.15       1.1  T
   4   -116.4603829  0.374895E-04  0.181E-02    0.16       1.0  T
   5   -116.4604347 -0.517764E-04  0.119E-03    0.15      10.0  T
   6   -116.4604348 -0.123699E-06  0.520E-04    0.15      23.0  T
   7   -116.4604348 -0.181403E-07  0.198E-04    0.15      60.4  T
     SCC iter.                  ...        0 min,  0.150 sec
     gradient                   ...        0 min,  0.013 sec
 * total energy  :  -114.4254150 Eh     change       -0.4225316E-04 Eh
   gradient norm :     0.0034835 Eh/α   predicted    -0.2533678E-04 ( -40.04%)
   displ. norm   :     0.0696083 α      lambda       -0.2640054E-04
   maximum displ.:     0.0387887 α      in ANC's #1, #6, #2, ...

........................................................................
.............................. CYCLE   46 ..............................
........................................................................

 iter      E             dE          RMSdq      gap      omega  full diag
   1   -116.4604922 -0.116460E+03  0.150E-02    0.15       0.0  T
   2   -116.4604866  0.559726E-05  0.106E-02    0.15       1.1  T
   3   -116.4602967  0.189877E-03  0.354E-02    0.17       1.0  T
   4   -116.4604920 -0.195327E-03  0.198E-03    0.15       6.0  T
   5   -116.4604923 -0.232126E-06  0.107E-03    0.15      11.1  T
   6   -116.4604924 -0.169939E-06  0.215E-04    0.15      55.5  T
   7   -116.4604924  0.103564E-08  0.187E-04    0.15      63.8  T
     SCC iter.                  ...        0 min,  0.163 sec
     gradient                   ...        0 min,  0.014 sec
 * total energy  :  -114.4254400 Eh     change       -0.2503601E-04 Eh
   gradient norm :     0.0032235 Eh/α   predicted    -0.1339429E-04 ( -46.50%)
   displ. norm   :     0.2329338 α      lambda       -0.9020422E-04
   maximum displ.:     0.1269968 α      in ANC's #1, #6, #2, ...

........................................................................
.............................. CYCLE   47 ..............................
........................................................................

 iter      E             dE          RMSdq      gap      omega  full diag
   1   -116.4606281 -0.116461E+03  0.501E-02    0.15       0.0  T
   2   -116.4605237  0.104388E-03  0.389E-02    0.14       1.0  T
   3   -116.4594827  0.104094E-02  0.881E-02    0.21       1.0  T
   4   -116.4605630 -0.108022E-02  0.222E-02    0.16       1.0  T
   5   -116.4606122 -0.492812E-04  0.112E-02    0.16       1.1  T
   6   -116.4606310 -0.187999E-04  0.255E-03    0.15       4.7  T
   7   -116.4606320 -0.923162E-06  0.450E-04    0.15      26.6  T
   8   -116.4606320 -0.130405E-07  0.192E-04    0.15      62.1  T
     SCC iter.                  ...        0 min,  0.153 sec
     gradient                   ...        0 min,  0.013 sec
 * total energy  :  -114.4255133 Eh     change       -0.7327691E-04 Eh
   gradient norm :     0.0019753 Eh/α   predicted    -0.4755515E-04 ( -35.10%)
   displ. norm   :     0.4758118 α      lambda       -0.8424266E-04
   maximum displ.:     0.2651720 α      in ANC's #1, #6, #2, ...

........................................................................
.............................. CYCLE   48 ..............................
........................................................................

 iter      E             dE          RMSdq      gap      omega  full diag
   1   -116.4596538 -0.116460E+03  0.101E-01    0.16       0.0  T
   2   -116.4586048  0.104898E-02  0.100E-01    0.12       1.0  T
   3   -116.4576776  0.927198E-03  0.124E-01    0.25       1.0  T
   4   -116.4589587 -0.128105E-02  0.725E-02    0.20       1.0  T
   5   -116.4592980 -0.339286E-03  0.498E-02    0.18       1.0  T
   6   -116.4595688 -0.270841E-03  0.269E-02    0.17       1.0  T
   7   -116.4596505 -0.816927E-04  0.139E-02    0.16       1.0  T
   8   -116.4596767 -0.262077E-04  0.437E-03    0.15       2.7  T
   9   -116.4596794 -0.267619E-05  0.129E-03    0.15       9.2  T
  10   -116.4596796 -0.239212E-06  0.355E-04    0.15      33.6  T
  11   -116.4596796 -0.790045E-08  0.270E-04    0.15      44.2  T
     SCC iter.                  ...        0 min,  0.470 sec
     gradient                   ...        0 min,  0.022 sec
 * total energy  :  -114.4255904 Eh     change       -0.7711484E-04 Eh
   gradient norm :     0.0038669 Eh/α   predicted    -0.4636005E-04 ( -39.88%)
   displ. norm   :     0.1246527 α      lambda       -0.3521422E-04
   maximum displ.:     0.0766229 α      in ANC's #1, #2, #6, ...

........................................................................
.............................. CYCLE   49 ..............................
........................................................................

 iter      E             dE          RMSdq      gap      omega  full diag
   1   -116.4605596 -0.116461E+03  0.253E-02    0.15       0.0  T
   2   -116.4605206  0.390043E-04  0.214E-02    0.15       1.0  T
   3   -116.4602048  0.315798E-03  0.489E-02    0.18       1.0  T
   4   -116.4605587 -0.353865E-03  0.550E-03    0.15       2.2  T
   5   -116.4605597 -0.106523E-05  0.310E-03    0.15       3.9  T
   6   -116.4605610 -0.130300E-05  0.976E-04    0.15      12.2  T
   7   -116.4605612 -0.125828E-06  0.316E-04    0.15      37.9  T
   8   -116.4605612 -0.968937E-08  0.174E-04    0.15      68.8  T
     SCC iter.                  ...        0 min,  0.237 sec
     gradient                   ...        0 min,  0.014 sec
 * total energy  :  -114.4256219 Eh     change       -0.3147271E-04 Eh
   gradient norm :     0.0027828 Eh/α   predicted    -0.1788133E-04 ( -43.18%)
   displ. norm   :     0.2124164 α      lambda       -0.6923105E-04
   maximum displ.:     0.1325885 α      in ANC's #1, #2, #6, ...

........................................................................
.............................. CYCLE   50 ..............................
........................................................................

 iter      E             dE          RMSdq      gap      omega  full diag
[...]
           -------------------------------------------------

    * Orbital Energies and Occupations

         #    Occupation            Energy/Eh            Energy/eV
      -------------------------------------------------------------
         1        2.0000           -0.5848672             -15.9150
       ...           ...                  ...                  ...
        94        2.0000           -0.3078883              -8.3781
        95        2.0000           -0.2953167              -8.0360
        96        2.0000           -0.2941532              -8.0043
        97        2.0000           -0.2923014              -7.9539
        98        2.0000           -0.2869565              -7.8085
        99        2.0000           -0.2863590              -7.7922
       100        2.0000           -0.2799445              -7.6177
       101        2.0000           -0.2779721              -7.5640
       102        2.0000           -0.2761082              -7.5133
       103        2.0000           -0.2750540              -7.4846
       104        2.0000           -0.2583873              -7.0311
       105        2.0000           -0.2249040              -6.1199
       106        1.9235           -0.1864836              -5.0745 (HOMO)
       107        0.0748           -0.1803345              -4.9072 (LUMO)
       108        0.0017           -0.1767175              -4.8087
       109                         -0.1548612              -4.2140
       110                         -0.1485779              -4.0430
       111                         -0.1252729              -3.4089
       112                         -0.1184628              -3.2235
       113                         -0.1108424              -3.0162
       114                         -0.1101875              -2.9984
       115                         -0.1084378              -2.9507
       116                         -0.0976295              -2.6566
       117                         -0.0953275              -2.5940
       ...                                ...                  ...
       205                          0.8131537              22.1270
      -------------------------------------------------------------
                  HL-Gap            0.0061491 Eh            0.1673 eV
             Fermi-level           -0.1834203 Eh           -4.9911 eV

     #   Z          covCN         q      C6AA      α(0)
     1   6 C        2.977     0.003    27.946     8.671
     2   6 C        2.979    -0.000    28.034     8.685
     3   6 C        2.979     0.002    27.969     8.675
     4   6 C        2.989     0.003    27.944     8.671
     5   6 C        2.987     0.001    28.007     8.681
     6   6 C        2.988     0.007    27.852     8.657
     7   6 C        2.982     0.007    27.862     8.659
     8   6 C        2.983     0.014    27.704     8.634
     9   6 C        2.988     0.003    27.955     8.673
    10   6 C        2.990     0.020    27.564     8.612
    11   6 C        2.918    -0.046    29.141     8.852
    12   6 C        2.918    -0.046    29.140     8.852
    13   6 C        2.917    -0.044    29.083     8.843
    14   6 C        2.917    -0.041    29.027     8.835
    15   6 C        2.916    -0.046    29.143     8.852
    16   6 C        2.917    -0.037    28.926     8.820
    17   6 C        2.914    -0.041    29.031     8.835
    18   6 C        2.915    -0.029    28.725     8.789
    19   6 C        2.929    -0.038    28.942     8.823
    20   6 C        2.920    -0.033    28.822     8.804
    21   6 C        2.920    -0.043    29.080     8.843
    22   6 C        2.923    -0.028    28.698     8.785
    23   6 C        2.990     0.006    27.869     8.660
    24   6 C        2.918    -0.032    28.786     8.798
    25   6 C        2.919    -0.032    28.801     8.800
    26   6 C        2.916    -0.028    28.697     8.785
    27   1 H        0.925     0.012     2.851     2.640
    28   1 H        0.925     0.013     2.836     2.634
    29   1 H        0.925     0.012     2.856     2.643
    30   1 H        0.925     0.017     2.774     2.605
    31   1 H        0.925     0.011     2.881     2.654
    32   1 H        0.926     0.022     2.698     2.569
    33   1 H        0.925     0.013     2.838     2.634
    34   1 H        0.926     0.030     2.584     2.514
    35   1 H        0.926     0.057     2.237     2.339
    36   1 H        0.926     0.025     2.660     2.550
    37   1 H        0.925     0.014     2.820     2.626
    38   1 H        0.925     0.029     2.602     2.523
    39   1 H        0.926     0.018     2.760     2.598
    40   1 H        0.926     0.025     2.664     2.553
    41   6 C        2.864     0.162    24.493     8.112
    42   7 N        1.921    -0.348    29.880     8.105
    43   7 N        2.841    -0.016    21.554     6.895
    44   6 C        2.699     0.309    21.749     7.633
    45   7 N        2.841    -0.013    21.501     6.887
    46   7 N        1.924    -0.358    30.165     8.144
    47   8 O        0.859    -0.498    23.737     6.532
    48   6 C        2.923     0.072    26.399     8.426
    49   6 C        2.919    -0.055    29.374     8.888
    50   6 C        2.920    -0.037    28.933     8.821
    51   6 C        2.917    -0.052    29.291     8.875
    52   6 C        2.919    -0.035    28.866     8.811
    53   6 C        2.926    -0.047    29.164     8.856
    54   6 C        2.921     0.070    26.429     8.430
    55   6 C        2.925    -0.051    29.265     8.872
    56   6 C        2.919    -0.037    28.928     8.820
    57   6 C        2.917    -0.054    29.335     8.882
    58   6 C        2.920    -0.037    28.926     8.820
    59   6 C        2.919    -0.055    29.364     8.886
    60   1 H        0.926     0.049     2.335     2.390
    61   1 H        0.925     0.006     2.949     2.686
    62   1 H        0.925     0.000     3.054     2.733
    63   1 H        0.925     0.008     2.929     2.676
    64   1 H        0.926     0.052     2.293     2.368
    65   1 H        0.926     0.054     2.270     2.356
    66   1 H        0.925     0.008     2.928     2.676
    67   1 H        0.925     0.001     3.036     2.725
    68   1 H        0.925     0.008     2.916     2.670
    69   1 H        0.926     0.047     2.352     2.398
    70   1 H        0.926     0.046     2.377     2.411

 Mol. C6AA /au·bohr⁶  :      77616.628166
 Mol. C8AA /au·bohr⁸  :    1966615.948775
 Mol. α(0) /au        :        449.456547


Wiberg/Mayer (AO) data.
largest (>0.10) Wiberg bond orders for each atom

 ---------------------------------------------------------------------------
     #   Z sym  total        # sym  WBO       # sym  WBO       # sym  WBO
 ---------------------------------------------------------------------------
     1   6 C    3.986 --     4 C    1.294     2 C    1.220     3 C    1.215
     2   6 C    3.957 --     5 C    1.310     1 C    1.220     7 C    1.178
     3   6 C    3.963 --     6 C    1.315     1 C    1.215     8 C    1.179
     4   6 C    3.980 --     1 C    1.294    12 C    1.251    11 C    1.247
     5   6 C    3.975 --     2 C    1.310    13 C    1.252    15 C    1.227
     6   6 C    3.979 --     3 C    1.315    14 C    1.256    16 C    1.221
     7   6 C    3.987 --    19 C    1.331     9 C    1.264     2 C    1.178
     8   6 C    3.988 --    20 C    1.314    10 C    1.276     3 C    1.179
     9   6 C    3.982 --    21 C    1.300     7 C    1.264    17 C    1.228
    10   6 C    3.986 --    22 C    1.309     8 C    1.276    18 C    1.217
    11   6 C    3.964 --    13 C    1.584     4 C    1.247    27 H    0.968
    12   6 C    3.961 --    14 C    1.577     4 C    1.251    28 H    0.968
    13   6 C    3.971 --    11 C    1.584     5 C    1.252    29 H    0.968
    14   6 C    3.967 --    12 C    1.577     6 C    1.256    30 H    0.968
    15   6 C    3.976 --    17 C    1.611     5 C    1.227    31 H    0.968
    16   6 C    3.987 --    18 C    1.626     6 C    1.221    32 H    0.967
    17   6 C    3.969 --    15 C    1.611     9 C    1.228    33 H    0.968
    18   6 C    3.976 --    16 C    1.626    10 C    1.217    34 H    0.967
    19   6 C    3.977 --    23 C    1.449     7 C    1.331    35 H    0.954
                            21 C    0.101
    20   6 C    3.985 --    24 C    1.517     8 C    1.314    36 H    0.965
                            22 C    0.110
    21   6 C    3.977 --    25 C    1.532     9 C    1.300    37 H    0.968
                            19 C    0.101
    22   6 C    3.980 --    26 C    1.521    10 C    1.309    38 H    0.968
                            20 C    0.110
    23   6 C    3.975 --    19 C    1.449    25 C    1.309    41 C    1.028
    24   6 C    3.986 --    20 C    1.517    26 C    1.351    39 H    0.971
    25   6 C    3.976 --    21 C    1.532    23 C    1.309    70 H    0.966
    26   6 C    3.981 --    22 C    1.521    24 C    1.351    40 H    0.971
    27   1 H    0.999 --    11 C    0.968
    28   1 H    0.999 --    12 C    0.968
    29   1 H    0.998 --    13 C    0.968
    30   1 H    0.999 --    14 C    0.968
    31   1 H    0.999 --    15 C    0.968
    32   1 H    0.998 --    16 C    0.967
    33   1 H    0.998 --    17 C    0.968
    34   1 H    0.998 --    18 C    0.967
    35   1 H    0.996 --    19 C    0.954
    36   1 H    0.999 --    20 C    0.965
    37   1 H    0.999 --    21 C    0.968
    38   1 H    0.999 --    22 C    0.968
    39   1 H    0.999 --    24 C    0.971
    40   1 H    0.999 --    26 C    0.971
    41   6 C    3.973 --    46 N    1.413    42 N    1.412    23 C    1.028
    42   7 N    2.791 --    41 C    1.412    43 N    1.002    46 N    0.194
    43   7 N    3.552 --    44 C    1.118    54 C    1.111    42 N    1.002
                            47 O    0.114
    44   6 C    3.959 --    47 O    1.571    45 N    1.139    43 N    1.118
    45   7 N    3.562 --    44 C    1.139    48 C    1.103    46 N    1.000
                            47 O    0.121
    46   7 N    2.791 --    41 C    1.413    45 N    1.000    42 N    0.194
    47   8 O    1.938 --    44 C    1.571    45 N    0.121    43 N    0.114
    48   6 C    3.960 --    49 C    1.344    53 C    1.331    45 N    1.103
    49   6 C    3.978 --    50 C    1.464    48 C    1.344    65 H    0.963
    50   6 C    3.988 --    49 C    1.464    51 C    1.420    66 H    0.972
    51   6 C    3.966 --    50 C    1.420    52 C    1.413    67 H    0.973
    52   6 C    3.990 --    53 C    1.475    51 C    1.413    68 H    0.971
    53   6 C    3.979 --    52 C    1.475    48 C    1.331    69 H    0.964
    54   6 C    3.960 --    59 C    1.339    55 C    1.329    43 N    1.111
    55   6 C    3.977 --    56 C    1.476    54 C    1.329    60 H    0.964
    56   6 C    3.990 --    55 C    1.476    57 C    1.414    61 H    0.972
    57   6 C    3.963 --    58 C    1.417    56 C    1.414    62 H    0.973
    58   6 C    3.988 --    59 C    1.468    57 C    1.417    63 H    0.972
    59   6 C    3.977 --    58 C    1.468    54 C    1.339    64 H    0.963
    60   1 H    0.998 --    55 C    0.964
    61   1 H    0.999 --    56 C    0.972
    62   1 H    1.000 --    57 C    0.973
    63   1 H    0.999 --    58 C    0.972
    64   1 H    0.997 --    59 C    0.963
    65   1 H    0.997 --    49 C    0.963
    66   1 H    0.999 --    50 C    0.972
    67   1 H    1.000 --    51 C    0.973
    68   1 H    0.999 --    52 C    0.971
    69   1 H    0.998 --    53 C    0.964
    70   1 H    0.997 --    25 C    0.966
 ---------------------------------------------------------------------------

Topologies differ in bond orders
Writing corrected topology to xtbtopo.mol

molecular dipole:
                 x           y           z       tot (Debye)
 q only:       -2.459       1.703       0.615
   full:       -2.384       1.587       0.601       7.437
molecular quadrupole (traceless):
                xx          xy          yy          xz          yz          zz
 q only:      -29.898      22.694      -1.233      -4.659      11.306      31.131
  q+dip:      -22.700      24.445       3.604       0.371       1.977      19.095
   full:      -29.180      22.210       0.243      -2.976       9.433      28.936

           -------------------------------------------------
          |                Geometry Summary                 |
           -------------------------------------------------

      molecular mass/u    :      577.6541725
   center of mass at/Å    :       -0.1550116       0.2180669      -0.2544019
  moments of inertia/u·Å² :        0.4070655E+04   0.7895415E+04   0.1069659E+05
rotational constants/cm⁻¹ :        0.4141258E-02   0.2135117E-02   0.1575983E-02

 * 72 selected distances

     #   Z          #   Z                                           value/Å
     1   6 C        2   6 C                                       1.4347789 (max)
     1   6 C        4   6 C                                       1.4161508
     2   6 C        5   6 C                                       1.4114654
     3   6 C        6   6 C                                       1.4102408
     7   6 C        9   6 C                                       1.4176714
     8   6 C       10   6 C                                       1.4156301
     4   6 C       11   6 C                                       1.4151917
     4   6 C       12   6 C                                       1.4141354
     5   6 C       13   6 C                                       1.4134775
    11   6 C       13   6 C                                       1.3589205
     6   6 C       14   6 C                                       1.4128349
    12   6 C       14   6 C                                       1.3600535
     5   6 C       15   6 C                                       1.4198130
     6   6 C       16   6 C                                       1.4208042
     9   6 C       17   6 C                                       1.4188897
    15   6 C       17   6 C                                       1.3561628
    10   6 C       18   6 C                                       1.4203530
    16   6 C       18   6 C                                       1.3536421
     7   6 C       19   6 C                                       1.4000790
     8   6 C       20   6 C                                       1.4056439
     9   6 C       21   6 C                                       1.4065918
    10   6 C       22   6 C                                       1.4041470
    19   6 C       23   6 C                                       1.3788754
    20   6 C       24   6 C                                       1.3711909
    21   6 C       25   6 C                                       1.3691243
    23   6 C       25   6 C                                       1.4021327
    22   6 C       26   6 C                                       1.3701246
    24   6 C       26   6 C                                       1.3967401
    11   6 C       27   1 H                                       1.0819191
    12   6 C       28   1 H                                       1.0819302
    13   6 C       29   1 H                                       1.0820024
    14   6 C       30   1 H                                       1.0814516
    15   6 C       31   1 H                                       1.0824108
    16   6 C       32   1 H                                       1.0811859
    17   6 C       33   1 H                                       1.0821379
    18   6 C       34   1 H                                       1.0799795
    19   6 C       35   1 H                                       1.0764574
    20   6 C       36   1 H                                       1.0799952
    21   6 C       37   1 H                                       1.0827806
    22   6 C       38   1 H                                       1.0812420
    24   6 C       39   1 H                                       1.0810203
    26   6 C       40   1 H                                       1.0804884
    41   6 C       42   7 N                                       1.3138019
    43   7 N       44   6 C                                       1.3829884
    44   6 C       45   7 N                                       1.3758372
    41   6 C       46   7 N                                       1.3130112
    44   6 C       47   8 O                                       1.2226600
    45   7 N       48   6 C                                       1.3892532
    48   6 C       49   6 C                                       1.3987801
    49   6 C       50   6 C                                       1.3807537
    50   6 C       51   6 C                                       1.3859844
    51   6 C       52   6 C                                       1.3868873
    48   6 C       53   6 C                                       1.4022468
    52   6 C       53   6 C                                       1.3768808
    43   7 N       54   6 C                                       1.3874565
    54   6 C       55   6 C                                       1.4026464
    55   6 C       56   6 C                                       1.3773863
    56   6 C       57   6 C                                       1.3865784
    57   6 C       58   6 C                                       1.3862696
    54   6 C       59   6 C                                       1.3996509
    58   6 C       59   6 C                                       1.3799056
    55   6 C       60   1 H                                       1.0773913
    56   6 C       61   1 H                                       1.0826616
    57   6 C       62   1 H                                       1.0816632
    58   6 C       63   1 H                                       1.0824093
    59   6 C       64   1 H                                       1.0762783 (min)
    49   6 C       65   1 H                                       1.0765493
    50   6 C       66   1 H                                       1.0831788
    51   6 C       67   1 H                                       1.0817688
    52   6 C       68   1 H                                       1.0821474
    53   6 C       69   1 H                                       1.0770538
Note: The following floating-point exceptions are signalling: IEEE_UNDERFLOW_FLAG
normal termination of xtb
    25   6 C       70   1 H                                       1.0783674

 * 4 distinct bonds (by element types)

   Z      Z             #   av. dist./Å        max./Å        min./Å
   1 H    6 C          25     1.0805788     1.0831788     1.0762783
   6 C    6 C          40     1.3959709     1.4347789     1.3536421
   6 C    7 N           6     1.3603914     1.3892532     1.3130112
   6 C    8 O           1     1.2226600     1.2226600     1.2226600


optimized geometry written to: xtbopt.mol


           -------------------------------------------------
          | TOTAL ENERGY             -114.428405241581 Eh   |
          | GRADIENT NORM               0.000922853312 Eh/α |
          | HOMO-LUMO GAP               0.167326029494 eV   |
           -------------------------------------------------
########################################################################
[WARNING] Runtime exception occurred
-2- restart_readRestart: Multiplicity missmatch in restart file.
-1- restart_readRestart: Number of electron missmatch in restart file.
########################################################################

------------------------------------------------------------------------
 * finished run on 2024/11/14 at 15:18:35.654     
------------------------------------------------------------------------
 total:
 * wall-time:     0 d,  0 h,  0 min, 30.098 sec
 *  cpu-time:     0 d,  0 h,  1 min, 41.439 sec
 * ratio c/w:     3.370 speedup
 SCF:
 * wall-time:     0 d,  0 h,  0 min,  1.269 sec
 *  cpu-time:     0 d,  0 h,  0 min,  4.329 sec
 * ratio c/w:     3.412 speedup
 ANC optimizer:
 * wall-time:     0 d,  0 h,  0 min, 28.777 sec
 *  cpu-time:     0 d,  0 h,  1 min, 37.092 sec
 * ratio c/w:     3.374 speedup

