      -----------------------------------------------------------      
     |                   =====================                   |     
     |                           x T B                           |     
     |                   =====================                   |     
     |                         S. Grimme                         |     
     |          Mulliken Center for Theoretical Chemistry        |     
     |                    University of Bonn                     |     
      -----------------------------------------------------------      

   * xtb version 6.6.1 (8d0f1dd) compiled by 'runner@Mac-1690902418499.local' on 2023-08-01

   xtb is free software: you can redistribute it and/or modify it under
   the terms of the GNU Lesser General Public License as published by
   the Free Software Foundation, either version 3 of the License, or
   (at your option) any later version.
   
   xtb is distributed in the hope that it will be useful,
   but WITHOUT ANY WARRANTY; without even the implied warranty of
   MERCHANTABILITY or FITNESS FOR A PARTICULAR PURPOSE.  See the
   GNU Lesser General Public License for more details.
   
   Cite this work as:
   * C. Bannwarth, E. Caldeweyher, S. Ehlert, A. Hansen, P. Pracht,
     J. Seibert, S. Spicher, S. Grimme, WIREs Comput. Mol. Sci., 2020, 11,
     e01493. DOI: 10.1002/wcms.1493
   
   for GFN2-xTB:
   * C. Bannwarth, S. Ehlert and S. Grimme., J. Chem. Theory Comput., 2019,
     15, 1652-1671. DOI: 10.1021/acs.jctc.8b01176
   for GFN1-xTB:
   * S. Grimme, C. Bannwarth, P. Shushkov, J. Chem. Theory Comput., 2017,
     13, 1989-2009. DOI: 10.1021/acs.jctc.7b00118
   for GFN0-xTB:
   * P. Pracht, E. Caldeweyher, S. Ehlert, S. Grimme, ChemRxiv, 2019, preprint.
     DOI: 10.26434/chemrxiv.8326202.v1
   for GFN-FF:
   * S. Spicher and S. Grimme, Angew. Chem. Int. Ed., 2020, 59, 15665-15673.
     DOI: 10.1002/anie.202004239
   
   for ALPB and GBSA implicit solvation:
   * S. Ehlert, M. Stahn, S. Spicher, S. Grimme, J. Chem. Theory Comput.,
     2021, 17, 4250-4261. DOI: 10.1021/acs.jctc.1c00471
   
   for DFT-D4:
   * E. Caldeweyher, C. Bannwarth and S. Grimme, J. Chem. Phys., 2017,
     147, 034112. DOI: 10.1063/1.4993215
   * E. Caldeweyher, S. Ehlert, A. Hansen, H. Neugebauer, S. Spicher,
     C. Bannwarth and S. Grimme, J. Chem. Phys., 2019, 150, 154122.
     DOI: 10.1063/1.5090222
   * E. Caldeweyher, J.-M. Mewes, S. Ehlert and S. Grimme, Phys. Chem. Chem. Phys.
     2020, 22, 8499-8512. DOI: 10.1039/D0CP00502A
   
   for sTDA-xTB:
   * S. Grimme and C. Bannwarth, J. Chem. Phys., 2016, 145, 054103.
     DOI: 10.1063/1.4959605
   
   in the mass-spec context:
   * V. Asgeirsson, C. Bauer and S. Grimme, Chem. Sci., 2017, 8, 4879.
     DOI: 10.1039/c7sc00601b
   * J. Koopman and S. Grimme, ACS Omega 2019, 4, 12, 15120-15133.
     DOI: 10.1021/acsomega.9b02011
   
   for metadynamics refer to:
   * S. Grimme, J. Chem. Theory Comput., 2019, 155, 2847-2862
     DOI: 10.1021/acs.jctc.9b00143
   
   for SPH calculations refer to:
   * S. Spicher and S. Grimme, J. Chem. Theory Comput., 2021, 17, 1701-1714
     DOI: 10.1021/acs.jctc.0c01306
   
   with help from (in alphabetical order)
   P. Atkinson, C. Bannwarth, F. Bohle, G. Brandenburg, E. Caldeweyher
   M. Checinski, S. Dohm, S. Ehlert, S. Ehrlich, I. Gerasimov, C. Hölzer
   A. Katbashev, J. Koopman, C. Lavigne, S. Lehtola, F. März, M. Müller,
   F. Musil, H. Neugebauer, J. Pisarek, C. Plett, P. Pracht, F. Pultar,
   J. Seibert, P. Shushkov, S. Spicher, M. Stahn, M. Steiner, T. Strunk,
   J. Stückrath, T. Rose, and J. Unsleber
   
 * started run on 2024/11/14 at 15:45:01.394     

           -------------------------------------------------
          |                Calculation Setup                |
           -------------------------------------------------

          program call               : xtb stacked_dimer_Verdazyl2.mol --opt --gfn2 --chrg -1 --uhf 0 --tight
          coordinate file            : stacked_dimer_Verdazyl2.mol
          omp threads                :                     8

   ID    Z sym.   atoms
    1    6 C      1-26, 41, 44, 48-59, 71-96, 111, 114, 118-129
    2    1 H      27-40, 60-70, 97-110, 130-140
    3    7 N      42, 43, 45, 46, 112, 113, 115, 116
    4    8 O      47, 117
########################################################################
[WARNING] Please study the warnings concerning your input carefully
-1- prog_main_parseArguments: Unknown option '--tight' provided
########################################################################

           -------------------------------------------------
          |                 G F N 2 - x T B                 |
           -------------------------------------------------

        Reference                      10.1021/acs.jctc.8b01176
      * Hamiltonian:
        H0-scaling (s, p, d)           1.850000    2.230000    2.230000
        zeta-weighting                 0.500000
      * Dispersion:
        s8                             2.700000
        a1                             0.520000
        a2                             5.000000
        s9                             5.000000
      * Repulsion:
        kExp                           1.500000    1.000000
        rExp                           1.000000
      * Coulomb:
        alpha                          2.000000
        third order                    shell-resolved
        anisotropic                    true
        a3                             3.000000
        a5                             4.000000
        cn-shift                       1.200000
        cn-exp                         4.000000
        max-rad                        5.000000

q/qsh data taken from xtbrestart
CAMM data taken from xtbrestart

          ...................................................
          :                      SETUP                      :
          :.................................................:
          :  # basis functions                 410          :
          :  # atomic orbitals                 410          :
          :  # shells                          230          :
          :  # electrons                       423          :
          :  max. iterations                   250          :
          :  Hamiltonian                  GFN2-xTB          :
          :  restarted?                       true          :
          :  GBSA solvation                  false          :
          :  PC potential                    false          :
          :  electronic temp.          300.0000000     K    :
          :  accuracy                    1.0000000          :
          :  -> integral cutoff          0.2500000E+02      :
          :  -> integral neglect         0.1000000E-07      :
          :  -> SCF convergence          0.1000000E-05 Eh   :
          :  -> wf. convergence          0.1000000E-03 e    :
          :  Broyden damping             0.4000000          :
          ...................................................

 iter      E             dE          RMSdq      gap      omega  full diag
   1   -232.4355799 -0.232436E+03  0.221E+00    1.40       0.0  T
   2   -231.9910536  0.444526E+00  0.180E+00    0.23       1.0  T
   3   -232.2898054 -0.298752E+00  0.130E+00    0.54       1.0  T
   4   -232.4916655 -0.201860E+00  0.687E-01    0.47       1.0  T
   5   -232.5007718 -0.910633E-02  0.534E-01    1.21       1.0  T
   6   -232.5452654 -0.444936E-01  0.387E-01    0.93       1.0  T
   7   -232.5394176  0.584775E-02  0.438E-01    0.69       1.0  T
   8   -232.5814581 -0.420405E-01  0.211E-01    0.85       1.0  T
   9   -232.5478754  0.335827E-01  0.356E-01    0.77       1.0  T
  10   -232.5672997 -0.194243E-01  0.260E-01    0.58       1.0  T
  11   -232.5833475 -0.160478E-01  0.118E-01    0.57       1.0  T
  12   -232.5848277 -0.148018E-02  0.993E-02    0.52       1.0  T
  13   -232.5868630 -0.203531E-02  0.579E-02    0.52       1.0  T
  14   -232.5875351 -0.672088E-03  0.377E-02    0.50       1.0  T
  15   -232.5879583 -0.423216E-03  0.127E-02    0.51       1.0  T
  16   -232.5879941 -0.358056E-04  0.731E-03    0.51       1.2  T
  17   -232.5880118 -0.176912E-04  0.290E-04    0.51      29.2  T
  18   -232.5880114  0.442977E-06  0.117E-03    0.51       7.2  T
  19   -232.5880116 -0.233657E-06  0.818E-04    0.51      10.3  T
  20   -232.5880118 -0.216634E-06  0.145E-04    0.51      58.5  T

   *** convergence criteria satisfied after 20 iterations ***

         #    Occupation            Energy/Eh            Energy/eV
      -------------------------------------------------------------
         1        2.0000           -0.6220188             -16.9260
       ...           ...                  ...                  ...
       206        2.0000           -0.2842584              -7.7351
       207        2.0000           -0.2655138              -7.2250
       208        2.0000           -0.2631154              -7.1597
       209        2.0000           -0.2617930              -7.1237
       210        2.0000           -0.2522890              -6.8651
       211        1.5408           -0.2199199              -5.9843
       212        1.4591           -0.2196086              -5.9759 (HOMO)
       213        0.0001           -0.2010348              -5.4704 (LUMO)
       214        0.0000           -0.1966194              -5.3503
       215                         -0.1904725              -5.1830
       216                         -0.1843876              -5.0174
       217                         -0.1778315              -4.8390
       ...                                ...                  ...
       410                          0.8054929              21.9186
      -------------------------------------------------------------
                  HL-Gap            0.0185738 Eh            0.5054 eV
             Fermi-level           -0.2149163 Eh           -5.8482 eV

 SCC (total)                   0 d,  0 h,  0 min,  3.296 sec
 SCC setup                      ...        0 min,  0.000 sec (  0.014%)
 Dispersion                     ...        0 min,  0.003 sec (  0.077%)
 classical contributions        ...        0 min,  0.000 sec (  0.015%)
 integral evaluation            ...        0 min,  0.017 sec (  0.506%)
 iterations                     ...        0 min,  3.180 sec ( 96.467%)
 molecular gradient             ...        0 min,  0.074 sec (  2.230%)
 printout                       ...        0 min,  0.023 sec (  0.689%)

         :::::::::::::::::::::::::::::::::::::::::::::::::::::
         ::                     SUMMARY                     ::
         :::::::::::::::::::::::::::::::::::::::::::::::::::::
         :: total energy            -228.476349265123 Eh    ::
         :: gradient norm              0.190099261905 Eh/a0 ::
         :: HOMO-LUMO gap              0.505420049895 eV    ::
         ::.................................................::
         :: SCC energy              -232.588011826897 Eh    ::
         :: -> isotropic ES            0.177596971597 Eh    ::
         :: -> anisotropic ES          0.021597468818 Eh    ::
         :: -> anisotropic XC          0.137306297440 Eh    ::
         :: -> dispersion             -0.254944852841 Eh    ::
         :: repulsion energy           4.090286589887 Eh    ::
         :: add. restraining           0.000000000000 Eh    ::
         :: total charge              -0.999999902388 e     ::
         :::::::::::::::::::::::::::::::::::::::::::::::::::::

      ----------------------------------------------------------- 
     |                   =====================                   |
     |                        A N C O P T                        |
     |                   =====================                   |
     |               Approximate Normal Coordinate               |
     |                Rational Function Optimizer                |
      ----------------------------------------------------------- 

          ...................................................
          :                      SETUP                      :
          :.................................................:
          :   optimization level            normal          :
          :   max. optcycles                   420          :
          :   ANC micro-cycles                  20          :
          :   degrees of freedom               414          :
          :.................................................:
          :   RF solver                   davidson          :
          :   write xtbopt.log                true          :
          :   linear?                        false          :
          :   energy convergence         0.5000000E-05 Eh   :
          :   grad. convergence          0.1000000E-02 Eh/α :
          :   maxmium RF displ.          1.0000000          :
          :   Hlow (freq-cutoff)         0.1000000E-01      :
          :   Hmax (freq-cutoff)         5.0000000          :
          :   S6 in model hess.         20.0000000          :
          ...................................................

generating ANC from model Hessian ...
Using Lindh-Hessian (1995)
 Shifting diagonal of input Hessian by    9.9895992339308157E-003
 Lowest  eigenvalues of input Hessian
    0.000000    0.000000    0.000000    0.000000    0.000000    0.000000
    0.010000    0.010048    0.010099    0.010123    0.010167    0.010232
    0.010304    0.010414    0.010568    0.010701    0.010747    0.010855
 Highest eigenvalues
    2.160942    2.162670    2.297252    2.298269    2.533623    2.533754


........................................................................
.............................. CYCLE    1 ..............................
........................................................................

 iter      E             dE          RMSdq      gap      omega  full diag
   1   -232.5880118 -0.232588E+03  0.128E-05    0.51       0.0  T
   2   -232.5880118  0.569389E-08  0.131E-04    0.51      64.5  T
   3   -232.5880118 -0.561056E-08  0.188E-05    0.51     448.6  T
     SCC iter.                  ...        0 min,  0.337 sec
     gradient                   ...        0 min,  0.066 sec
 * total energy  :  -228.4763493 Eh     change       -0.6620922E-08 Eh
   gradient norm :     0.1900983 Eh/α   predicted     0.0000000E+00 (-100.00%)
   displ. norm   :     0.6683314 α      lambda       -0.1088305E+00
   maximum displ.:     0.2491914 α      in ANC's #81, #206, #227, ...

........................................................................
.............................. CYCLE    2 ..............................
........................................................................

 iter      E             dE          RMSdq      gap      omega  full diag
   1   -232.6647175 -0.232665E+03  0.229E-01    0.57       0.0  T
   2   -232.6048963  0.598211E-01  0.477E-01    0.38       1.0  T
   3   -232.6280378 -0.231414E-01  0.385E-01    0.42       1.0  T
   4   -232.6511788 -0.231411E-01  0.261E-01    0.55       1.0  T
   5   -232.6448417  0.633718E-02  0.288E-01    0.48       1.0  T
   6   -232.6697194 -0.248777E-01  0.760E-02    0.55       1.0  T
   7   -232.6635666  0.615276E-02  0.155E-01    0.55       1.0  T
   8   -232.6716606 -0.809398E-02  0.871E-03    0.56       1.0  T
   9   -232.6716219  0.386660E-04  0.130E-02    0.56       1.0  T
  10   -232.6716778 -0.558693E-04  0.204E-03    0.56       4.2  T
  11   -232.6716791 -0.130846E-05  0.334E-04    0.56      25.3  T
  12   -232.6716791  0.365713E-07  0.413E-04    0.56      20.5  T
  13   -232.6716791 -0.497934E-07  0.693E-05    0.56     121.9  T
     SCC iter.                  ...        0 min,  1.170 sec
     gradient                   ...        0 min,  0.071 sec
 * total energy  :  -228.5567172 Eh     change       -0.8036792E-01 Eh
   gradient norm :     0.0960628 Eh/α   predicted    -0.7873060E-01 (  -2.04%)
   displ. norm   :     0.5399333 α      lambda       -0.4415125E-01
   maximum displ.:     0.2275040 α      in ANC's #81, #227, #232, ...

........................................................................
.............................. CYCLE    3 ..............................
........................................................................

 iter      E             dE          RMSdq      gap      omega  full diag
   1   -232.7049060 -0.232705E+03  0.125E-01    0.64       0.0  T
   2   -232.6733401  0.315660E-01  0.320E-01    0.56       1.0  T
   3   -232.6756347 -0.229466E-02  0.310E-01    0.54       1.0  T
   4   -232.7056069 -0.299722E-01  0.514E-02    0.64       1.0  T
   5   -232.7056777 -0.708045E-04  0.308E-02    0.62       1.0  T
   6   -232.7059352 -0.257520E-03  0.628E-03    0.63       1.3  T
   7   -232.7059327  0.254065E-05  0.469E-03    0.63       1.8  T
   8   -232.7059384 -0.573194E-05  0.141E-03    0.63       6.0  T
   9   -232.7059385 -0.123304E-06  0.990E-04    0.63       8.5  T
  10   -232.7059387 -0.229928E-06  0.480E-04    0.63      17.6  T
     SCC iter.                  ...        0 min,  0.964 sec
     gradient                   ...        0 min,  0.066 sec
 * total energy  :  -228.5905644 Eh     change       -0.3384721E-01 Eh
   gradient norm :     0.0498918 Eh/α   predicted    -0.2851129E-01 ( -15.76%)
   displ. norm   :     0.5641539 α      lambda       -0.2476071E-01
   maximum displ.:     0.2643960 α      in ANC's #81, #87, #42, ...

........................................................................
.............................. CYCLE    4 ..............................
........................................................................

 iter      E             dE          RMSdq      gap      omega  full diag
   1   -232.7217161 -0.232722E+03  0.941E-02    0.68       0.0  T
   2   -232.7205525  0.116359E-02  0.826E-02    0.65       1.0  T
   3   -232.6738455  0.467071E-01  0.386E-01    0.60       1.0  T
   4   -232.7212450 -0.473995E-01  0.528E-02    0.67       1.0  T
   5   -232.7214017 -0.156711E-03  0.410E-02    0.67       1.0  T
   6   -232.7219316 -0.529894E-03  0.713E-03    0.67       1.2  T
   7   -232.7219136  0.180113E-04  0.958E-03    0.67       1.0  T
   8   -232.7219358 -0.222071E-04  0.511E-03    0.67       1.7  T
   9   -232.7219444 -0.861737E-05  0.313E-04    0.67      27.0  T
  10   -232.7219442  0.187328E-06  0.777E-04    0.67      10.9  T
  11   -232.7219443 -0.103917E-06  0.546E-04    0.67      15.5  T
     SCC iter.                  ...        0 min,  0.801 sec
     gradient                   ...        0 min,  0.072 sec
 * total energy  :  -228.6094448 Eh     change       -0.1888040E-01 Eh
   gradient norm :     0.0281198 Eh/α   predicted    -0.1632065E-01 ( -13.56%)
   displ. norm   :     0.5614882 α      lambda       -0.1336689E-01
   maximum displ.:     0.2610419 α      in ANC's #81, #42, #40, ...

........................................................................
.............................. CYCLE    5 ..............................
........................................................................

 iter      E             dE          RMSdq      gap      omega  full diag
   1   -232.7272104 -0.232727E+03  0.835E-02    0.69       0.0  T
   2   -232.6970905  0.301200E-01  0.307E-01    0.61       1.0  T
   3   -232.7181626 -0.210722E-01  0.172E-01    0.66       1.0  T
   4   -232.7247495 -0.658690E-02  0.910E-02    0.68       1.0  T
   5   -232.7272155 -0.246601E-02  0.260E-02    0.68       1.0  T
   6   -232.7274329 -0.217398E-03  0.417E-03    0.69       2.0  T
   7   -232.7274327  0.186782E-06  0.382E-03    0.69       2.2  T
   8   -232.7274365 -0.381564E-05  0.179E-03    0.69       4.7  T
   9   -232.7274374 -0.872470E-06  0.704E-04    0.69      12.0  T
  10   -232.7274375 -0.115634E-06  0.386E-04    0.69      21.9  T
     SCC iter.                  ...        0 min,  1.123 sec
     gradient                   ...        0 min,  0.066 sec
 * total energy  :  -228.6197057 Eh     change       -0.1026091E-01 Eh
   gradient norm :     0.0205892 Eh/α   predicted    -0.8790533E-02 ( -14.33%)
   displ. norm   :     0.5574498 α      lambda       -0.7517288E-02
   maximum displ.:     0.2364840 α      in ANC's #81, #27, #40, ...

........................................................................
.............................. CYCLE    6 ..............................
........................................................................

 iter      E             dE          RMSdq      gap      omega  full diag
   1   -232.7280126 -0.232728E+03  0.868E-02    0.68       0.0  T
   2   -232.6843517  0.436610E-01  0.372E-01    0.57       1.0  T
   3   -232.7256397 -0.412881E-01  0.102E-01    0.68       1.0  T
   4   -232.7233183  0.232145E-02  0.125E-01    0.68       1.0  T
   5   -232.7284233 -0.510499E-02  0.141E-02    0.69       1.0  T
   6   -232.7284029  0.203917E-04  0.162E-02    0.69       1.0  T
   7   -232.7284855 -0.826309E-04  0.415E-03    0.69       2.0  T
   8   -232.7284886 -0.306023E-05  0.256E-03    0.69       3.3  T
   9   -232.7284894 -0.829484E-06  0.206E-03    0.69       4.1  T
  10   -232.7284908 -0.139575E-05  0.107E-04    0.69      79.2  T
  11   -232.7284908  0.999557E-08  0.196E-04    0.69      43.2  T
  12   -232.7284908 -0.102227E-07  0.848E-05    0.69      99.7  T
     SCC iter.                  ...        0 min,  1.207 sec
     gradient                   ...        0 min,  0.069 sec
 * total energy  :  -228.6254499 Eh     change       -0.5744136E-02 Eh
   gradient norm :     0.0150070 Eh/α   predicted    -0.4926648E-02 ( -14.23%)
   displ. norm   :     0.5422222 α      lambda       -0.4121265E-02
   maximum displ.:     0.1959303 α      in ANC's #81, #27, #8, ...

........................................................................
.............................. CYCLE    7 ..............................
........................................................................

 iter      E             dE          RMSdq      gap      omega  full diag
   1   -232.7279652 -0.232728E+03  0.855E-02    0.68       0.0  T
   2   -232.6815432  0.464220E-01  0.384E-01    0.56       1.0  T
   3   -232.7272656 -0.457224E-01  0.744E-02    0.68       1.0  T
   4   -232.7255814  0.168421E-02  0.944E-02    0.67       1.0  T
   5   -232.7285307 -0.294928E-02  0.842E-03    0.69       1.0  T
   6   -232.7285262  0.453528E-05  0.850E-03    0.69       1.0  T
   7   -232.7285356 -0.949541E-05  0.684E-03    0.68       1.2  T
   8   -232.7285508 -0.151478E-04  0.733E-04    0.69      11.5  T
   9   -232.7285497  0.112833E-05  0.195E-03    0.69       4.3  T
  10   -232.7285509 -0.123672E-05  0.270E-04    0.69      31.2  T
  11   -232.7285509 -0.207358E-07  0.100E-04    0.69      84.5  T
  12   -232.7285509 -0.283106E-08  0.292E-05    0.69     289.2  T
     SCC iter.                  ...        0 min,  1.155 sec
     gradient                   ...        0 min,  0.066 sec
 * total energy  :  -228.6285542 Eh     change       -0.3104311E-02 Eh
   gradient norm :     0.0088355 Eh/α   predicted    -0.2666471E-02 ( -14.10%)
   displ. norm   :     0.5166391 α      lambda       -0.2141253E-02
   maximum displ.:     0.1603345 α      in ANC's #8, #81, #27, ...

........................................................................
.............................. CYCLE    8 ..............................
........................................................................

 iter      E             dE          RMSdq      gap      omega  full diag
   1   -232.7287130 -0.232729E+03  0.747E-02    0.67       0.0  T
   2   -232.6856133  0.430997E-01  0.367E-01    0.58       1.0  T
   3   -232.7278754 -0.422621E-01  0.710E-02    0.67       1.0  T
   4   -232.7274605  0.414887E-03  0.704E-02    0.67       1.0  T
   5   -232.7291049 -0.164446E-02  0.282E-03    0.68       3.0  T
   6   -232.7290760  0.289815E-04  0.956E-03    0.68       1.0  T
   7   -232.7291046 -0.285981E-04  0.272E-03    0.68       3.1  T
   8   -232.7291053 -0.757601E-06  0.213E-03    0.68       4.0  T
   9   -232.7291062 -0.872354E-06  0.144E-03    0.68       5.9  T
  10   -232.7291069 -0.672559E-06  0.161E-04    0.68      52.3  T
  11   -232.7291069 -0.348246E-08  0.122E-04    0.68      69.5  T
     SCC iter.                  ...        0 min,  0.978 sec
     gradient                   ...        0 min,  0.067 sec
 * total energy  :  -228.6301546 Eh     change       -0.1600437E-02 Eh
   gradient norm :     0.0046334 Eh/α   predicted    -0.1356396E-02 ( -15.25%)
   displ. norm   :     0.4995955 α      lambda       -0.1160810E-02
   maximum displ.:     0.1900019 α      in ANC's #8, #7, #27, ...

........................................................................
.............................. CYCLE    9 ..............................
........................................................................

 iter      E             dE          RMSdq      gap      omega  full diag
   1   -232.7298648 -0.232730E+03  0.624E-02    0.68       0.0  T
   2   -232.7046432  0.252216E-01  0.278E-01    0.62       1.0  T
   3   -232.7274483 -0.228051E-01  0.932E-02    0.67       1.0  T
   4   -232.7295893 -0.214097E-02  0.349E-02    0.68       1.0  T
   5   -232.7299355 -0.346248E-03  0.118E-02    0.68       1.0  T
   6   -232.7299798 -0.442372E-04  0.271E-03    0.68       3.1  T
   7   -232.7299817 -0.188954E-05  0.117E-03    0.68       7.2  T
   8   -232.7299816  0.569330E-07  0.122E-03    0.68       6.9  T
   9   -232.7299821 -0.450932E-06  0.376E-04    0.68      22.5  T
  10   -232.7299821 -0.402735E-07  0.151E-04    0.68      56.0  T
     SCC iter.                  ...        0 min,  0.996 sec
     gradient                   ...        0 min,  0.067 sec
 * total energy  :  -228.6310411 Eh     change       -0.8865293E-03 Eh
   gradient norm :     0.0045915 Eh/α   predicted    -0.7252742E-03 ( -18.19%)
   displ. norm   :     0.5100697 α      lambda       -0.7810092E-03
   maximum displ.:     0.2143365 α      in ANC's #8, #7, #1, ...

........................................................................
.............................. CYCLE   10 ..............................
........................................................................

 iter      E             dE          RMSdq      gap      omega  full diag
   1   -232.7308779 -0.232731E+03  0.586E-02    0.68       0.0  T
   2   -232.7293080  0.156990E-02  0.766E-02    0.67       1.0  T
   3   -232.7067559  0.225521E-01  0.270E-01    0.64       1.0  T
   4   -232.7306680 -0.239121E-01  0.260E-02    0.68       1.0  T
   5   -232.7308574 -0.189479E-03  0.928E-03    0.68       1.0  T
   6   -232.7308857 -0.282609E-04  0.131E-03    0.68       6.5  T
   7   -232.7308858 -0.133449E-06  0.104E-03    0.68       8.1  T
   8   -232.7308861 -0.271691E-06  0.477E-04    0.68      17.7  T
   9   -232.7308861 -0.305252E-07  0.344E-04    0.68      24.5  T
     SCC iter.                  ...        0 min,  0.718 sec
     gradient                   ...        0 min,  0.078 sec
 * total energy  :  -228.6316676 Eh     change       -0.6264640E-03 Eh
   gradient norm :     0.0052345 Eh/α   predicted    -0.4921089E-03 ( -21.45%)
   displ. norm   :     0.5410219 α      lambda       -0.6748065E-03
   maximum displ.:     0.2366572 α      in ANC's #8, #7, #1, ...

........................................................................
.............................. CYCLE   11 ..............................
........................................................................

 iter      E             dE          RMSdq      gap      omega  full diag
   1   -232.7317609 -0.232732E+03  0.629E-02    0.68       0.0  T
   2   -232.7197460  0.120149E-01  0.193E-01    0.66       1.0  T
   3   -232.7252451 -0.549910E-02  0.144E-01    0.66       1.0  T
   4   -232.7317413 -0.649625E-02  0.145E-02    0.69       1.0  T
   5   -232.7318027 -0.613533E-04  0.236E-03    0.68       3.6  T
   6   -232.7318042 -0.150514E-05  0.692E-04    0.68      12.2  T
   7   -232.7318042 -0.651751E-07  0.339E-04    0.68      25.0  T
   8   -232.7318042 -0.890867E-08  0.175E-04    0.68      48.3  T
     SCC iter.                  ...        0 min,  0.821 sec
     gradient                   ...        0 min,  0.091 sec
 * total energy  :  -228.6322376 Eh     change       -0.5700192E-03 Eh
   gradient norm :     0.0048397 Eh/α   predicted    -0.4361853E-03 ( -23.48%)
   displ. norm   :     0.5903074 α      lambda       -0.6952665E-03
   maximum displ.:     0.2608596 α      in ANC's #8, #7, #1, ...

........................................................................
.............................. CYCLE   12 ..............................
........................................................................

 iter      E             dE          RMSdq      gap      omega  full diag
   1   -232.7325375 -0.232733E+03  0.737E-02    0.69       0.0  T
   2   -232.6952476  0.372899E-01  0.338E-01    0.63       1.0  T
   3   -232.7300599 -0.348123E-01  0.973E-02    0.67       1.0  T
   4   -232.7313055 -0.124560E-02  0.657E-02    0.69       1.0  T
   5   -232.7327082 -0.140276E-02  0.128E-02    0.69       1.0  T
   6   -232.7327432 -0.349667E-04  0.792E-03    0.69       1.1  T
   7   -232.7327639 -0.207076E-04  0.144E-03    0.69       5.9  T
   8   -232.7327634  0.514584E-06  0.184E-03    0.69       4.6  T
   9   -232.7327645 -0.113506E-05  0.279E-04    0.69      30.3  T
  10   -232.7327645 -0.274696E-08  0.254E-04    0.69      33.3  T
  11   -232.7327646 -0.201241E-07  0.733E-05    0.69     115.2  T
     SCC iter.                  ...        0 min,  1.203 sec
     gradient                   ...        0 min,  0.067 sec
 * total energy  :  -228.6328407 Eh     change       -0.6030415E-03 Eh
   gradient norm :     0.0039964 Eh/α   predicted    -0.4687720E-03 ( -22.27%)
   displ. norm   :     0.6381489 α      lambda       -0.7371711E-03
   maximum displ.:     0.2882809 α      in ANC's #7, #8, #1, ...

........................................................................
.............................. CYCLE   13 ..............................
........................................................................

 iter      E             dE          RMSdq      gap      omega  full diag
   1   -232.7331800 -0.232733E+03  0.842E-02    0.69       0.0  T
   2   -232.6868725  0.463076E-01  0.378E-01    0.62       1.0  T
   3   -232.7312228 -0.443504E-01  0.939E-02    0.68       1.0  T
   4   -232.7303022  0.920590E-03  0.986E-02    0.69       1.0  T
   5   -232.7335839 -0.328171E-02  0.711E-03    0.69       1.2  T
   6   -232.7335456  0.383087E-04  0.128E-02    0.69       1.0  T
   7   -232.7335905 -0.448827E-04  0.580E-03    0.69       1.5  T
   8   -232.7336009 -0.104273E-04  0.153E-03    0.69       5.5  T
   9   -232.7336013 -0.400641E-06  0.111E-03    0.69       7.6  T
  10   -232.7336017 -0.408868E-06  0.119E-04    0.69      71.2  T
  11   -232.7336018 -0.444220E-08  0.225E-05    0.69     376.5  T
     SCC iter.                  ...        0 min,  1.091 sec
     gradient                   ...        0 min,  0.066 sec
 * total energy  :  -228.6334799 Eh     change       -0.6392848E-03 Eh
   gradient norm :     0.0042585 Eh/α   predicted    -0.5186913E-03 ( -18.86%)
   displ. norm   :     0.6683722 α      lambda       -0.7215772E-03
   maximum displ.:     0.3157460 α      in ANC's #7, #8, #1, ...

........................................................................
.............................. CYCLE   14 ..............................
........................................................................

 iter      E             dE          RMSdq      gap      omega  full diag
   1   -232.7335044 -0.232734E+03  0.891E-02    0.69       0.0  T
   2   -232.6859902  0.475142E-01  0.383E-01    0.62       1.0  T
   3   -232.7309274 -0.449371E-01  0.105E-01    0.68       1.0  T
   4   -232.7296809  0.124648E-02  0.112E-01    0.69       1.0  T
   5   -232.7339028 -0.422191E-02  0.121E-02    0.70       1.0  T
   6   -232.7338742  0.285853E-04  0.153E-02    0.69       1.0  T
   7   -232.7339392 -0.649388E-04  0.681E-03    0.70       1.2  T
   8   -232.7339530 -0.138085E-04  0.220E-03    0.70       3.8  T
   9   -232.7339542 -0.119103E-05  0.121E-03    0.70       7.0  T
  10   -232.7339547 -0.491069E-06  0.106E-04    0.70      79.4  T
  11   -232.7339547 -0.322387E-08  0.341E-05    0.70     247.5  T
     SCC iter.                  ...        0 min,  1.141 sec
     gradient                   ...        0 min,  0.066 sec
 * total energy  :  -228.6340991 Eh     change       -0.6191669E-03 Eh
   gradient norm :     0.0054394 Eh/α   predicted    -0.5219790E-03 ( -15.70%)
   displ. norm   :     0.6708862 α      lambda       -0.6418363E-03
   maximum displ.:     0.3280567 α      in ANC's #7, #1, #8, ...

........................................................................
.............................. CYCLE   15 ..............................
........................................................................

 iter      E             dE          RMSdq      gap      omega  full diag
   1   -232.7334332 -0.232733E+03  0.863E-02    0.69       0.0  T
   2   -232.6915295  0.419038E-01  0.358E-01    0.63       1.0  T
   3   -232.7290639 -0.375344E-01  0.126E-01    0.67       1.0  T
   4   -232.7310775 -0.201358E-02  0.885E-02    0.69       1.0  T
   5   -232.7335629 -0.248541E-02  0.212E-02    0.69       1.0  T
   6   -232.7336671 -0.104263E-03  0.123E-02    0.69       1.0  T
   7   -232.7337171 -0.499213E-04  0.231E-03    0.70       3.7  T
   8   -232.7337159  0.121059E-05  0.290E-03    0.70       2.9  T
   9   -232.7337186 -0.276915E-05  0.626E-04    0.69      13.5  T
  10   -232.7337187 -0.784895E-07  0.382E-04    0.69      22.1  T
  11   -232.7337188 -0.462967E-07  0.102E-04    0.69      83.0  T
     SCC iter.                  ...        0 min,  1.140 sec
     gradient                   ...        0 min,  0.065 sec
 * total energy  :  -228.6346523 Eh     change       -0.5532348E-03 Eh
   gradient norm :     0.0058642 Eh/α   predicted    -0.4653605E-03 ( -15.88%)
   displ. norm   :     0.6660017 α      lambda       -0.5861050E-03
   maximum displ.:     0.3351165 α      in ANC's #7, #1, #2, ...

........................................................................
.............................. CYCLE   16 ..............................
........................................................................

 iter      E             dE          RMSdq      gap      omega  full diag
   1   -232.7334019 -0.232733E+03  0.813E-02    0.69       0.0  T
   2   -232.7066361  0.267658E-01  0.285E-01    0.65       1.0  T
   3   -232.7257394 -0.191033E-01  0.158E-01    0.67       1.0  T
   4   -232.7332063 -0.746684E-02  0.312E-02    0.70       1.0  T
   5   -232.7334662 -0.259984E-03  0.125E-02    0.69       1.0  T
   6   -232.7335181 -0.519039E-04  0.204E-03    0.69       4.1  T
   7   -232.7335190 -0.867051E-06  0.110E-03    0.69       7.7  T
   8   -232.7335191 -0.451754E-07  0.993E-04    0.69       8.5  T
   9   -232.7335194 -0.309841E-06  0.243E-04    0.69      34.8  T
     SCC iter.                  ...        0 min,  0.964 sec
     gradient                   ...        0 min,  0.066 sec
 * total energy  :  -228.6351714 Eh     change       -0.5190780E-03 Eh
   gradient norm :     0.0050707 Eh/α   predicted    -0.4230419E-03 ( -18.50%)
   displ. norm   :     0.6831075 α      lambda       -0.6105169E-03
   maximum displ.:     0.3520171 α      in ANC's #7, #1, #2, ...

........................................................................
.............................. CYCLE   17 ..............................
........................................................................

 iter      E             dE          RMSdq      gap      omega  full diag
   1   -232.7340997 -0.232734E+03  0.804E-02    0.69       0.0  T
   2   -232.7246172  0.948246E-02  0.173E-01    0.67       1.0  T
   3   -232.7156048  0.901242E-02  0.238E-01    0.64       1.0  T
   4   -232.7336526 -0.180478E-01  0.380E-02    0.68       1.0  T
   5   -232.7340876 -0.434985E-03  0.119E-02    0.68       1.0  T
   6   -232.7341354 -0.478420E-04  0.807E-04    0.69      10.5  T
   7   -232.7341349  0.490231E-06  0.130E-03    0.69       6.5  T
   8   -232.7341354 -0.521804E-06  0.330E-04    0.69      25.6  T
   9   -232.7341355 -0.154242E-07  0.218E-04    0.69      38.9  T
     SCC iter.                  ...        0 min,  0.694 sec
     gradient                   ...        0 min,  0.066 sec
 * total energy  :  -228.6357258 Eh     change       -0.5544061E-03 Eh
   gradient norm :     0.0040156 Eh/α   predicted    -0.4477097E-03 ( -19.25%)
   displ. norm   :     0.7258633 α      lambda       -0.6913661E-03
   maximum displ.:     0.3809625 α      in ANC's #7, #1, #2, ...

........................................................................
.............................. CYCLE   18 ..............................
........................................................................

 iter      E             dE          RMSdq      gap      omega  full diag
   1   -232.7355543 -0.232736E+03  0.836E-02    0.68       0.0  T
   2   -232.7329475  0.260679E-02  0.100E-01    0.67       1.0  T
   3   -232.6977793  0.351683E-01  0.338E-01    0.60       1.0  T
   4   -232.7324297 -0.346504E-01  0.960E-02    0.67       1.0  T
   5   -232.7354296 -0.300000E-02  0.201E-02    0.68       1.0  T
   6   -232.7355477 -0.118007E-03  0.799E-03    0.68       1.1  T
   7   -232.7355689 -0.212004E-04  0.136E-03    0.68       6.2  T
   8   -232.7355679  0.937244E-06  0.206E-03    0.68       4.1  T
   9   -232.7355692 -0.128626E-05  0.721E-04    0.68      11.7  T
  10   -232.7355694 -0.144556E-06  0.289E-04    0.68      29.3  T
  11   -232.7355694 -0.134068E-07  0.209E-04    0.68      40.4  T
     SCC iter.                  ...        0 min,  1.103 sec
     gradient                   ...        0 min,  0.111 sec
 * total energy  :  -228.6363605 Eh     change       -0.6346346E-03 Eh
   gradient norm :     0.0049735 Eh/α   predicted    -0.5278170E-03 ( -16.83%)
   displ. norm   :     0.7710422 α      lambda       -0.7766663E-03
   maximum displ.:     0.4096523 α      in ANC's #7, #1, #2, ...

........................................................................
.............................. CYCLE   19 ..............................
........................................................................

 iter      E             dE          RMSdq      gap      omega  full diag
   1   -232.7372360 -0.232737E+03  0.871E-02    0.68       0.0  T
   2   -232.7370585  0.177464E-03  0.560E-02    0.68       1.0  T
   3   -232.6906916  0.463669E-01  0.375E-01    0.56       1.0  T
   4   -232.7361772 -0.454857E-01  0.558E-02    0.67       1.0  T
   5   -232.7372132 -0.103593E-02  0.992E-03    0.68       1.0  T
   6   -232.7372444 -0.312242E-04  0.966E-04    0.68       8.8  T
   7   -232.7372414  0.298596E-05  0.307E-03    0.68       2.8  T
   8   -232.7372411  0.302398E-06  0.321E-03    0.68       2.6  T
   9   -232.7372445 -0.345118E-05  0.228E-04    0.68      37.1  T
  10   -232.7372446 -0.960389E-08  0.149E-04    0.68      56.9  T
  11   -232.7372445  0.890338E-08  0.218E-04    0.68      38.8  T
     SCC iter.                  ...        0 min,  1.162 sec
     gradient                   ...        0 min,  0.069 sec
 * total energy  :  -228.6370798 Eh     change       -0.7193031E-03 Eh
   gradient norm :     0.0068842 Eh/α   predicted    -0.6192041E-03 ( -13.92%)
   displ. norm   :     0.8042700 α      lambda       -0.8546909E-03
   maximum displ.:     0.4309743 α      in ANC's #7, #1, #2, ...

........................................................................
.............................. CYCLE   20 ..............................
........................................................................

 iter      E             dE          RMSdq      gap      omega  full diag
   1   -232.7388764 -0.232739E+03  0.885E-02    0.68       0.0  T
   2   -232.7385638  0.312644E-03  0.603E-02    0.68       1.0  T
   3   -232.6874725  0.510912E-01  0.395E-01    0.60       1.0  T
   4   -232.7385115 -0.510390E-01  0.350E-02    0.68       1.0  T
   5   -232.7388397 -0.328138E-03  0.114E-02    0.68       1.0  T
   6   -232.7388554 -0.157657E-04  0.928E-03    0.68       1.0  T
   7   -232.7388833 -0.279072E-04  0.182E-03    0.68       4.6  T
   8   -232.7388836 -0.278116E-06  0.146E-03    0.68       5.8  T
   9   -232.7388838 -0.168299E-06  0.128E-03    0.68       6.6  T
  10   -232.7388843 -0.559859E-06  0.685E-05    0.68     123.4  T
  11   -232.7388843  0.459693E-09  0.688E-05    0.68     122.8  T
     SCC iter.                  ...        0 min,  1.194 sec
     gradient                   ...        0 min,  0.069 sec
 * total energy  :  -228.6378798 Eh     change       -0.8000532E-03 Eh
   gradient norm :     0.0075776 Eh/α   predicted    -0.7037786E-03 ( -12.03%)
   displ. norm   :     0.8369198 α      lambda       -0.9336206E-03
   maximum displ.:     0.4529201 α      in ANC's #7, #1, #2, ...
 * RMSD in coord.:     0.8015323 α      energy gain  -0.1615306E+00 Eh

generating ANC from model Hessian ...
Using Lindh-Hessian (1995)
 Shifting diagonal of input Hessian by    1.0000205339907140E-002
 Lowest  eigenvalues of input Hessian
    0.010000    0.000000    0.000000    0.000000    0.000000    0.000000
    0.000000    0.010018    0.010028    0.010074    0.010113    0.010166
    0.010200    0.010308    0.010397    0.010474    0.010683    0.010790
 Highest eigenvalues
    2.169219    2.172805    2.298793    2.300187    2.501610    2.507912


........................................................................
.............................. CYCLE   21 ..............................
........................................................................

 iter      E             dE          RMSdq      gap      omega  full diag
   1   -232.7398681 -0.232740E+03  0.882E-02    0.69       0.0  T
   2   -232.7398614  0.674110E-05  0.520E-02    0.69       1.0  T
   3   -232.7241539  0.157075E-01  0.216E-01    0.67       1.0  T
   4   -232.7393378 -0.151839E-01  0.393E-02    0.69       1.0  T
   5   -232.7398711 -0.533357E-03  0.279E-03    0.69       3.0  T
   6   -232.7398731 -0.199217E-05  0.106E-03    0.69       8.0  T
   7   -232.7398732 -0.562713E-07  0.855E-04    0.69       9.9  T
   8   -232.7398733 -0.159688E-06  0.395E-04    0.69      21.4  T
     SCC iter.                  ...        0 min,  0.796 sec
     gradient                   ...        0 min,  0.068 sec
 * total energy  :  -228.6387637 Eh     change       -0.8839158E-03 Eh
   gradient norm :     0.0067403 Eh/α   predicted     0.0000000E+00 (-100.00%)
   displ. norm   :     0.1323449 α      lambda       -0.2701906E-03
   maximum displ.:     0.0756054 α      in ANC's #9, #4, #8, ...

........................................................................
.............................. CYCLE   22 ..............................
........................................................................

 iter      E             dE          RMSdq      gap      omega  full diag
   1   -232.7411464 -0.232741E+03  0.171E-02    0.69       0.0  T
   2   -232.7409120  0.234323E-03  0.282E-02    0.69       1.0  T
   3   -232.7389247  0.198735E-02  0.812E-02    0.68       1.0  T
   4   -232.7411171 -0.219246E-02  0.969E-03    0.69       1.0  T
   5   -232.7411476 -0.304848E-04  0.120E-03    0.69       7.0  T
   6   -232.7411480 -0.394496E-06  0.338E-04    0.69      25.0  T
   7   -232.7411480 -0.250931E-07  0.140E-04    0.69      60.4  T
     SCC iter.                  ...        0 min,  0.856 sec
     gradient                   ...        0 min,  0.064 sec
 * total energy  :  -228.6390074 Eh     change       -0.2436367E-03 Eh
   gradient norm :     0.0039608 Eh/α   predicted    -0.1374623E-03 ( -43.58%)
   displ. norm   :     0.5027760 α      lambda       -0.8169659E-03
   maximum displ.:     0.2672511 α      in ANC's #9, #4, #8, ...

........................................................................
.............................. CYCLE   23 ..............................
........................................................................

 iter      E             dE          RMSdq      gap      omega  full diag
   1   -232.7430373 -0.232743E+03  0.556E-02    0.71       0.0  T
   2   -232.7424441  0.593200E-03  0.532E-02    0.69       1.0  T
   3   -232.7089781  0.334660E-01  0.318E-01    0.66       1.0  T
   4   -232.7424923 -0.335142E-01  0.409E-02    0.70       1.0  T
   5   -232.7430311 -0.538781E-03  0.739E-03    0.70       1.1  T
   6   -232.7430471 -0.160351E-04  0.271E-03    0.70       3.1  T
   7   -232.7430494 -0.229294E-05  0.656E-04    0.70      12.9  T
   8   -232.7430491  0.328070E-06  0.114E-03    0.70       7.4  T
   9   -232.7430495 -0.433039E-06  0.142E-04    0.70      59.7  T
  10   -232.7430495  0.248588E-08  0.151E-04    0.70      55.8  T
     SCC iter.                  ...        0 min,  1.043 sec
     gradient                   ...        0 min,  0.064 sec
 * total energy  :  -228.6396744 Eh     change       -0.6670275E-03 Eh
   gradient norm :     0.0057253 Eh/α   predicted    -0.5117412E-03 ( -23.28%)
   displ. norm   :     0.6193844 α      lambda       -0.7482572E-03
   maximum displ.:     0.3314251 α      in ANC's #9, #4, #8, ...

........................................................................
.............................. CYCLE   24 ..............................
........................................................................

 iter      E             dE          RMSdq      gap      omega  full diag
   1   -232.7430283 -0.232743E+03  0.612E-02    0.71       0.0  T
   2   -232.7344575  0.857079E-02  0.162E-01    0.68       1.0  T
   3   -232.7344424  0.150969E-04  0.163E-01    0.69       1.0  T
   4   -232.7429744 -0.853198E-02  0.184E-02    0.71       1.0  T
   5   -232.7430634 -0.890074E-04  0.215E-03    0.71       3.9  T
   6   -232.7430641 -0.685879E-06  0.107E-03    0.71       7.9  T
   7   -232.7430643 -0.225355E-06  0.444E-04    0.71      19.0  T
   8   -232.7430643  0.314822E-07  0.417E-04    0.71      20.3  T
     SCC iter.                  ...        0 min,  0.773 sec
     gradient                   ...        0 min,  0.066 sec
 * total energy  :  -228.6403254 Eh     change       -0.6509847E-03 Eh
   gradient norm :     0.0102411 Eh/α   predicted    -0.5177127E-03 ( -20.47%)
   displ. norm   :     0.6699076 α      lambda       -0.7733781E-03
   maximum displ.:     0.3596081 α      in ANC's #9, #4, #8, ...

........................................................................
.............................. CYCLE   25 ..............................
........................................................................

 iter      E             dE          RMSdq      gap      omega  full diag
   1   -232.7425794 -0.232743E+03  0.625E-02    0.72       0.0  T
   2   -232.7133824  0.291970E-01  0.296E-01    0.65       1.0  T
   3   -232.7404725 -0.270901E-01  0.879E-02    0.71       1.0  T
   4   -232.7423244 -0.185184E-02  0.355E-02    0.71       1.0  T
   5   -232.7426626 -0.338202E-03  0.137E-02    0.71       1.0  T
   6   -232.7427251 -0.625485E-04  0.258E-03    0.71       3.3  T
   7   -232.7427265 -0.139068E-05  0.152E-03    0.71       5.6  T
   8   -232.7427267 -0.239069E-06  0.125E-03    0.71       6.7  T
   9   -232.7427272 -0.433777E-06  0.506E-04    0.71      16.7  T
  10   -232.7427273 -0.676172E-07  0.252E-04    0.71      33.6  T
     SCC iter.                  ...        0 min,  1.209 sec
     gradient                   ...        0 min,  0.078 sec
 * total energy  :  -228.6410388 Eh     change       -0.7134533E-03 Eh
   gradient norm :     0.0111893 Eh/α   predicted    -0.5602354E-03 ( -21.48%)
   displ. norm   :     0.7172887 α      lambda       -0.9138946E-03
   maximum displ.:     0.3868997 α      in ANC's #9, #4, #8, ...

........................................................................
.............................. CYCLE   26 ..............................
........................................................................

 iter      E             dE          RMSdq      gap      omega  full diag
   1   -232.7426982 -0.232743E+03  0.673E-02    0.71       0.0  T
   2   -232.6998361  0.428621E-01  0.361E-01    0.61       1.0  T
   3   -232.7422056 -0.423696E-01  0.599E-02    0.71       1.0  T
   4   -232.7419582  0.247438E-03  0.569E-02    0.71       1.0  T
   5   -232.7430608 -0.110265E-02  0.414E-03    0.72       2.0  T
   6   -232.7430491  0.117565E-04  0.684E-03    0.72       1.2  T
   7   -232.7430622 -0.130971E-04  0.319E-03    0.71       2.6  T
   8   -232.7430654 -0.321014E-05  0.752E-04    0.71      11.2  T
   9   -232.7430652  0.206102E-06  0.109E-03    0.71       7.8  T
  10   -232.7430656 -0.398790E-06  0.891E-05    0.71      94.9  T
  11   -232.7430656 -0.914781E-09  0.616E-05    0.71     137.3  T
     SCC iter.                  ...        0 min,  1.386 sec
     gradient                   ...        0 min,  0.067 sec
 * total energy  :  -228.6418830 Eh     change       -0.8441182E-03 Eh
   gradient norm :     0.0087057 Eh/α   predicted    -0.6920508E-03 ( -18.01%)
   displ. norm   :     0.7491056 α      lambda       -0.1006383E-02
   maximum displ.:     0.4074719 α      in ANC's #9, #4, #8, ...

........................................................................
.............................. CYCLE   27 ..............................
........................................................................

 iter      E             dE          RMSdq      gap      omega  full diag
   1   -232.7436402 -0.232744E+03  0.734E-02    0.71       0.0  T
   2   -232.6958812  0.477590E-01  0.383E-01    0.59       1.0  T
   3   -232.7439521 -0.480709E-01  0.437E-02    0.71       1.0  T
   4   -232.7437528  0.199324E-03  0.364E-02    0.71       1.0  T
   5   -232.7439429 -0.190086E-03  0.286E-02    0.71       1.0  T
   6   -232.7442128 -0.269961E-03  0.585E-03    0.71       1.4  T
   7   -232.7442201 -0.728544E-05  0.320E-03    0.71       2.6  T
   8   -232.7442208 -0.678808E-06  0.285E-03    0.71       3.0  T
   9   -232.7442235 -0.274950E-05  0.364E-04    0.71      23.2  T
  10   -232.7442236 -0.433967E-07  0.388E-05    0.71     218.0  T
  11   -232.7442236  0.116365E-07  0.186E-04    0.71      45.4  T
     SCC iter.                  ...        0 min,  5.309 sec
     gradient                   ...        0 min,  0.119 sec
 * total energy  :  -228.6427720 Eh     change       -0.8890866E-03 Eh
   gradient norm :     0.0054831 Eh/α   predicted    -0.7855695E-03 ( -11.64%)
   displ. norm   :     0.7395151 α      lambda       -0.8877051E-03
   maximum displ.:     0.4031211 α      in ANC's #9, #4, #8, ...

........................................................................
.............................. CYCLE   28 ..............................
........................................................................

 iter      E             dE          RMSdq      gap      omega  full diag
   1   -232.7446606 -0.232745E+03  0.725E-02    0.70       0.0  T
   2   -232.6980813  0.465793E-01  0.378E-01    0.59       1.0  T
   3   -232.7447743 -0.466930E-01  0.476E-02    0.70       1.0  T
   4   -232.7444263  0.348037E-03  0.454E-02    0.70       1.0  T
   5   -232.7449993 -0.573052E-03  0.214E-02    0.71       1.0  T
   6   -232.7451543 -0.154955E-03  0.115E-03    0.71       7.3  T
   7   -232.7451510  0.324984E-05  0.318E-03    0.71       2.7  T
   8   -232.7451506  0.472200E-06  0.339E-03    0.71       2.5  T
   9   -232.7451544 -0.388866E-05  0.297E-04    0.71      28.5  T
  10   -232.7451545 -0.280910E-07  0.813E-05    0.71     104.0  T
  11   -232.7451545  0.305332E-08  0.123E-04    0.71      68.9  T
     SCC iter.                  ...        0 min,  3.403 sec
     gradient                   ...        0 min,  0.073 sec
 * total energy  :  -228.6435112 Eh     change       -0.7391616E-03 Eh
   gradient norm :     0.0060345 Eh/α   predicted    -0.6865958E-03 (  -7.11%)
   displ. norm   :     0.6548076 α      lambda       -0.6344180E-03
   maximum displ.:     0.3544183 α      in ANC's #9, #4, #8, ...

........................................................................
.............................. CYCLE   29 ..............................
........................................................................

 iter      E             dE          RMSdq      gap      omega  full diag
   1   -232.7459193 -0.232746E+03  0.601E-02    0.71       0.0  T
   2   -232.7238348  0.220845E-01  0.257E-01    0.66       1.0  T
   3   -232.7435195 -0.196847E-01  0.908E-02    0.70       1.0  T
   4   -232.7455847 -0.206518E-02  0.353E-02    0.70       1.0  T
   5   -232.7459941 -0.409362E-03  0.728E-03    0.70       1.2  T
   6   -232.7460109 -0.168592E-04  0.182E-03    0.71       4.6  T
   7   -232.7460118 -0.834624E-06  0.815E-04    0.71      10.4  T
   8   -232.7460118 -0.401826E-07  0.700E-04    0.71      12.1  T
     SCC iter.                  ...        0 min,  2.384 sec
     gradient                   ...        0 min,  0.087 sec
 * total energy  :  -228.6440096 Eh     change       -0.4983852E-03 Eh
   gradient norm :     0.0070999 Eh/α   predicted    -0.4532202E-03 (  -9.06%)
   displ. norm   :     0.5144019 α      lambda       -0.4288082E-03
   maximum displ.:     0.2682154 α      in ANC's #9, #4, #5, ...

........................................................................
.............................. CYCLE   30 ..............................
........................................................................

 iter      E             dE          RMSdq      gap      omega  full diag
   1   -232.7475571 -0.232748E+03  0.544E-02    0.71       0.0  T
   2   -232.7322578  0.152993E-01  0.214E-01    0.68       1.0  T
   3   -232.7444007 -0.121430E-01  0.101E-01    0.69       1.0  T
   4   -232.7475670 -0.316629E-02  0.131E-02    0.71       1.0  T
   5   -232.7475965 -0.295281E-04  0.694E-03    0.71       1.2  T
   6   -232.7476130 -0.164125E-04  0.654E-04    0.71      12.9  T
   7   -232.7476128  0.192067E-06  0.880E-04    0.71       9.6  T
   8   -232.7476130 -0.237347E-06  0.180E-04    0.71      47.0  T
     SCC iter.                  ...        0 min,  2.684 sec
     gradient                   ...        0 min,  0.073 sec
 * total energy  :  -228.6443426 Eh     change       -0.3329655E-03 Eh
   gradient norm :     0.0062951 Eh/α   predicted    -0.2711385E-03 ( -18.57%)
   displ. norm   :     0.4276478 α      lambda       -0.3598972E-03
   maximum displ.:     0.1993027 α      in ANC's #4, #9, #5, ...

........................................................................
.............................. CYCLE   31 ..............................
........................................................................

 iter      E             dE          RMSdq      gap      omega  full diag
   1   -232.7490401 -0.232749E+03  0.618E-02    0.71       0.0  T
   2   -232.7074185  0.416215E-01  0.353E-01    0.64       1.0  T
   3   -232.7486665 -0.412479E-01  0.536E-02    0.70       1.0  T
   4   -232.7489384 -0.271890E-03  0.343E-02    0.71       1.0  T
   5   -232.7493257 -0.387327E-03  0.439E-03    0.71       1.9  T
   6   -232.7493159  0.975210E-05  0.687E-03    0.71       1.2  T
   7   -232.7493322 -0.162170E-04  0.668E-04    0.71      12.6  T
   8   -232.7493311  0.105400E-05  0.182E-03    0.71       4.6  T
   9   -232.7493322 -0.106791E-05  0.536E-04    0.71      15.8  T
  10   -232.7493323 -0.893570E-07  0.136E-04    0.71      62.0  T
  11   -232.7493323  0.218375E-08  0.157E-04    0.71      53.7  T
     SCC iter.                  ...        0 min,  1.273 sec
     gradient                   ...        0 min,  0.067 sec
 * total energy  :  -228.6446214 Eh     change       -0.2788518E-03 Eh
   gradient norm :     0.0044849 Eh/α   predicted    -0.2128585E-03 ( -23.67%)
   displ. norm   :     0.4075663 α      lambda       -0.3035703E-03
   maximum displ.:     0.1952137 α      in ANC's #4, #9, #5, ...

........................................................................
.............................. CYCLE   32 ..............................
........................................................................

 iter      E             dE          RMSdq      gap      omega  full diag
   1   -232.7491279 -0.232749E+03  0.654E-02    0.71       0.0  T
   2   -232.7015738  0.475541E-01  0.380E-01    0.63       1.0  T
   3   -232.7494388 -0.478650E-01  0.367E-02    0.71       1.0  T
   4   -232.7495525 -0.113759E-03  0.106E-02    0.72       1.0  T
   5   -232.7495669 -0.143100E-04  0.811E-03    0.71       1.0  T
   6   -232.7495881 -0.212592E-04  0.101E-03    0.71       8.4  T
   7   -232.7495873  0.824698E-06  0.182E-03    0.71       4.6  T
   8   -232.7495874 -0.695390E-07  0.177E-03    0.71       4.8  T
   9   -232.7495883 -0.961272E-06  0.511E-04    0.71      16.5  T
  10   -232.7495884 -0.711357E-07  0.236E-04    0.71      35.9  T
     SCC iter.                  ...        0 min,  2.643 sec
     gradient                   ...        0 min,  0.110 sec
 * total energy  :  -228.6448508 Eh     change       -0.2294298E-03 Eh
   gradient norm :     0.0042304 Eh/α   predicted    -0.1770050E-03 ( -22.85%)
   displ. norm   :     0.3821433 α      lambda       -0.2284168E-03
   maximum displ.:     0.1896594 α      in ANC's #4, #5, #9, ...

........................................................................
.............................. CYCLE   33 ..............................
........................................................................

 iter      E             dE          RMSdq      gap      omega  full diag
   1   -232.7489939 -0.232749E+03  0.556E-02    0.71       0.0  T
   2   -232.7081953  0.407986E-01  0.349E-01    0.66       1.0  T
   3   -232.7490372 -0.408419E-01  0.372E-02    0.71       1.0  T
   4   -232.7492024 -0.165148E-03  0.135E-02    0.72       1.0  T
   5   -232.7492592 -0.568716E-04  0.328E-03    0.72       2.6  T
   6   -232.7492592 -0.235779E-07  0.294E-03    0.72       2.9  T
   7   -232.7492621 -0.281903E-05  0.755E-04    0.72      11.2  T
   8   -232.7492622 -0.981294E-07  0.472E-04    0.72      17.9  T
   9   -232.7492622 -0.443237E-07  0.318E-04    0.72      26.6  T
     SCC iter.                  ...        0 min,  3.321 sec
     gradient                   ...        0 min,  0.072 sec
 * total energy  :  -228.6450303 Eh     change       -0.1795094E-03 Eh
   gradient norm :     0.0051288 Eh/α   predicted    -0.1308902E-03 ( -27.08%)
   displ. norm   :     0.3893923 α      lambda       -0.2202169E-03
   maximum displ.:     0.1983049 α      in ANC's #4, #5, #9, ...

........................................................................
.............................. CYCLE   34 ..............................
........................................................................

 iter      E             dE          RMSdq      gap      omega  full diag
   1   -232.7490648 -0.232749E+03  0.503E-02    0.72       0.0  T
   2   -232.7235361  0.255286E-01  0.275E-01    0.68       1.0  T
   3   -232.7484996 -0.249635E-01  0.515E-02    0.71       1.0  T
   4   -232.7491347 -0.635053E-03  0.109E-02    0.72       1.0  T
   5   -232.7491653 -0.306129E-04  0.417E-03    0.72       2.0  T
   6   -232.7491704 -0.509709E-05  0.163E-03    0.72       5.2  T
   7   -232.7491711 -0.702828E-06  0.696E-04    0.72      12.1  T
   8   -232.7491712 -0.501295E-07  0.548E-04    0.72      15.4  T
     SCC iter.                  ...        0 min,  1.403 sec
     gradient                   ...        0 min,  0.075 sec
 * total energy  :  -228.6452069 Eh     change       -0.1765434E-03 Eh
   gradient norm :     0.0051186 Eh/α   predicted    -0.1268083E-03 ( -28.17%)
   displ. norm   :     0.3965103 α      lambda       -0.2149931E-03
   maximum displ.:     0.2093769 α      in ANC's #4, #5, #9, ...

........................................................................
.............................. CYCLE   35 ..............................
........................................................................

 iter      E             dE          RMSdq      gap      omega  full diag
   1   -232.7491731 -0.232749E+03  0.466E-02    0.72       0.0  T
   2   -232.7480782  0.109485E-02  0.626E-02    0.71       1.0  T
   3   -232.7308851  0.171931E-01  0.232E-01    0.69       1.0  T
   4   -232.7491704 -0.182853E-01  0.585E-03    0.72       1.4  T
   5   -232.7491678  0.263204E-05  0.542E-03    0.72       1.6  T
   6   -232.7491778 -0.996883E-05  0.700E-04    0.72      12.1  T
   7   -232.7491775  0.235616E-06  0.106E-03    0.72       7.9  T
   8   -232.7491779 -0.360824E-06  0.215E-04    0.72      39.2  T
   9   -232.7491779  0.533058E-08  0.236E-04    0.72      35.8  T
     SCC iter.                  ...        0 min,  0.820 sec
     gradient                   ...        0 min,  0.072 sec
 * total energy  :  -228.6453762 Eh     change       -0.1693058E-03 Eh
   gradient norm :     0.0040697 Eh/α   predicted    -0.1244024E-03 ( -26.52%)
   displ. norm   :     0.3689481 α      lambda       -0.1744987E-03
   maximum displ.:     0.2037337 α      in ANC's #4, #5, #12, ...

........................................................................
.............................. CYCLE   36 ..............................
........................................................................

 iter      E             dE          RMSdq      gap      omega  full diag
   1   -232.7492312 -0.232749E+03  0.437E-02    0.72       0.0  T
   2   -232.7322899  0.169413E-01  0.223E-01    0.68       1.0  T
   3   -232.7480154 -0.157255E-01  0.651E-02    0.71       1.0  T
   4   -232.7491151 -0.109967E-02  0.227E-02    0.71       1.0  T
   5   -232.7492892 -0.174107E-03  0.383E-03    0.72       2.2  T
   6   -232.7492935 -0.432188E-05  0.122E-03    0.72       6.9  T
   7   -232.7492940 -0.491828E-06  0.232E-04    0.72      36.5  T
   8   -232.7492939  0.819946E-07  0.516E-04    0.72      16.4  T
     SCC iter.                  ...        0 min,  1.054 sec
     gradient                   ...        0 min,  0.070 sec
 * total energy  :  -228.6455119 Eh     change       -0.1356620E-03 Eh
   gradient norm :     0.0034555 Eh/α   predicted    -0.9912829E-04 ( -26.93%)
   displ. norm   :     0.3207148 α      lambda       -0.1328609E-03
   maximum displ.:     0.1838872 α      in ANC's #4, #5, #6, ...

........................................................................
.............................. CYCLE   37 ..............................
........................................................................

 iter      E             dE          RMSdq      gap      omega  full diag
   1   -232.7494952 -0.232749E+03  0.370E-02    0.72       0.0  T
   2   -232.7341572  0.153381E-01  0.212E-01    0.68       1.0  T
   3   -232.7488873 -0.147301E-01  0.479E-02    0.71       1.0  T
   4   -232.7494813 -0.593906E-03  0.141E-02    0.72       1.0  T
   5   -232.7495483 -0.670672E-04  0.223E-03    0.72       3.8  T
   6   -232.7495495 -0.117924E-05  0.999E-04    0.72       8.5  T
   7   -232.7495498 -0.327464E-06  0.186E-04    0.72      45.3  T
   8   -232.7495498  0.539561E-07  0.414E-04    0.72      20.4  T
     SCC iter.                  ...        0 min,  1.047 sec
     gradient                   ...        0 min,  0.068 sec
 * total energy  :  -228.6456183 Eh     change       -0.1064618E-03 Eh
   gradient norm :     0.0034617 Eh/α   predicted    -0.7326855E-04 ( -31.18%)
   displ. norm   :     0.3033608 α      lambda       -0.1211442E-03
   maximum displ.:     0.1772344 α      in ANC's #4, #5, #6, ...

........................................................................
.............................. CYCLE   38 ..............................
........................................................................

 iter      E             dE          RMSdq      gap      omega  full diag
   1   -232.7499081 -0.232750E+03  0.337E-02    0.72       0.0  T
   2   -232.7393177  0.105904E-01  0.176E-01    0.69       1.0  T
   3   -232.7492895 -0.997180E-02  0.471E-02    0.71       1.0  T
   4   -232.7499233 -0.633828E-03  0.772E-03    0.72       1.1  T
   5   -232.7499417 -0.184160E-04  0.183E-03    0.72       4.6  T
   6   -232.7499427 -0.975411E-06  0.444E-04    0.72      19.0  T
   7   -232.7499428 -0.431645E-07  0.184E-04    0.72      46.0  T
     SCC iter.                  ...        0 min,  1.733 sec
     gradient                   ...        0 min,  0.087 sec
 * total energy  :  -228.6457167 Eh     change       -0.9835295E-04 Eh
   gradient norm :     0.0032566 Eh/α   predicted    -0.6614671E-04 ( -32.75%)
   displ. norm   :     0.3107802 α      lambda       -0.1160734E-03
   maximum displ.:     0.1825627 α      in ANC's #4, #5, #6, ...

........................................................................
.............................. CYCLE   39 ..............................
........................................................................

 iter      E             dE          RMSdq      gap      omega  full diag
   1   -232.7501864 -0.232750E+03  0.329E-02    0.72       0.0  T
   2   -232.7468383  0.334808E-02  0.100E-01    0.70       1.0  T
   3   -232.7481589 -0.132059E-02  0.787E-02    0.71       1.0  T
   4   -232.7501939 -0.203502E-02  0.352E-03    0.72       2.4  T
   5   -232.7501965 -0.258393E-05  0.690E-04    0.72      12.2  T
   6   -232.7501966 -0.731798E-07  0.318E-04    0.72      26.5  T
   7   -232.7501966 -0.143605E-07  0.151E-04    0.72      55.8  T
     SCC iter.                  ...        0 min,  1.121 sec
     gradient                   ...        0 min,  0.068 sec
 * total energy  :  -228.6458095 Eh     change       -0.9280591E-04 Eh
   gradient norm :     0.0028605 Eh/α   predicted    -0.6364284E-04 ( -31.42%)
   displ. norm   :     0.3040823 α      lambda       -0.9965761E-04
   maximum displ.:     0.1788353 α      in ANC's #4, #5, #6, ...

........................................................................
.............................. CYCLE   40 ..............................
........................................................................

 iter      E             dE          RMSdq      gap      omega  full diag
   1   -232.7503526 -0.232750E+03  0.311E-02    0.72       0.0  T
   2   -232.7500334  0.319231E-03  0.355E-02    0.72       1.0  T
   3   -232.7384712  0.115622E-01  0.185E-01    0.69       1.0  T
   4   -232.7503500 -0.118788E-01  0.411E-03    0.72       2.1  T
   5   -232.7503524 -0.239875E-05  0.228E-03    0.72       3.7  T
   6   -232.7503540 -0.159479E-05  0.631E-04    0.72      13.4  T
   7   -232.7503541 -0.855483E-07  0.360E-04    0.72      23.5  T
   8   -232.7503541 -0.387709E-07  0.846E-05    0.72      99.9  T
     SCC iter.                  ...        0 min,  0.597 sec
     gradient                   ...        0 min,  0.092 sec
 * total energy  :  -228.6458891 Eh     change       -0.7961477E-04 Eh
   gradient norm :     0.0026641 Eh/α   predicted    -0.5443791E-04 ( -31.62%)
   displ. norm   :     0.2867676 α      lambda       -0.8499240E-04
   maximum displ.:     0.1681945 α      in ANC's #4, #6, #5, ...

........................................................................
.............................. CYCLE   41 ..............................
........................................................................

 iter      E             dE          RMSdq      gap      omega  full diag
   1   -232.7505020 -0.232751E+03  0.293E-02    0.72       0.0  T
   2   -232.7480812  0.242076E-02  0.853E-02    0.71       1.0  T
   3   -232.7487505 -0.669233E-03  0.728E-02    0.71       1.0  T
   4   -232.7505047 -0.175421E-02  0.427E-03    0.72       2.0  T
   5   -232.7505093 -0.460432E-05  0.636E-04    0.72      13.3  T
   6   -232.7505093 -0.232332E-07  0.465E-04    0.72      18.2  T
   7   -232.7505094 -0.584489E-07  0.133E-04    0.72      63.4  T
     SCC iter.                  ...        0 min,  0.949 sec
     gradient                   ...        0 min,  0.084 sec
 * total energy  :  -228.6459582 Eh     change       -0.6912620E-04 Eh
   gradient norm :     0.0026207 Eh/α   predicted    -0.4599505E-04 ( -33.46%)
   displ. norm   :     0.2836489 α      lambda       -0.8026139E-04
   maximum displ.:     0.1660891 α      in ANC's #4, #6, #5, ...

........................................................................
.............................. CYCLE   42 ..............................
........................................................................

 iter      E             dE          RMSdq      gap      omega  full diag
   1   -232.7506716 -0.232751E+03  0.286E-02    0.72       0.0  T
   2   -232.7493601  0.131148E-02  0.637E-02    0.72       1.0  T
   3   -232.7478074  0.155278E-02  0.919E-02    0.71       1.0  T
   4   -232.7506716 -0.286430E-02  0.434E-03    0.72       1.9  T
   5   -232.7506757 -0.407499E-05  0.946E-04    0.72       8.9  T
   6   -232.7506759 -0.181229E-06  0.471E-04    0.72      18.0  T
   7   -232.7506760 -0.553991E-07  0.138E-04    0.72      61.0  T
     SCC iter.                  ...        0 min,  0.853 sec
     gradient                   ...        0 min,  0.066 sec
 * total energy  :  -228.6460236 Eh     change       -0.6538859E-04 Eh
   gradient norm :     0.0024548 Eh/α   predicted    -0.4336276E-04 ( -33.68%)
   displ. norm   :     0.2839826 α      lambda       -0.7546342E-04
   maximum displ.:     0.1668333 α      in ANC's #4, #6, #5, ...
 * RMSD in coord.:     0.6680445 α      energy gain  -0.8143787E-02 Eh

generating ANC from model Hessian ...
Using Lindh-Hessian (1995)
 Shifting diagonal of input Hessian by    1.0011875679370796E-002
 Lowest  eigenvalues of input Hessian
    0.010000    0.000000    0.000000    0.000000    0.000000    0.000000
    0.000000    0.010040    0.010077    0.010091    0.010170    0.010194
    0.010287    0.010363    0.010485    0.010669    0.010756    0.010863
 Highest eigenvalues
    2.167465    2.173471    2.295907    2.300771    2.500763    2.502459


........................................................................
.............................. CYCLE   43 ..............................
........................................................................

 iter      E             dE          RMSdq      gap      omega  full diag
   1   -232.7507599 -0.232751E+03  0.283E-02    0.72       0.0  T
   2   -232.7507602 -0.317181E-06  0.166E-02    0.72       1.0  T
   3   -232.7505886  0.171573E-03  0.225E-02    0.72       1.0  T
   4   -232.7502888  0.299808E-03  0.368E-02    0.72       1.0  T
   5   -232.7507607 -0.471874E-03  0.696E-04    0.72      12.1  T
   6   -232.7507608 -0.805622E-07  0.336E-04    0.72      25.2  T
   7   -232.7507608 -0.598970E-08  0.207E-04    0.72      40.8  T
     SCC iter.                  ...        0 min,  0.549 sec
     gradient                   ...        0 min,  0.068 sec
 * total energy  :  -228.6460845 Eh     change       -0.6087397E-04 Eh
   gradient norm :     0.0021902 Eh/α   predicted     0.0000000E+00 (-100.00%)
   displ. norm   :     0.0396562 α      lambda       -0.1392759E-04
   maximum displ.:     0.0152459 α      in ANC's #4, #9, #6, ...

........................................................................
.............................. CYCLE   44 ..............................
........................................................................

 iter      E             dE          RMSdq      gap      omega  full diag
   1   -232.7507342 -0.232751E+03  0.673E-03    0.72       0.0  T
   2   -232.7498932  0.840949E-03  0.493E-02    0.72       1.0  T
   3   -232.7507145 -0.821304E-03  0.869E-03    0.72       1.0  T
   4   -232.7507340 -0.194996E-04  0.268E-03    0.72       3.2  T
   5   -232.7507365 -0.246454E-05  0.428E-04    0.72      19.7  T
   6   -232.7507365 -0.303816E-07  0.253E-04    0.72      33.5  T
   7   -232.7507366 -0.202138E-07  0.904E-05    0.72      93.5  T
     SCC iter.                  ...        0 min,  0.611 sec
     gradient                   ...        0 min,  0.070 sec
 * total energy  :  -228.6461063 Eh     change       -0.2183695E-04 Eh
   gradient norm :     0.0013055 Eh/α   predicted    -0.1210023E-04 ( -44.59%)
   displ. norm   :     0.3040450 α      lambda       -0.9613383E-04
   maximum displ.:     0.1184647 α      in ANC's #4, #9, #6, ...

........................................................................
.............................. CYCLE   45 ..............................
........................................................................

 iter      E             dE          RMSdq      gap      omega  full diag
   1   -232.7501540 -0.232750E+03  0.447E-02    0.72       0.0  T
   2   -232.7388878  0.112663E-01  0.182E-01    0.69       1.0  T
   3   -232.7476603 -0.877247E-02  0.887E-02    0.71       1.0  T
   4   -232.7500043 -0.234409E-02  0.231E-02    0.71       1.0  T
   5   -232.7501914 -0.187045E-03  0.239E-03    0.72       3.5  T
   6   -232.7501925 -0.115452E-05  0.126E-03    0.72       6.7  T
   7   -232.7501930 -0.427785E-06  0.600E-04    0.72      14.1  T
   8   -232.7501930 -0.663553E-07  0.354E-04    0.72      23.9  T
     SCC iter.                  ...        0 min,  0.813 sec
     gradient                   ...        0 min,  0.075 sec
 * total energy  :  -228.6461744 Eh     change       -0.6807439E-04 Eh
   gradient norm :     0.0038213 Eh/α   predicted    -0.5004238E-04 ( -26.49%)
   displ. norm   :     0.0505410 α      lambda       -0.2302682E-04
   maximum displ.:     0.0242233 α      in ANC's #4, #6, #3, ...

........................................................................
.............................. CYCLE   46 ..............................
........................................................................

 iter      E             dE          RMSdq      gap      omega  full diag
   1   -232.7503805 -0.232750E+03  0.926E-03    0.72       0.0  T
   2   -232.7441708  0.620968E-02  0.134E-01    0.70       1.0  T
   3   -232.7503981 -0.622727E-02  0.358E-03    0.72       2.4  T
   4   -232.7503968  0.129459E-05  0.243E-03    0.72       3.5  T
   5   -232.7503984 -0.163974E-05  0.887E-04    0.72       9.5  T
   6   -232.7503986 -0.155656E-06  0.487E-04    0.72      17.4  T
   7   -232.7503987 -0.846012E-07  0.417E-05    0.72     202.7  T
     SCC iter.                  ...        0 min,  0.688 sec
     gradient                   ...        0 min,  0.064 sec
 * total energy  :  -228.6461959 Eh     change       -0.2150129E-04 Eh
   gradient norm :     0.0029929 Eh/α   predicted    -0.1154303E-04 ( -46.31%)
   displ. norm   :     0.2477374 α      lambda       -0.1010339E-03
   maximum displ.:     0.1173796 α      in ANC's #4, #6, #3, ...

........................................................................
.............................. CYCLE   47 ..............................
........................................................................

 iter      E             dE          RMSdq      gap      omega  full diag
   1   -232.7503859 -0.232750E+03  0.414E-02    0.72       0.0  T
   2   -232.7061822  0.442037E-01  0.362E-01    0.65       1.0  T
   3   -232.7507163 -0.445341E-01  0.161E-02    0.72       1.0  T
   4   -232.7506798  0.364736E-04  0.120E-02    0.72       1.0  T
   5   -232.7506916 -0.117588E-04  0.905E-03    0.72       1.0  T
   6   -232.7507154 -0.237999E-04  0.395E-03    0.72       2.1  T
   7   -232.7507198 -0.437579E-05  0.150E-03    0.72       5.6  T
   8   -232.7507199 -0.145395E-06  0.136E-03    0.72       6.2  T
   9   -232.7507205 -0.630116E-06  0.184E-04    0.72      46.0  T
  10   -232.7507206 -0.833921E-08  0.965E-05    0.72      87.6  T
     SCC iter.                  ...        0 min,  1.136 sec
     gradient                   ...        0 min,  0.066 sec
 * total energy  :  -228.6462692 Eh     change       -0.7331337E-04 Eh
   gradient norm :     0.0013335 Eh/α   predicted    -0.5361782E-04 ( -26.86%)
   displ. norm   :     0.4141635 α      lambda       -0.5916136E-04
   maximum displ.:     0.1993600 α      in ANC's #4, #6, #3, ...

........................................................................
.............................. CYCLE   48 ..............................
........................................................................

 iter      E             dE          RMSdq      gap      omega  full diag
   1   -232.7496774 -0.232750E+03  0.558E-02    0.72       0.0  T
   2   -232.7007632  0.489142E-01  0.383E-01    0.63       1.0  T
   3   -232.7501670 -0.494038E-01  0.234E-02    0.73       1.0  T
   4   -232.7499798  0.187183E-03  0.246E-02    0.72       1.0  T
   5   -232.7501497 -0.169934E-03  0.735E-03    0.72       1.2  T
   6   -232.7501521 -0.240000E-05  0.701E-03    0.73       1.2  T
   7   -232.7501685 -0.163638E-04  0.990E-04    0.73       8.5  T
   8   -232.7501677  0.812456E-06  0.181E-03    0.73       4.7  T
   9   -232.7501688 -0.110377E-05  0.332E-04    0.73      25.4  T
  10   -232.7501688 -0.366994E-07  0.512E-05    0.73     165.2  T
  11   -232.7501688  0.427806E-08  0.120E-04    0.73      70.6  T
     SCC iter.                  ...        0 min,  0.807 sec
     gradient                   ...        0 min,  0.066 sec
 * total energy  :  -228.6463299 Eh     change       -0.6069460E-04 Eh
   gradient norm :     0.0039320 Eh/α   predicted    -0.3183596E-04 ( -47.55%)
   displ. norm   :     0.2036856 α      lambda       -0.4410990E-04
   maximum displ.:     0.1013502 α      in ANC's #4, #6, #3, ...

........................................................................
.............................. CYCLE   49 ..............................
........................................................................

 iter      E             dE          RMSdq      gap      omega  full diag
   1   -232.7501775 -0.232750E+03  0.203E-02    0.72       0.0  T
   2   -232.7396149  0.105626E-01  0.175E-01    0.70       1.0  T
   3   -232.7501765 -0.105616E-01  0.141E-02    0.72       1.0  T
   4   -232.7502091 -0.325981E-04  0.245E-03    0.73       3.5  T
   5   -232.7502102 -0.111421E-05  0.903E-04    0.73       9.4  T
   6   -232.7502103 -0.139780E-06  0.374E-04    0.73      22.6  T
   7   -232.7502104 -0.397615E-07  0.113E-04    0.73      74.8  T
     SCC iter.                  ...        0 min,  0.917 sec
     gradient                   ...        0 min,  0.066 sec
 * total energy  :  -228.6463710 Eh     change       -0.4108326E-04 Eh
   gradient norm :     0.0035337 Eh/α   predicted    -0.2297163E-04 ( -44.09%)
   displ. norm   :     0.3717437 α      lambda       -0.9947132E-04
   maximum displ.:     0.1887675 α      in ANC's #4, #6, #3, ...

........................................................................
.............................. CYCLE   50 ..............................
........................................................................

 iter      E             dE          RMSdq      gap      omega  full diag
   1   -232.7503554 -0.232750E+03  0.303E-02    0.72       0.0  T
   2   -232.7461417  0.421374E-02  0.112E-01    0.71       1.0  T
   3   -232.7493523 -0.321062E-02  0.566E-02    0.72       1.0  T
   4   -232.7503633 -0.101102E-02  0.439E-03    0.72       1.9  T
   5   -232.7503681 -0.476481E-05  0.672E-04    0.72      12.6  T
   6   -232.7503681 -0.614173E-07  0.297E-04    0.72      28.5  T
   7   -232.7503681  0.326847E-08  0.238E-04    0.72      35.6  T
     SCC iter.                  ...        0 min,  0.666 sec
     gradient                   ...        0 min,  0.070 sec
 * total energy  :  -228.6464575 Eh     change       -0.8650082E-04 Eh
   gradient norm :     0.0018476 Eh/α   predicted    -0.5660897E-04 ( -34.56%)
   displ. norm   :     0.7666369 α      lambda       -0.1185740E-03
   maximum displ.:     0.3970633 α      in ANC's #4, #6, #3, ...

[...]
                            58 C    0.102
    56   6 C    3.991 --    55 C    1.469    57 C    1.420    61 H    0.971
                            59 C    0.102
    57   6 C    3.966 --    58 C    1.427    56 C    1.420    62 H    0.972
    58   6 C    3.990 --    59 C    1.459    57 C    1.427    63 H    0.971
                            55 C    0.102
    59   6 C    3.971 --    58 C    1.459    54 C    1.356    64 H    0.963
                            56 C    0.102
    60   1 H    0.997 --    55 C    0.964
    61   1 H    0.999 --    56 C    0.971
    62   1 H    1.000 --    57 C    0.972
    63   1 H    0.999 --    58 C    0.971
    64   1 H    0.996 --    59 C    0.963
    65   1 H    0.997 --    49 C    0.966
    66   1 H    0.998 --    50 C    0.971
    67   1 H    0.999 --    51 C    0.970
    68   1 H    0.999 --    52 C    0.971
    69   1 H    0.998 --    53 C    0.966
    70   1 H    0.997 --    25 C    0.965
    71   6 C    3.986 --    74 C    1.298    72 C    1.219    73 C    1.214
    72   6 C    3.982 --    75 C    1.324    71 C    1.219    77 C    1.177
    73   6 C    3.985 --    76 C    1.327    71 C    1.214    78 C    1.175
    74   6 C    3.981 --    71 C    1.298    81 C    1.248    82 C    1.246
    75   6 C    3.987 --    72 C    1.324    83 C    1.248    85 C    1.223
    76   6 C    3.987 --    73 C    1.327    84 C    1.247    86 C    1.222
    77   6 C    3.988 --    89 C    1.325    79 C    1.271    72 C    1.177
    78   6 C    3.988 --    90 C    1.315    80 C    1.278    73 C    1.175
    79   6 C    3.983 --    91 C    1.296    77 C    1.271    87 C    1.226
    80   6 C    3.987 --    92 C    1.306    78 C    1.278    88 C    1.219
    81   6 C    3.980 --    83 C    1.592    74 C    1.248    97 H    0.967
    82   6 C    3.980 --    84 C    1.592    74 C    1.246    98 H    0.967
    83   6 C    3.976 --    81 C    1.592    75 C    1.248    99 H    0.968
    84   6 C    3.975 --    82 C    1.592    76 C    1.247   100 H    0.967
    85   6 C    3.980 --    87 C    1.619    75 C    1.223   101 H    0.968
    86   6 C    3.988 --    88 C    1.625    76 C    1.222   102 H    0.967
    87   6 C    3.981 --    85 C    1.619    79 C    1.226   103 H    0.968
    88   6 C    3.982 --    86 C    1.625    80 C    1.219   104 H    0.967
    89   6 C    3.983 --    93 C    1.457    77 C    1.325   105 H    0.952
                            91 C    0.104
    90   6 C    3.992 --    94 C    1.520    78 C    1.315   106 H    0.965
                            92 C    0.111
    91   6 C    3.983 --    95 C    1.539    79 C    1.296   107 H    0.968
                            89 C    0.104
    92   6 C    3.985 --    96 C    1.526    80 C    1.306   108 H    0.968
                            90 C    0.111
    93   6 C    3.980 --    89 C    1.457    95 C    1.305   111 C    1.029
    94   6 C    3.987 --    90 C    1.520    96 C    1.348   109 H    0.971
    95   6 C    3.979 --    91 C    1.539    93 C    1.305   140 H    0.967
    96   6 C    3.983 --    92 C    1.526    94 C    1.348   110 H    0.971
    97   1 H    0.998 --    81 C    0.967
    98   1 H    0.998 --    82 C    0.967
    99   1 H    0.998 --    83 C    0.968
   100   1 H    0.998 --    84 C    0.967
   101   1 H    0.998 --    85 C    0.968
   102   1 H    0.998 --    86 C    0.967
   103   1 H    0.998 --    87 C    0.968
   104   1 H    0.998 --    88 C    0.967
   105   1 H    0.996 --    89 C    0.952
   106   1 H    0.999 --    90 C    0.965
   107   1 H    0.998 --    91 C    0.968
   108   1 H    0.999 --    92 C    0.968
   109   1 H    0.999 --    94 C    0.971
   110   1 H    0.998 --    96 C    0.971
   111   6 C    3.972 --   112 N    1.407   116 N    1.404    93 C    1.029
   112   7 N    2.755 --   111 C    1.407   113 N    1.049   116 N    0.135
   113   7 N    3.530 --   114 C    1.112   124 C    1.074   112 N    1.049
                           117 O    0.121
   114   6 C    3.960 --   117 O    1.599   115 N    1.116   113 N    1.112
   115   7 N    3.536 --   114 C    1.116   118 C    1.077   116 N    1.050
                           117 O    0.120
   116   7 N    2.756 --   111 C    1.404   115 N    1.050   112 N    0.135
   117   8 O    1.962 --   114 C    1.599   113 N    0.121   115 N    0.120
   118   6 C    3.957 --   119 C    1.357   123 C    1.346   115 N    1.077
   119   6 C    3.971 --   120 C    1.458   118 C    1.357   135 H    0.964
                           122 C    0.102
   120   6 C    3.990 --   119 C    1.458   121 C    1.426   136 H    0.972
                           123 C    0.103
   121   6 C    3.966 --   120 C    1.426   122 C    1.420   137 H    0.972
   122   6 C    3.991 --   123 C    1.467   121 C    1.420   138 H    0.970
                           119 C    0.102
   123   6 C    3.971 --   122 C    1.467   118 C    1.346   139 H    0.960
                           120 C    0.103
   124   6 C    3.959 --   129 C    1.358   125 C    1.350   113 N    1.074
   125   6 C    3.972 --   126 C    1.467   124 C    1.350   130 H    0.964
                           128 C    0.103
   126   6 C    3.991 --   125 C    1.467   127 C    1.421   131 H    0.971
                           129 C    0.103
   127   6 C    3.967 --   128 C    1.427   126 C    1.421   132 H    0.972
   128   6 C    3.990 --   129 C    1.459   127 C    1.427   133 H    0.972
                           125 C    0.103
   129   6 C    3.972 --   128 C    1.459   124 C    1.358   134 H    0.965
                           126 C    0.103
   130   1 H    0.997 --   125 C    0.964
   131   1 H    0.999 --   126 C    0.971
   132   1 H    1.000 --   127 C    0.972
   133   1 H    0.999 --   128 C    0.972
   134   1 H    0.997 --   129 C    0.965
   135   1 H    0.997 --   119 C    0.964
   136   1 H    0.999 --   120 C    0.972
   137   1 H    1.000 --   121 C    0.972
   138   1 H    0.999 --   122 C    0.970
   139   1 H    0.997 --   123 C    0.960
   140   1 H    0.997 --    95 C    0.967
 ---------------------------------------------------------------------------

Topologies differ in bond orders
Writing corrected topology to xtbtopo.mol

molecular dipole:
                 x           y           z       tot (Debye)
 q only:       -3.314       2.457      -5.192
   full:       -3.161       2.288      -5.169      16.461
molecular quadrupole (traceless):
                xx          xy          yy          xz          yz          zz
 q only:       24.190      29.371      45.529     -25.963      38.462     -69.719
  q+dip:       35.832      31.458      51.603     -16.478      18.206     -87.435
   full:       25.909      28.777      47.602     -22.457      34.088     -73.511

           -------------------------------------------------
          |                Geometry Summary                 |
           -------------------------------------------------

      molecular mass/u    :     1155.3083450
   center of mass at/Å    :       -0.1583377       0.2135065       2.7463750
  moments of inertia/u·Å² :        0.1777816E+05   0.2269675E+05   0.3064956E+05
rotational constants/cm⁻¹ :        0.9482216E-03   0.7427334E-03   0.5500122E-03

 * 144 selected distances

     #   Z          #   Z                                           value/Å
     1   6 C        3   6 C                                       1.4350642 (max)
     1   6 C        4   6 C                                       1.4160999
     2   6 C        5   6 C                                       1.4091382
     3   6 C        6   6 C                                       1.4085516
     7   6 C        9   6 C                                       1.4174073
     8   6 C       10   6 C                                       1.4151432
     4   6 C       11   6 C                                       1.4146301
     4   6 C       12   6 C                                       1.4135279
     5   6 C       13   6 C                                       1.4151111
    11   6 C       13   6 C                                       1.3568748
     6   6 C       14   6 C                                       1.4138651
    12   6 C       14   6 C                                       1.3569503
     5   6 C       15   6 C                                       1.4202908
     6   6 C       16   6 C                                       1.4197581
     9   6 C       17   6 C                                       1.4184310
    15   6 C       17   6 C                                       1.3547079
    10   6 C       18   6 C                                       1.4195348
    16   6 C       18   6 C                                       1.3534997
     7   6 C       19   6 C                                       1.4020063
     8   6 C       20   6 C                                       1.4050867
     9   6 C       21   6 C                                       1.4070576
    10   6 C       22   6 C                                       1.4042958
    19   6 C       23   6 C                                       1.3781794
    20   6 C       24   6 C                                       1.3700708
    21   6 C       25   6 C                                       1.3666969
    23   6 C       25   6 C                                       1.4036781
    22   6 C       26   6 C                                       1.3685225
    24   6 C       26   6 C                                       1.3970957
    11   6 C       27   1 H                                       1.0816904
    12   6 C       28   1 H                                       1.0815916
    13   6 C       29   1 H                                       1.0814076
    14   6 C       30   1 H                                       1.0804845
    15   6 C       31   1 H                                       1.0818415
    16   6 C       32   1 H                                       1.0801736
    17   6 C       33   1 H                                       1.0815061
    18   6 C       34   1 H                                       1.0790267
    19   6 C       35   1 H                                       1.0762649
    20   6 C       36   1 H                                       1.0794970
    21   6 C       37   1 H                                       1.0820365
    22   6 C       38   1 H                                       1.0802488
    24   6 C       39   1 H                                       1.0806961
    26   6 C       40   1 H                                       1.0803432
    41   6 C       42   7 N                                       1.3158605
    43   7 N       44   6 C                                       1.3869730
    44   6 C       45   7 N                                       1.3778030
    41   6 C       46   7 N                                       1.3171188
    44   6 C       47   8 O                                       1.2162691
    45   7 N       48   6 C                                       1.4033682
    48   6 C       49   6 C                                       1.3929353
    49   6 C       50   6 C                                       1.3821670
    50   6 C       51   6 C                                       1.3850275
    51   6 C       52   6 C                                       1.3851937
    48   6 C       53   6 C                                       1.3940705
    52   6 C       53   6 C                                       1.3800446
    43   7 N       54   6 C                                       1.3960844
    54   6 C       55   6 C                                       1.3988672
    55   6 C       56   6 C                                       1.3783980
    56   6 C       57   6 C                                       1.3860611
    57   6 C       58   6 C                                       1.3851423
    54   6 C       59   6 C                                       1.3959699
    58   6 C       59   6 C                                       1.3814179
    55   6 C       60   1 H                                       1.0775733
    56   6 C       61   1 H                                       1.0814239
    57   6 C       62   1 H                                       1.0807597
    58   6 C       63   1 H                                       1.0811517
    59   6 C       64   1 H                                       1.0762353
    49   6 C       65   1 H                                       1.0773755
    50   6 C       66   1 H                                       1.0804880
    51   6 C       67   1 H                                       1.0792231
    52   6 C       68   1 H                                       1.0807132
    53   6 C       69   1 H                                       1.0785140
    25   6 C       70   1 H                                       1.0780878
    71   6 C       72   6 C                                       1.4341362
    71   6 C       74   6 C                                       1.4147215
    72   6 C       75   6 C                                       1.4078533
    73   6 C       76   6 C                                       1.4079368
    77   6 C       79   6 C                                       1.4150631
    78   6 C       80   6 C                                       1.4158373
    74   6 C       81   6 C                                       1.4144217
    74   6 C       82   6 C                                       1.4146458
    75   6 C       83   6 C                                       1.4141356
    81   6 C       83   6 C                                       1.3572488
    76   6 C       84   6 C                                       1.4144087
    82   6 C       84   6 C                                       1.3573775
    75   6 C       85   6 C                                       1.4207483
    76   6 C       86   6 C                                       1.4214218
    79   6 C       87   6 C                                       1.4185559
    85   6 C       87   6 C                                       1.3551683
    80   6 C       88   6 C                                       1.4204660
    86   6 C       88   6 C                                       1.3542418
    77   6 C       89   6 C                                       1.3988415
    78   6 C       90   6 C                                       1.4056349
    79   6 C       91   6 C                                       1.4071022
    80   6 C       92   6 C                                       1.4051328
    89   6 C       93   6 C                                       1.3761878
    90   6 C       94   6 C                                       1.3709210
    91   6 C       95   6 C                                       1.3680351
    93   6 C       95   6 C                                       1.4026990
    92   6 C       96   6 C                                       1.3694992
    94   6 C       96   6 C                                       1.3975170
    81   6 C       97   1 H                                       1.0806393
    82   6 C       98   1 H                                       1.0804103
    83   6 C       99   1 H                                       1.0811540
    84   6 C      100   1 H                                       1.0812609
    85   6 C      101   1 H                                       1.0814841
    86   6 C      102   1 H                                       1.0810614
    87   6 C      103   1 H                                       1.0812321
    88   6 C      104   1 H                                       1.0803785
    89   6 C      105   1 H                                       1.0753909 (min)
    90   6 C      106   1 H                                       1.0796747
    91   6 C      107   1 H                                       1.0817943
    92   6 C      108   1 H                                       1.0814326
    94   6 C      109   1 H                                       1.0804911
    96   6 C      110   1 H                                       1.0802964
   111   6 C      112   7 N                                       1.3147178
   113   7 N      114   6 C                                       1.3837603
   114   6 C      115   7 N                                       1.3824280
   111   6 C      116   7 N                                       1.3151571
   114   6 C      117   8 O                                       1.2173573
   115   7 N      118   6 C                                       1.3971235
   118   6 C      119   6 C                                       1.3955384
   119   6 C      120   6 C                                       1.3817921
   120   6 C      121   6 C                                       1.3853581
Note: The following floating-point exceptions are signalling: IEEE_UNDERFLOW_FLAG
normal termination of xtb
   121   6 C      122   6 C                                       1.3858188
   118   6 C      123   6 C                                       1.3979936
   122   6 C      123   6 C                                       1.3780669
   113   7 N      124   6 C                                       1.3968346
   124   6 C      125   6 C                                       1.3974078
   125   6 C      126   6 C                                       1.3787487
   126   6 C      127   6 C                                       1.3860028
   127   6 C      128   6 C                                       1.3851363
   124   6 C      129   6 C                                       1.3950641
   128   6 C      129   6 C                                       1.3811718
   125   6 C      130   1 H                                       1.0781029
   126   6 C      131   1 H                                       1.0812530
   127   6 C      132   1 H                                       1.0807458
   128   6 C      133   1 H                                       1.0810491
   129   6 C      134   1 H                                       1.0765375
   119   6 C      135   1 H                                       1.0763468
   120   6 C      136   1 H                                       1.0813328
   121   6 C      137   1 H                                       1.0809215
   122   6 C      138   1 H                                       1.0812382
   123   6 C      139   1 H                                       1.0761327
    95   6 C      140   1 H                                       1.0786538

 * 4 distinct bonds (by element types)

   Z      Z             #   av. dist./Å        max./Å        min./Å
   1 H    6 C          50     1.0799474     1.0820365     1.0753909
   6 C    6 C          80     1.3951829     1.4350642     1.3534997
   6 C    7 N          12     1.3656024     1.4033682     1.3147178
   6 C    8 O           2     1.2168132     1.2173573     1.2162691


optimized geometry written to: xtbopt.mol


           -------------------------------------------------
          | TOTAL ENERGY             -228.652557190036 Eh   |
          | GRADIENT NORM               0.000592716057 Eh/α |
          | HOMO-LUMO GAP               0.722460876499 eV   |
           -------------------------------------------------
########################################################################
[WARNING] Runtime exception occurred
-1- restart_readRestart: Number of electron missmatch in restart file.
########################################################################

------------------------------------------------------------------------
 * finished run on 2024/11/14 at 15:48:12.917     
------------------------------------------------------------------------
 total:
 * wall-time:     0 d,  0 h,  3 min, 11.523 sec
 *  cpu-time:     0 d,  0 h, 12 min,  2.562 sec
 * ratio c/w:     3.773 speedup
 SCF:
 * wall-time:     0 d,  0 h,  0 min,  3.297 sec
 *  cpu-time:     0 d,  0 h,  0 min, 14.453 sec
 * ratio c/w:     4.383 speedup
 ANC optimizer:
 * wall-time:     0 d,  0 h,  3 min,  8.190 sec
 *  cpu-time:     0 d,  0 h, 11 min, 48.053 sec
 * ratio c/w:     3.762 speedup

