      -----------------------------------------------------------      
     |                   =====================                   |     
     |                           x T B                           |     
     |                   =====================                   |     
     |                         S. Grimme                         |     
     |          Mulliken Center for Theoretical Chemistry        |     
     |                    University of Bonn                     |     
      -----------------------------------------------------------      

   * xtb version 6.6.1 (8d0f1dd) compiled by 'runner@Mac-1690902418499.local' on 2023-08-01

   xtb is free software: you can redistribute it and/or modify it under
   the terms of the GNU Lesser General Public License as published by
   the Free Software Foundation, either version 3 of the License, or
   (at your option) any later version.
   
   xtb is distributed in the hope that it will be useful,
   but WITHOUT ANY WARRANTY; without even the implied warranty of
   MERCHANTABILITY or FITNESS FOR A PARTICULAR PURPOSE.  See the
   GNU Lesser General Public License for more details.
   
   Cite this work as:
   * C. Bannwarth, E. Caldeweyher, S. Ehlert, A. Hansen, P. Pracht,
     J. Seibert, S. Spicher, S. Grimme, WIREs Comput. Mol. Sci., 2020, 11,
     e01493. DOI: 10.1002/wcms.1493
   
   for GFN2-xTB:
   * C. Bannwarth, S. Ehlert and S. Grimme., J. Chem. Theory Comput., 2019,
     15, 1652-1671. DOI: 10.1021/acs.jctc.8b01176
   for GFN1-xTB:
   * S. Grimme, C. Bannwarth, P. Shushkov, J. Chem. Theory Comput., 2017,
     13, 1989-2009. DOI: 10.1021/acs.jctc.7b00118
   for GFN0-xTB:
   * P. Pracht, E. Caldeweyher, S. Ehlert, S. Grimme, ChemRxiv, 2019, preprint.
     DOI: 10.26434/chemrxiv.8326202.v1
   for GFN-FF:
   * S. Spicher and S. Grimme, Angew. Chem. Int. Ed., 2020, 59, 15665-15673.
     DOI: 10.1002/anie.202004239
   
   for ALPB and GBSA implicit solvation:
   * S. Ehlert, M. Stahn, S. Spicher, S. Grimme, J. Chem. Theory Comput.,
     2021, 17, 4250-4261. DOI: 10.1021/acs.jctc.1c00471
   
   for DFT-D4:
   * E. Caldeweyher, C. Bannwarth and S. Grimme, J. Chem. Phys., 2017,
     147, 034112. DOI: 10.1063/1.4993215
   * E. Caldeweyher, S. Ehlert, A. Hansen, H. Neugebauer, S. Spicher,
     C. Bannwarth and S. Grimme, J. Chem. Phys., 2019, 150, 154122.
     DOI: 10.1063/1.5090222
   * E. Caldeweyher, J.-M. Mewes, S. Ehlert and S. Grimme, Phys. Chem. Chem. Phys.
     2020, 22, 8499-8512. DOI: 10.1039/D0CP00502A
   
   for sTDA-xTB:
   * S. Grimme and C. Bannwarth, J. Chem. Phys., 2016, 145, 054103.
     DOI: 10.1063/1.4959605
   
   in the mass-spec context:
   * V. Asgeirsson, C. Bauer and S. Grimme, Chem. Sci., 2017, 8, 4879.
     DOI: 10.1039/c7sc00601b
   * J. Koopman and S. Grimme, ACS Omega 2019, 4, 12, 15120-15133.
     DOI: 10.1021/acsomega.9b02011
   
   for metadynamics refer to:
   * S. Grimme, J. Chem. Theory Comput., 2019, 155, 2847-2862
     DOI: 10.1021/acs.jctc.9b00143
   
   for SPH calculations refer to:
   * S. Spicher and S. Grimme, J. Chem. Theory Comput., 2021, 17, 1701-1714
     DOI: 10.1021/acs.jctc.0c01306
   
   with help from (in alphabetical order)
   P. Atkinson, C. Bannwarth, F. Bohle, G. Brandenburg, E. Caldeweyher
   M. Checinski, S. Dohm, S. Ehlert, S. Ehrlich, I. Gerasimov, C. Hölzer
   A. Katbashev, J. Koopman, C. Lavigne, S. Lehtola, F. März, M. Müller,
   F. Musil, H. Neugebauer, J. Pisarek, C. Plett, P. Pracht, F. Pultar,
   J. Seibert, P. Shushkov, S. Spicher, M. Stahn, M. Steiner, T. Strunk,
   J. Stückrath, T. Rose, and J. Unsleber
   
 * started run on 2024/11/14 at 15:20:27.557     

           -------------------------------------------------
          |                Calculation Setup                |
           -------------------------------------------------

          program call               : xtb opt_anion_Verdazyl2.mol --gfn2 --sp --chrg -1 --uhf 0
          coordinate file            : opt_anion_Verdazyl2.mol
          omp threads                :                     8

   ID    Z sym.   atoms
    1    6 C      1-26, 41, 44, 48-59
    2    1 H      27-40, 60-70
    3    7 N      42, 43, 45, 46
    4    8 O      47
########################################################################
[WARNING] Please study the warnings concerning your input carefully
-1- prog_main: Charge in sdf/mol input was overwritten
########################################################################

           -------------------------------------------------
          |                 G F N 2 - x T B                 |
           -------------------------------------------------

        Reference                      10.1021/acs.jctc.8b01176
      * Hamiltonian:
        H0-scaling (s, p, d)           1.850000    2.230000    2.230000
        zeta-weighting                 0.500000
      * Dispersion:
        s8                             2.700000
        a1                             0.520000
        a2                             5.000000
        s9                             5.000000
      * Repulsion:
        kExp                           1.500000    1.000000
        rExp                           1.000000
      * Coulomb:
        alpha                          2.000000
        third order                    shell-resolved
        anisotropic                    true
        a3                             3.000000
        a5                             4.000000
        cn-shift                       1.200000
        cn-exp                         4.000000
        max-rad                        5.000000

q/qsh data taken from xtbrestart
CAMM data taken from xtbrestart

          ...................................................
          :                      SETUP                      :
          :.................................................:
          :  # basis functions                 205          :
          :  # atomic orbitals                 205          :
          :  # shells                          115          :
          :  # electrons                       212          :
          :  max. iterations                   250          :
          :  Hamiltonian                  GFN2-xTB          :
          :  restarted?                       true          :
          :  GBSA solvation                  false          :
          :  PC potential                    false          :
          :  electronic temp.          300.0000000     K    :
          :  accuracy                    1.0000000          :
          :  -> integral cutoff          0.2500000E+02      :
          :  -> integral neglect         0.1000000E-07      :
          :  -> SCF convergence          0.1000000E-05 Eh   :
          :  -> wf. convergence          0.1000000E-03 e    :
          :  Broyden damping             0.4000000          :
          ...................................................

 iter      E             dE          RMSdq      gap      omega  full diag
   1   -116.4227395 -0.116423E+03  0.967E-01    1.87       0.0  T
   2   -116.4548014 -0.320619E-01  0.608E-01    0.21       1.0  T
   3   -116.4588937 -0.409233E-02  0.359E-01    0.31       1.0  T
   4   -115.9947434  0.464150E+00  0.169E+00    0.12       1.0  T
   5   -116.3847469 -0.390003E+00  0.702E-01    0.05       1.0  T
   6   -116.4210712 -0.363243E-01  0.521E-01    0.05       1.0  T
   7   -116.4639525 -0.428813E-01  0.518E-02    0.16       1.0  T
   8   -116.4638416  0.110907E-03  0.439E-02    0.19       1.0  T
   9   -116.4639357 -0.940702E-04  0.345E-02    0.19       1.0  T
  10   -116.4639708 -0.351540E-04  0.296E-02    0.19       1.0  T
  11   -116.4640006 -0.298017E-04  0.259E-02    0.18       1.0  T
  12   -116.4640243 -0.236995E-04  0.225E-02    0.18       1.0  T
  13   -116.4640471 -0.227857E-04  0.189E-02    0.18       1.0  T
  14   -116.4640682 -0.210634E-04  0.147E-02    0.18       1.0  T
  15   -116.4640837 -0.155293E-04  0.108E-02    0.17       1.1  T
  16   -116.4640996 -0.159155E-04  0.363E-03    0.17       3.3  T
  17   -116.4641016 -0.199050E-05  0.580E-04    0.17      20.6  T
  18   -116.4641016 -0.422732E-07  0.212E-04    0.17      56.4  T
  19   -116.4641017 -0.501444E-08  0.112E-04    0.17     106.9  T

   *** convergence criteria satisfied after 19 iterations ***

         #    Occupation            Energy/Eh            Energy/eV
      -------------------------------------------------------------
         1        2.0000           -0.5848741             -15.9152
       ...           ...                  ...                  ...
       100        2.0000           -0.2799478              -7.6178
       101        2.0000           -0.2779686              -7.5639
       102        2.0000           -0.2761075              -7.5133
       103        2.0000           -0.2750533              -7.4846
       104        2.0000           -0.2583869              -7.0311
       105        2.0000           -0.2249054              -6.1200
       106        1.9236           -0.1864838              -5.0745 (HOMO)
       107        0.0747           -0.1803315              -4.9071 (LUMO)
       108        0.0017           -0.1767109              -4.8085
       109                         -0.1548538              -4.2138
       110                         -0.1485764              -4.0430
       111                         -0.1252663              -3.4087
       ...                                ...                  ...
       205                          0.8131555              22.1271
      -------------------------------------------------------------
                  HL-Gap            0.0061524 Eh            0.1674 eV
             Fermi-level           -0.1834189 Eh           -4.9911 eV

 SCC (total)                   0 d,  0 h,  0 min,  0.897 sec
 SCC setup                      ...        0 min,  0.000 sec (  0.024%)
 Dispersion                     ...        0 min,  0.001 sec (  0.073%)
 classical contributions        ...        0 min,  0.000 sec (  0.019%)
 integral evaluation            ...        0 min,  0.004 sec (  0.454%)
 iterations                     ...        0 min,  0.877 sec ( 97.822%)
 molecular gradient             ...        0 min,  0.014 sec (  1.560%)
 printout                       ...        0 min,  0.000 sec (  0.046%)

         :::::::::::::::::::::::::::::::::::::::::::::::::::::
         ::                     SUMMARY                     ::
         :::::::::::::::::::::::::::::::::::::::::::::::::::::
         :: total energy            -114.428405199352 Eh    ::
         :: gradient norm              0.000922093127 Eh/a0 ::
         :: HOMO-LUMO gap              0.167414149398 eV    ::
         ::.................................................::
         :: SCC energy              -116.464101650066 Eh    ::
         :: -> isotropic ES            0.135475385918 Eh    ::
         :: -> anisotropic ES          0.015198351586 Eh    ::
         :: -> anisotropic XC          0.066558053889 Eh    ::
         :: -> dispersion             -0.116426027048 Eh    ::
         :: repulsion energy           2.032746687258 Eh    ::
         :: add. restraining           0.000000000000 Eh    ::
         :: total charge              -0.999999649171 e     ::
         :::::::::::::::::::::::::::::::::::::::::::::::::::::

           -------------------------------------------------
          |                Property Printout                |
           -------------------------------------------------

    * Orbital Energies and Occupations

         #    Occupation            Energy/Eh            Energy/eV
      -------------------------------------------------------------
         1        2.0000           -0.5848741             -15.9152
       ...           ...                  ...                  ...
        94        2.0000           -0.3078877              -8.3780
        95        2.0000           -0.2953141              -8.0359
        96        2.0000           -0.2941527              -8.0043
        97        2.0000           -0.2923033              -7.9540
        98        2.0000           -0.2869580              -7.8085
        99        2.0000           -0.2863596              -7.7922
       100        2.0000           -0.2799478              -7.6178
       101        2.0000           -0.2779686              -7.5639
       102        2.0000           -0.2761075              -7.5133
       103        2.0000           -0.2750533              -7.4846
       104        2.0000           -0.2583869              -7.0311
       105        2.0000           -0.2249054              -6.1200
       106        1.9236           -0.1864838              -5.0745 (HOMO)
       107        0.0747           -0.1803315              -4.9071 (LUMO)
       108        0.0017           -0.1767109              -4.8085
       109                         -0.1548538              -4.2138
       110                         -0.1485764              -4.0430
       111                         -0.1252663              -3.4087
       112                         -0.1184572              -3.2234
       113                         -0.1108483              -3.0163
       114                         -0.1102011              -2.9987
       115                         -0.1084370              -2.9507
       116                         -0.0976280              -2.6566
       117                         -0.0953271              -2.5940
       ...                                ...                  ...
       205                          0.8131555              22.1271
      -------------------------------------------------------------
                  HL-Gap            0.0061524 Eh            0.1674 eV
             Fermi-level           -0.1834189 Eh           -4.9911 eV

     #   Z          covCN         q      C6AA      α(0)
     1   6 C        2.977     0.003    27.945     8.671
     2   6 C        2.979    -0.000    28.034     8.685
     3   6 C        2.979     0.002    27.969     8.675
     4   6 C        2.989     0.003    27.944     8.671
     5   6 C        2.987     0.001    28.007     8.681
     6   6 C        2.988     0.007    27.852     8.657
     7   6 C        2.982     0.007    27.862     8.659
     8   6 C        2.983     0.014    27.704     8.634
     9   6 C        2.988     0.003    27.955     8.673
    10   6 C        2.990     0.020    27.564     8.612
    11   6 C        2.918    -0.046    29.141     8.852
    12   6 C        2.918    -0.046    29.140     8.852
    13   6 C        2.917    -0.044    29.083     8.843
    14   6 C        2.917    -0.041    29.027     8.835
    15   6 C        2.916    -0.046    29.143     8.852
    16   6 C        2.917    -0.037    28.926     8.820
    17   6 C        2.914    -0.042    29.031     8.835
    18   6 C        2.915    -0.029    28.724     8.789
    19   6 C        2.929    -0.038    28.942     8.823
    20   6 C        2.920    -0.033    28.822     8.804
    21   6 C        2.920    -0.043    29.080     8.843
    22   6 C        2.923    -0.028    28.698     8.785
    23   6 C        2.990     0.006    27.870     8.660
    24   6 C        2.918    -0.032    28.786     8.798
    25   6 C        2.919    -0.032    28.800     8.800
    26   6 C        2.916    -0.028    28.698     8.785
    27   1 H        0.925     0.012     2.851     2.640
    28   1 H        0.925     0.013     2.836     2.634
    29   1 H        0.925     0.012     2.856     2.643
    30   1 H        0.925     0.017     2.774     2.604
    31   1 H        0.925     0.011     2.881     2.654
    32   1 H        0.925     0.022     2.698     2.569
    33   1 H        0.925     0.013     2.838     2.634
    34   1 H        0.926     0.030     2.584     2.514
    35   1 H        0.926     0.057     2.237     2.339
    36   1 H        0.926     0.025     2.659     2.550
    37   1 H        0.925     0.014     2.820     2.626
    38   1 H        0.925     0.029     2.602     2.523
    39   1 H        0.926     0.018     2.760     2.598
    40   1 H        0.926     0.025     2.664     2.552
    41   6 C        2.864     0.162    24.493     8.112
    42   7 N        1.921    -0.348    29.880     8.105
    43   7 N        2.841    -0.016    21.555     6.896
    44   6 C        2.699     0.309    21.748     7.633
    45   7 N        2.841    -0.013    21.502     6.887
    46   7 N        1.924    -0.358    30.165     8.144
    47   8 O        0.859    -0.498    23.737     6.532
    48   6 C        2.923     0.072    26.399     8.426
    49   6 C        2.919    -0.055    29.374     8.888
    50   6 C        2.920    -0.038    28.933     8.821
    51   6 C        2.917    -0.052    29.291     8.875
    52   6 C        2.919    -0.035    28.866     8.811
    53   6 C        2.926    -0.047    29.164     8.856
    54   6 C        2.921     0.070    26.429     8.430
    55   6 C        2.925    -0.051    29.265     8.871
    56   6 C        2.919    -0.037    28.928     8.820
    57   6 C        2.917    -0.054    29.335     8.882
    58   6 C        2.920    -0.037    28.926     8.820
    59   6 C        2.919    -0.055    29.365     8.886
    60   1 H        0.926     0.049     2.335     2.390
    61   1 H        0.925     0.006     2.949     2.685
    62   1 H        0.925     0.000     3.054     2.733
    63   1 H        0.925     0.008     2.929     2.676
    64   1 H        0.926     0.052     2.293     2.368
    65   1 H        0.926     0.054     2.270     2.356
    66   1 H        0.925     0.008     2.928     2.676
    67   1 H        0.925     0.001     3.036     2.725
    68   1 H        0.925     0.008     2.916     2.670
    69   1 H        0.926     0.047     2.352     2.398
    70   1 H        0.926     0.046     2.377     2.411

 Mol. C6AA /au·bohr⁶  :      77616.579861
 Mol. C8AA /au·bohr⁸  :    1966615.338729
 Mol. α(0) /au        :        449.456411


Wiberg/Mayer (AO) data.
largest (>0.10) Wiberg bond orders for each atom

 ---------------------------------------------------------------------------
     #   Z sym  total        # sym  WBO       # sym  WBO       # sym  WBO
 ---------------------------------------------------------------------------
     1   6 C    3.986 --     4 C    1.294     2 C    1.220     3 C    1.215
     2   6 C    3.957 --     5 C    1.310     1 C    1.220     7 C    1.178
     3   6 C    3.963 --     6 C    1.315     1 C    1.215     8 C    1.178
     4   6 C    3.980 --     1 C    1.294    12 C    1.251    11 C    1.247
     5   6 C    3.975 --     2 C    1.310    13 C    1.252    15 C    1.228
     6   6 C    3.979 --     3 C    1.315    14 C    1.256    16 C    1.221
     7   6 C    3.987 --    19 C    1.331     9 C    1.264     2 C    1.178
     8   6 C    3.988 --    20 C    1.314    10 C    1.276     3 C    1.178
     9   6 C    3.982 --    21 C    1.300     7 C    1.264    17 C    1.228
    10   6 C    3.986 --    22 C    1.309     8 C    1.276    18 C    1.217
    11   6 C    3.964 --    13 C    1.584     4 C    1.247    27 H    0.968
    12   6 C    3.961 --    14 C    1.577     4 C    1.251    28 H    0.968
    13   6 C    3.971 --    11 C    1.584     5 C    1.252    29 H    0.968
    14   6 C    3.967 --    12 C    1.577     6 C    1.256    30 H    0.968
    15   6 C    3.976 --    17 C    1.611     5 C    1.228    31 H    0.968
    16   6 C    3.987 --    18 C    1.626     6 C    1.221    32 H    0.967
    17   6 C    3.969 --    15 C    1.611     9 C    1.228    33 H    0.968
    18   6 C    3.976 --    16 C    1.626    10 C    1.217    34 H    0.967
    19   6 C    3.977 --    23 C    1.449     7 C    1.331    35 H    0.954
                            21 C    0.101
    20   6 C    3.985 --    24 C    1.517     8 C    1.314    36 H    0.965
                            22 C    0.110
    21   6 C    3.977 --    25 C    1.532     9 C    1.300    37 H    0.968
                            19 C    0.101
    22   6 C    3.980 --    26 C    1.521    10 C    1.309    38 H    0.968
                            20 C    0.110
    23   6 C    3.975 --    19 C    1.449    25 C    1.309    41 C    1.028
    24   6 C    3.986 --    20 C    1.517    26 C    1.351    39 H    0.971
    25   6 C    3.976 --    21 C    1.532    23 C    1.309    70 H    0.966
    26   6 C    3.981 --    22 C    1.521    24 C    1.351    40 H    0.971
    27   1 H    0.999 --    11 C    0.968
    28   1 H    0.999 --    12 C    0.968
    29   1 H    0.998 --    13 C    0.968
    30   1 H    0.999 --    14 C    0.968
    31   1 H    0.999 --    15 C    0.968
    32   1 H    0.998 --    16 C    0.967
    33   1 H    0.998 --    17 C    0.968
    34   1 H    0.998 --    18 C    0.967
    35   1 H    0.996 --    19 C    0.954
    36   1 H    0.999 --    20 C    0.965
    37   1 H    0.999 --    21 C    0.968
    38   1 H    0.999 --    22 C    0.968
    39   1 H    0.999 --    24 C    0.971
    40   1 H    0.999 --    26 C    0.971
    41   6 C    3.973 --    46 N    1.413    42 N    1.412    23 C    1.028
    42   7 N    2.791 --    41 C    1.412    43 N    1.002    46 N    0.194
    43   7 N    3.552 --    44 C    1.118    54 C    1.111    42 N    1.002
                            47 O    0.114
    44   6 C    3.959 --    47 O    1.571    45 N    1.139    43 N    1.118
    45   7 N    3.562 --    44 C    1.139    48 C    1.103    46 N    1.000
                            47 O    0.121
    46   7 N    2.791 --    41 C    1.413    45 N    1.000    42 N    0.194
    47   8 O    1.938 --    44 C    1.571    45 N    0.121    43 N    0.114
    48   6 C    3.960 --    49 C    1.344    53 C    1.331    45 N    1.103
    49   6 C    3.978 --    50 C    1.464    48 C    1.344    65 H    0.963
    50   6 C    3.988 --    49 C    1.464    51 C    1.420    66 H    0.972
    51   6 C    3.966 --    50 C    1.420    52 C    1.413    67 H    0.973
    52   6 C    3.990 --    53 C    1.475    51 C    1.413    68 H    0.971
    53   6 C    3.979 --    52 C    1.475    48 C    1.331    69 H    0.964
    54   6 C    3.960 --    59 C    1.339    55 C    1.329    43 N    1.111
    55   6 C    3.977 --    56 C    1.476    54 C    1.329    60 H    0.964
    56   6 C    3.990 --    55 C    1.476    57 C    1.414    61 H    0.972
    57   6 C    3.963 --    58 C    1.417    56 C    1.414    62 H    0.973
    58   6 C    3.988 --    59 C    1.468    57 C    1.417    63 H    0.972
    59   6 C    3.977 --    58 C    1.468    54 C    1.339    64 H    0.963
    60   1 H    0.998 --    55 C    0.964
    61   1 H    0.999 --    56 C    0.972
    62   1 H    1.000 --    57 C    0.973
    63   1 H    0.999 --    58 C    0.972
    64   1 H    0.997 --    59 C    0.963
    65   1 H    0.997 --    49 C    0.963
    66   1 H    0.999 --    50 C    0.972
    67   1 H    1.000 --    51 C    0.973
    68   1 H    0.999 --    52 C    0.971
    69   1 H    0.998 --    53 C    0.964
    70   1 H    0.997 --    25 C    0.966
 ---------------------------------------------------------------------------

Topologies differ in bond orders
Writing corrected topology to xtbtopo.mol

molecular dipole:
                 x           y           z       tot (Debye)
 q only:       -2.459       1.703       0.615
   full:       -2.384       1.587       0.601       7.437
molecular quadrupole (traceless):
                xx          xy          yy          xz          yz          zz
 q only:      -29.896      22.692      -1.232      -4.658      11.306      31.129
  q+dip:      -22.698      24.444       3.605       0.372       1.977      19.093
   full:      -29.177      22.209       0.243      -2.975       9.433      28.934


           -------------------------------------------------
          | TOTAL ENERGY             -114.428405199352 Eh   |
          | GRADIENT NORM               0.000922093127 Eh/α |
          | HOMO-LUMO GAP               0.167414149398 eV   |
           -------------------------------------------------
########################################################################
[WARNING] Runtime exception occurred
-2- restart_readRestart: Multiplicity missmatch in restart file.
-1- restart_readRestart: Number of electron missmatch in restart file.
########################################################################

------------------------------------------------------------------------
 * finished run on 2024/11/14 at 15:20:28.465     
------------------------------------------------------------------------
 total:
 * wall-time:     0 d,  0 h,  0 min,  0.907 sec
 *  cpu-time:     0 d,  0 h,  0 min,  3.397 sec
 * ratio c/w:     3.745 speedup
 SCF:
 * wall-time:     0 d,  0 h,  0 min,  0.897 sec
 *  cpu-time:     0 d,  0 h,  0 min,  3.379 sec
 * ratio c/w:     3.767 speedup
Note: The following floating-point exceptions are signalling: IEEE_UNDERFLOW_FLAG
normal termination of xtb

