      -----------------------------------------------------------      
     |                   =====================                   |     
     |                           x T B                           |     
     |                   =====================                   |     
     |                         S. Grimme                         |     
     |          Mulliken Center for Theoretical Chemistry        |     
     |                    University of Bonn                     |     
      -----------------------------------------------------------      

   * xtb version 6.6.1 (8d0f1dd) compiled by 'runner@Mac-1690902418499.local' on 2023-08-01

   xtb is free software: you can redistribute it and/or modify it under
   the terms of the GNU Lesser General Public License as published by
   the Free Software Foundation, either version 3 of the License, or
   (at your option) any later version.
   
   xtb is distributed in the hope that it will be useful,
   but WITHOUT ANY WARRANTY; without even the implied warranty of
   MERCHANTABILITY or FITNESS FOR A PARTICULAR PURPOSE.  See the
   GNU Lesser General Public License for more details.
   
   Cite this work as:
   * C. Bannwarth, E. Caldeweyher, S. Ehlert, A. Hansen, P. Pracht,
     J. Seibert, S. Spicher, S. Grimme, WIREs Comput. Mol. Sci., 2020, 11,
     e01493. DOI: 10.1002/wcms.1493
   
   for GFN2-xTB:
   * C. Bannwarth, S. Ehlert and S. Grimme., J. Chem. Theory Comput., 2019,
     15, 1652-1671. DOI: 10.1021/acs.jctc.8b01176
   for GFN1-xTB:
   * S. Grimme, C. Bannwarth, P. Shushkov, J. Chem. Theory Comput., 2017,
     13, 1989-2009. DOI: 10.1021/acs.jctc.7b00118
   for GFN0-xTB:
   * P. Pracht, E. Caldeweyher, S. Ehlert, S. Grimme, ChemRxiv, 2019, preprint.
     DOI: 10.26434/chemrxiv.8326202.v1
   for GFN-FF:
   * S. Spicher and S. Grimme, Angew. Chem. Int. Ed., 2020, 59, 15665-15673.
     DOI: 10.1002/anie.202004239
   
   for ALPB and GBSA implicit solvation:
   * S. Ehlert, M. Stahn, S. Spicher, S. Grimme, J. Chem. Theory Comput.,
     2021, 17, 4250-4261. DOI: 10.1021/acs.jctc.1c00471
   
   for DFT-D4:
   * E. Caldeweyher, C. Bannwarth and S. Grimme, J. Chem. Phys., 2017,
     147, 034112. DOI: 10.1063/1.4993215
   * E. Caldeweyher, S. Ehlert, A. Hansen, H. Neugebauer, S. Spicher,
     C. Bannwarth and S. Grimme, J. Chem. Phys., 2019, 150, 154122.
     DOI: 10.1063/1.5090222
   * E. Caldeweyher, J.-M. Mewes, S. Ehlert and S. Grimme, Phys. Chem. Chem. Phys.
     2020, 22, 8499-8512. DOI: 10.1039/D0CP00502A
   
   for sTDA-xTB:
   * S. Grimme and C. Bannwarth, J. Chem. Phys., 2016, 145, 054103.
     DOI: 10.1063/1.4959605
   
   in the mass-spec context:
   * V. Asgeirsson, C. Bauer and S. Grimme, Chem. Sci., 2017, 8, 4879.
     DOI: 10.1039/c7sc00601b
   * J. Koopman and S. Grimme, ACS Omega 2019, 4, 12, 15120-15133.
     DOI: 10.1021/acsomega.9b02011
   
   for metadynamics refer to:
   * S. Grimme, J. Chem. Theory Comput., 2019, 155, 2847-2862
     DOI: 10.1021/acs.jctc.9b00143
   
   for SPH calculations refer to:
   * S. Spicher and S. Grimme, J. Chem. Theory Comput., 2021, 17, 1701-1714
     DOI: 10.1021/acs.jctc.0c01306
   
   with help from (in alphabetical order)
   P. Atkinson, C. Bannwarth, F. Bohle, G. Brandenburg, E. Caldeweyher
   M. Checinski, S. Dohm, S. Ehlert, S. Ehrlich, I. Gerasimov, C. Hölzer
   A. Katbashev, J. Koopman, C. Lavigne, S. Lehtola, F. März, M. Müller,
   F. Musil, H. Neugebauer, J. Pisarek, C. Plett, P. Pracht, F. Pultar,
   J. Seibert, P. Shushkov, S. Spicher, M. Stahn, M. Steiner, T. Strunk,
   J. Stückrath, T. Rose, and J. Unsleber
   
 * started run on 2024/11/14 at 15:18:35.684     

           -------------------------------------------------
          |                Calculation Setup                |
           -------------------------------------------------

          program call               : xtb Verdazyl2.mol --opt --gfn2 --chrg 1 --uhf 0 --tight
          coordinate file            : Verdazyl2.mol
          omp threads                :                     8

   ID    Z sym.   atoms
    1    6 C      1-26, 41, 44, 48-59
    2    1 H      27-40, 60-70
    3    7 N      42, 43, 45, 46
    4    8 O      47
########################################################################
[WARNING] Please study the warnings concerning your input carefully
-1- prog_main_parseArguments: Unknown option '--tight' provided
########################################################################

           -------------------------------------------------
          |                 G F N 2 - x T B                 |
           -------------------------------------------------

        Reference                      10.1021/acs.jctc.8b01176
      * Hamiltonian:
        H0-scaling (s, p, d)           1.850000    2.230000    2.230000
        zeta-weighting                 0.500000
      * Dispersion:
        s8                             2.700000
        a1                             0.520000
        a2                             5.000000
        s9                             5.000000
      * Repulsion:
        kExp                           1.500000    1.000000
        rExp                           1.000000
      * Coulomb:
        alpha                          2.000000
        third order                    shell-resolved
        anisotropic                    true
        a3                             3.000000
        a5                             4.000000
        cn-shift                       1.200000
        cn-exp                         4.000000
        max-rad                        5.000000

q/qsh data taken from xtbrestart
CAMM data taken from xtbrestart

          ...................................................
          :                      SETUP                      :
          :.................................................:
          :  # basis functions                 205          :
          :  # atomic orbitals                 205          :
          :  # shells                          115          :
          :  # electrons                       210          :
          :  max. iterations                   250          :
          :  Hamiltonian                  GFN2-xTB          :
          :  restarted?                       true          :
          :  GBSA solvation                  false          :
          :  PC potential                    false          :
          :  electronic temp.          300.0000000     K    :
          :  accuracy                    1.0000000          :
          :  -> integral cutoff          0.2500000E+02      :
          :  -> integral neglect         0.1000000E-07      :
          :  -> SCF convergence          0.1000000E-05 Eh   :
          :  -> wf. convergence          0.1000000E-03 e    :
          :  Broyden damping             0.4000000          :
          ...................................................

 iter      E             dE          RMSdq      gap      omega  full diag
   1   -115.4679823 -0.115468E+03  0.337E+00    0.56       0.0  T
   2   -115.1289655  0.339017E+00  0.253E+00    0.08       1.0  T
   3   -114.2169669  0.911999E+00  0.280E+00    0.10       1.0  T
   4   -115.1117169 -0.894750E+00  0.167E+00    0.20       1.0  T
   5   -115.5958985 -0.484182E+00  0.907E-01    0.86       1.0  T
   6   -115.6201989 -0.243005E-01  0.704E-01    0.51       1.0  T
   7   -115.6343387 -0.141398E-01  0.375E-01    0.06       1.0  T
   8   -115.6394334 -0.509465E-02  0.320E-01    0.09       1.0  T
   9   -115.5415525  0.978809E-01  0.693E-01    0.02       1.0  T
  10   -115.6258158 -0.842633E-01  0.388E-01    0.23       1.0  T
  11   -115.6367348 -0.109190E-01  0.221E-01    0.13       1.0  T
  12   -115.6302172  0.651761E-02  0.248E-01    0.04       1.0  T
  13   -115.6420450 -0.118278E-01  0.782E-02    0.09       1.0  T
  14   -115.6419263  0.118764E-03  0.601E-02    0.07       1.0  T
  15   -115.6426233 -0.696998E-03  0.703E-03    0.08       1.7  T
  16   -115.6426281 -0.487147E-05  0.468E-03    0.08       2.6  T
  17   -115.6426125  0.156524E-04  0.101E-02    0.08       1.2  T
  18   -115.6426220 -0.948971E-05  0.702E-03    0.08       1.7  T
  19   -115.6426301 -0.815029E-05  0.161E-03    0.08       7.4  T
  20   -115.6426305 -0.387921E-06  0.514E-04    0.08      23.2  T
  21   -115.6426306 -0.456122E-07  0.791E-05    0.08     151.1  T

   *** convergence criteria satisfied after 21 iterations ***

         #    Occupation            Energy/Eh            Energy/eV
      -------------------------------------------------------------
         1        2.0000           -0.8525903             -23.2002
       ...           ...                  ...                  ...
        99        2.0000           -0.5055349             -13.7563
       100        2.0000           -0.5040960             -13.7172
       101        2.0000           -0.4931291             -13.4187
       102        2.0000           -0.4856579             -13.2154
       103        2.0000           -0.4806066             -13.0780
       104        1.9806           -0.4670150             -12.7081
       105        1.6616           -0.4641323             -12.6297 (HOMO)
       106        0.3578           -0.4611727             -12.5491 (LUMO)
       107                         -0.3900043             -10.6126
       108                         -0.3741709             -10.1817
       109                         -0.3652022              -9.9377
       110                         -0.3539058              -9.6303
       ...                                ...                  ...
       205                          0.6170119              16.7897
      -------------------------------------------------------------
                  HL-Gap            0.0029597 Eh            0.0805 eV
             Fermi-level           -0.4626204 Eh          -12.5885 eV

 SCC (total)                   0 d,  0 h,  0 min,  0.779 sec
 SCC setup                      ...        0 min,  0.000 sec (  0.024%)
 Dispersion                     ...        0 min,  0.001 sec (  0.076%)
 classical contributions        ...        0 min,  0.000 sec (  0.016%)
 integral evaluation            ...        0 min,  0.003 sec (  0.340%)
 iterations                     ...        0 min,  0.753 sec ( 96.625%)
 molecular gradient             ...        0 min,  0.022 sec (  2.797%)
 printout                       ...        0 min,  0.001 sec (  0.121%)

         :::::::::::::::::::::::::::::::::::::::::::::::::::::
         ::                     SUMMARY                     ::
         :::::::::::::::::::::::::::::::::::::::::::::::::::::
         :: total energy            -113.709559877247 Eh    ::
         :: gradient norm              0.168044706095 Eh/a0 ::
         :: HOMO-LUMO gap              0.080536540288 eV    ::
         ::.................................................::
         :: SCC energy              -115.642630568068 Eh    ::
         :: -> isotropic ES            0.091852576861 Eh    ::
         :: -> anisotropic ES         -0.009782589082 Eh    ::
         :: -> anisotropic XC          0.078332536115 Eh    ::
         :: -> dispersion             -0.103372671793 Eh    ::
         :: repulsion energy           1.931275716621 Eh    ::
         :: add. restraining           0.000000000000 Eh    ::
         :: total charge               1.000000194595 e     ::
         :::::::::::::::::::::::::::::::::::::::::::::::::::::

      ----------------------------------------------------------- 
     |                   =====================                   |
     |                        A N C O P T                        |
     |                   =====================                   |
     |               Approximate Normal Coordinate               |
     |                Rational Function Optimizer                |
      ----------------------------------------------------------- 

          ...................................................
          :                      SETUP                      :
          :.................................................:
          :   optimization level            normal          :
          :   max. optcycles                   210          :
          :   ANC micro-cycles                  20          :
          :   degrees of freedom               204          :
          :.................................................:
          :   RF solver                   davidson          :
          :   write xtbopt.log                true          :
          :   linear?                        false          :
          :   energy convergence         0.5000000E-05 Eh   :
          :   grad. convergence          0.1000000E-02 Eh/α :
          :   maxmium RF displ.          1.0000000          :
          :   Hlow (freq-cutoff)         0.1000000E-01      :
          :   Hmax (freq-cutoff)         5.0000000          :
          :   S6 in model hess.         20.0000000          :
          ...................................................

generating ANC from model Hessian ...
Using Lindh-Hessian (1995)
 Shifting diagonal of input Hessian by    9.9317828338655028E-003
 Lowest  eigenvalues of input Hessian
    0.000000    0.000000    0.000000    0.000000    0.000000    0.000000
    0.010000    0.010123    0.010315    0.010560    0.010718    0.010856
    0.010902    0.011010    0.011201    0.011803    0.012094    0.012910
 Highest eigenvalues
    2.052478    2.070074    2.083934    2.087543    2.197300    2.496594


........................................................................
.............................. CYCLE    1 ..............................
........................................................................

 iter      E             dE          RMSdq      gap      omega  full diag
   1   -115.6426306 -0.115643E+03  0.184E-04    0.08       0.0  T
   2   -115.6426291  0.146339E-05  0.286E-03    0.08       4.2  T
   3   -115.6426306 -0.146816E-05  0.780E-05    0.08     153.2  T
   4   -115.6426306 -0.580741E-09  0.523E-05    0.08     228.4  T
   5   -115.6426306 -0.244910E-09  0.344E-05    0.08     347.4  T
     SCC iter.                  ...        0 min,  0.185 sec
     gradient                   ...        0 min,  0.013 sec
 * total energy  :  -113.7095599 Eh     change       -0.7178187E-09 Eh
   gradient norm :     0.1680421 Eh/α   predicted     0.0000000E+00 (-100.00%)
   displ. norm   :     0.4427615 α      lambda       -0.3304840E-01
   maximum displ.:     0.1720057 α      in ANC's #27, #18, #23, ...

........................................................................
.............................. CYCLE    2 ..............................
........................................................................

 iter      E             dE          RMSdq      gap      omega  full diag
   1   -115.7048159 -0.115705E+03  0.275E-01    0.13       0.0  T
   2   -115.2998294  0.404987E+00  0.150E+00    0.12       1.0  T
   3   -115.7112337 -0.411404E+00  0.117E-01    0.08       1.0  T
   4   -115.6953477  0.158860E-01  0.289E-01    0.04       1.0  T
   5   -115.7050575 -0.970977E-02  0.193E-01    0.13       1.0  T
   6   -115.7085478 -0.349033E-02  0.123E-01    0.11       1.0  T
   7   -115.7113509 -0.280307E-02  0.156E-02    0.08       1.0  T
   8   -115.7113693 -0.183568E-04  0.924E-03    0.08       1.3  T
   9   -115.7113791 -0.984507E-05  0.459E-03    0.08       2.6  T
  10   -115.7113812 -0.210371E-05  0.278E-03    0.08       4.3  T
  11   -115.7113826 -0.136471E-05  0.710E-04    0.08      16.8  T
  12   -115.7113826 -0.637930E-07  0.232E-04    0.08      51.6  T
  13   -115.7113826  0.733249E-08  0.271E-04    0.08      44.0  T
     SCC iter.                  ...        0 min,  0.396 sec
     gradient                   ...        0 min,  0.013 sec
 * total energy  :  -113.7339214 Eh     change       -0.2436155E-01 Eh
   gradient norm :     0.0699468 Eh/α   predicted    -0.1980611E-01 ( -18.70%)
   displ. norm   :     0.5443835 α      lambda       -0.1552999E-01
   maximum displ.:     0.2350609 α      in ANC's #18, #27, #19, ...

........................................................................
.............................. CYCLE    3 ..............................
........................................................................

 iter      E             dE          RMSdq      gap      omega  full diag
   1   -115.7543188 -0.115754E+03  0.271E-01    0.15       0.0  T
   2   -115.3341119  0.420207E+00  0.153E+00    0.13       1.0  T
   3   -115.7549280 -0.420816E+00  0.245E-01    0.05       1.0  T
   4   -115.7621538 -0.722582E-02  0.912E-02    0.09       1.0  T
   5   -115.7561474  0.600638E-02  0.193E-01    0.14       1.0  T
   6   -115.7622262 -0.607879E-02  0.542E-02    0.09       1.0  T
   7   -115.7624773 -0.251076E-03  0.423E-02    0.07       1.0  T
   8   -115.7627217 -0.244377E-03  0.211E-02    0.09       1.0  T
   9   -115.7627909 -0.691870E-04  0.612E-03    0.08       2.0  T
  10   -115.7627953 -0.446595E-05  0.313E-03    0.08       3.8  T
  11   -115.7627971 -0.180188E-05  0.391E-04    0.08      30.6  T
  12   -115.7627971  0.268959E-07  0.503E-04    0.08      23.8  T
  13   -115.7627971 -0.325813E-07  0.270E-04    0.08      44.3  T
     SCC iter.                  ...        0 min,  0.373 sec
     gradient                   ...        0 min,  0.036 sec
 * total energy  :  -113.7444343 Eh     change       -0.1051283E-01 Eh
   gradient norm :     0.0214607 Eh/α   predicted    -0.1006618E-01 (  -4.25%)
   displ. norm   :     0.5316252 α      lambda       -0.5986279E-02
   maximum displ.:     0.2244504 α      in ANC's #18, #27, #19, ...

........................................................................
.............................. CYCLE    4 ..............................
........................................................................

 iter      E             dE          RMSdq      gap      omega  full diag
   1   -115.7775025 -0.115778E+03  0.193E-01    0.13       0.0  T
   2   -115.3673288  0.410174E+00  0.149E+00    0.13       1.0  T
   3   -115.7753013 -0.407973E+00  0.218E-01    0.05       1.0  T
   4   -115.7795037 -0.420243E-02  0.115E-01    0.07       1.0  T
   5   -115.7785078  0.995956E-03  0.144E-01    0.12       1.0  T
   6   -115.7805538 -0.204599E-02  0.922E-02    0.11       1.0  T
   7   -115.7821085 -0.155471E-02  0.883E-03    0.09       1.4  T
   8   -115.7821210 -0.124969E-04  0.194E-03    0.08       6.2  T
   9   -115.7821202  0.726062E-06  0.260E-03    0.08       4.6  T
  10   -115.7821211 -0.891165E-06  0.658E-04    0.08      18.2  T
  11   -115.7821212 -0.501128E-07  0.334E-04    0.08      35.8  T
     SCC iter.                  ...        0 min,  0.316 sec
     gradient                   ...        0 min,  0.013 sec
 * total energy  :  -113.7490368 Eh     change       -0.4602562E-02 Eh
   gradient norm :     0.0210010 Eh/α   predicted    -0.3839081E-02 ( -16.59%)
   displ. norm   :     0.5764598 α      lambda       -0.4086817E-02
   maximum displ.:     0.2203595 α      in ANC's #6, #19, #18, ...

........................................................................
.............................. CYCLE    5 ..............................
........................................................................

 iter      E             dE          RMSdq      gap      omega  full diag
   1   -115.7896578 -0.115790E+03  0.179E-01    0.12       0.0  T
   2   -115.3805522  0.409106E+00  0.147E+00    0.13       1.0  T
   3   -115.7921099 -0.411558E+00  0.110E-01    0.07       1.0  T
   4   -115.7818043  0.103056E-01  0.236E-01    0.05       1.0  T
   5   -115.7924244 -0.106201E-01  0.629E-02    0.10       1.0  T
   6   -115.7922223  0.202101E-03  0.663E-02    0.10       1.0  T
   7   -115.7930005 -0.778250E-03  0.149E-02    0.09       1.0  T
   8   -115.7930395 -0.389932E-04  0.381E-03    0.09       3.1  T
   9   -115.7930417 -0.217450E-05  0.797E-04    0.09      15.0  T
  10   -115.7930417 -0.289509E-07  0.401E-04    0.09      29.8  T
  11   -115.7930417 -0.638622E-09  0.327E-04    0.09      36.6  T
     SCC iter.                  ...        0 min,  0.407 sec
     gradient                   ...        0 min,  0.018 sec
 * total energy  :  -113.7521058 Eh     change       -0.3068992E-02 Eh
   gradient norm :     0.0131237 Eh/α   predicted    -0.2722456E-02 ( -11.29%)
   displ. norm   :     0.5575953 α      lambda       -0.2383031E-02
   maximum displ.:     0.2804154 α      in ANC's #6, #3, #19, ...

........................................................................
.............................. CYCLE    6 ..............................
........................................................................

 iter      E             dE          RMSdq      gap      omega  full diag
   1   -115.7974188 -0.115797E+03  0.148E-01    0.11       0.0  T
   2   -115.3978199  0.399599E+00  0.143E+00    0.12       1.0  T
   3   -115.7990702 -0.401250E+00  0.684E-02    0.09       1.0  T
   4   -115.7934719  0.559828E-02  0.169E-01    0.06       1.0  T
   5   -115.7989406 -0.546872E-02  0.294E-02    0.08       1.0  T
   6   -115.7990400 -0.993324E-04  0.199E-02    0.09       1.0  T
   7   -115.7990660 -0.259964E-04  0.155E-02    0.09       1.0  T
   8   -115.7991022 -0.362896E-04  0.680E-03    0.09       1.8  T
   9   -115.7991110 -0.876692E-05  0.720E-04    0.09      16.6  T
  10   -115.7991110 -0.176498E-07  0.540E-04    0.09      22.1  T
  11   -115.7991111 -0.460901E-07  0.143E-04    0.09      83.6  T
     SCC iter.                  ...        0 min,  0.324 sec
     gradient                   ...        0 min,  0.014 sec
 * total energy  :  -113.7539607 Eh     change       -0.1854920E-02 Eh
   gradient norm :     0.0097430 Eh/α   predicted    -0.1561992E-02 ( -15.79%)
   displ. norm   :     0.5705492 α      lambda       -0.1742213E-02
   maximum displ.:     0.3185475 α      in ANC's #6, #3, #10, ...

........................................................................
.............................. CYCLE    7 ..............................
........................................................................

 iter      E             dE          RMSdq      gap      omega  full diag
   1   -115.8010707 -0.115801E+03  0.128E-01    0.10       0.0  T
   2   -115.5177656  0.283305E+00  0.120E+00    0.09       1.0  T
   3   -115.8011996 -0.283434E+00  0.805E-02    0.10       1.0  T
   4   -115.8014972 -0.297592E-03  0.317E-02    0.08       1.0  T
   5   -115.8016329 -0.135703E-03  0.938E-03    0.09       1.3  T
   6   -115.8016413 -0.835168E-05  0.368E-03    0.09       3.2  T
   7   -115.8016422 -0.916251E-06  0.220E-03    0.09       5.4  T
   8   -115.8016428 -0.613775E-06  0.829E-04    0.09      14.4  T
   9   -115.8016429 -0.960916E-07  0.210E-04    0.09      56.8  T
     SCC iter.                  ...        0 min,  0.246 sec
     gradient                   ...        0 min,  0.015 sec
 * total energy  :  -113.7553998 Eh     change       -0.1439084E-02 Eh
   gradient norm :     0.0094305 Eh/α   predicted    -0.1154679E-02 ( -19.76%)
   displ. norm   :     0.6007152 α      lambda       -0.1525066E-02
   maximum displ.:     0.3439204 α      in ANC's #6, #3, #10, ...

........................................................................
.............................. CYCLE    8 ..............................
........................................................................

 iter      E             dE          RMSdq      gap      omega  full diag
   1   -115.8019243 -0.115802E+03  0.122E-01    0.09       0.0  T
   2   -115.7860290  0.158952E-01  0.296E-01    0.04       1.0  T
   3   -115.7954295 -0.940041E-02  0.197E-01    0.15       1.0  T
   4   -115.7981448 -0.271539E-02  0.143E-01    0.13       1.0  T
   5   -115.8004859 -0.234108E-02  0.879E-02    0.11       1.0  T
   6   -115.8018235 -0.133754E-02  0.284E-02    0.09       1.0  T
   7   -115.8019657 -0.142276E-03  0.710E-03    0.09       1.7  T
   8   -115.8019705 -0.477688E-05  0.478E-03    0.09       2.5  T
   9   -115.8019748 -0.428999E-05  0.273E-04    0.09      43.8  T
  10   -115.8019747  0.744971E-07  0.643E-04    0.09      18.6  T
  11   -115.8019748 -0.743452E-07  0.174E-04    0.09      68.8  T
     SCC iter.                  ...        0 min,  0.278 sec
     gradient                   ...        0 min,  0.014 sec
 * total energy  :  -113.7566872 Eh     change       -0.1287343E-02 Eh
   gradient norm :     0.0085796 Eh/α   predicted    -0.1037705E-02 ( -19.39%)
   displ. norm   :     0.6189718 α      lambda       -0.1323810E-02
   maximum displ.:     0.3585116 α      in ANC's #6, #3, #10, ...

........................................................................
.............................. CYCLE    9 ..............................
........................................................................

 iter      E             dE          RMSdq      gap      omega  full diag
   1   -115.8017302 -0.115802E+03  0.123E-01    0.09       0.0  T
   2   -115.8005743  0.115583E-02  0.107E-01    0.11       1.0  T
   3   -115.5287888  0.271786E+00  0.117E+00    0.08       1.0  T
   4   -115.7991309 -0.270342E+00  0.115E-01    0.12       1.0  T
   5   -115.8009367 -0.180578E-02  0.645E-02    0.10       1.0  T
   6   -115.8015015 -0.564885E-03  0.352E-02    0.10       1.0  T
   7   -115.8017047 -0.203125E-03  0.143E-02    0.09       1.0  T
   8   -115.8017438 -0.391087E-04  0.273E-03    0.09       4.4  T
   9   -115.8017445 -0.725233E-06  0.183E-03    0.09       6.5  T
  10   -115.8017451 -0.578454E-06  0.370E-04    0.09      32.3  T
  11   -115.8017451 -0.233651E-07  0.106E-04    0.09     113.2  T
     SCC iter.                  ...        0 min,  0.230 sec
     gradient                   ...        0 min,  0.014 sec
 * total energy  :  -113.7577974 Eh     change       -0.1110242E-02 Eh
   gradient norm :     0.0073253 Eh/α   predicted    -0.9154983E-03 ( -17.54%)
   displ. norm   :     0.6145017 α      lambda       -0.1080712E-02
   maximum displ.:     0.3598447 α      in ANC's #6, #3, #9, ...

........................................................................
.............................. CYCLE   10 ..............................
........................................................................

 iter      E             dE          RMSdq      gap      omega  full diag
   1   -115.8016599 -0.115802E+03  0.120E-01    0.09       0.0  T
   2   -115.7997347  0.192523E-02  0.123E-01    0.11       1.0  T
   3   -115.6009940  0.198741E+00  0.101E+00    0.05       1.0  T
   4   -115.7980262 -0.197032E+00  0.137E-01    0.13       1.0  T
   5   -115.8001216 -0.209548E-02  0.894E-02    0.11       1.0  T
   6   -115.8011380 -0.101635E-02  0.527E-02    0.10       1.0  T
   7   -115.8015237 -0.385750E-03  0.282E-02    0.09       1.0  T
   8   -115.8016559 -0.132121E-03  0.112E-02    0.09       1.1  T
   9   -115.8016803 -0.244035E-04  0.767E-04    0.09      15.6  T
  10   -115.8016803 -0.563897E-07  0.287E-04    0.09      41.7  T
  11   -115.8016803 -0.418237E-08  0.201E-04    0.09      59.5  T
     SCC iter.                  ...        0 min,  0.284 sec
     gradient                   ...        0 min,  0.022 sec
 * total energy  :  -113.7587045 Eh     change       -0.9071081E-03 Eh
   gradient norm :     0.0068130 Eh/α   predicted    -0.7444018E-03 ( -17.94%)
   displ. norm   :     0.6042674 α      lambda       -0.9107208E-03
   maximum displ.:     0.3588508 α      in ANC's #3, #6, #9, ...

........................................................................
.............................. CYCLE   11 ..............................
........................................................................

 iter      E             dE          RMSdq      gap      omega  full diag
   1   -115.8026894 -0.115803E+03  0.115E-01    0.09       0.0  T
   2   -115.7989583  0.373111E-02  0.154E-01    0.06       1.0  T
   3   -115.7909577  0.800058E-02  0.259E-01    0.20       1.0  T
   4   -115.7970787 -0.612095E-02  0.173E-01    0.14       1.0  T
   5   -115.8011320 -0.405335E-02  0.901E-02    0.11       1.0  T
   6   -115.8026486 -0.151655E-02  0.183E-02    0.09       1.0  T
   7   -115.8026894 -0.408255E-04  0.108E-02    0.09       1.1  T
   8   -115.8027106 -0.211436E-04  0.225E-03    0.09       5.3  T
   9   -115.8027114 -0.819826E-06  0.763E-04    0.09      15.7  T
  10   -115.8027115 -0.100842E-06  0.190E-04    0.09      63.0  T
     SCC iter.                  ...        0 min,  0.243 sec
     gradient                   ...        0 min,  0.014 sec
 * total energy  :  -113.7594790 Eh     change       -0.7745276E-03 Eh
   gradient norm :     0.0080216 Eh/α   predicted    -0.6216314E-03 ( -19.74%)
   displ. norm   :     0.6163695 α      lambda       -0.8502560E-03
   maximum displ.:     0.3798651 α      in ANC's #3, #6, #9, ...

........................................................................
.............................. CYCLE   12 ..............................
........................................................................

 iter      E             dE          RMSdq      gap      omega  full diag
   1   -115.8034176 -0.115803E+03  0.118E-01    0.09       0.0  T
   2   -115.7695208  0.338969E-01  0.422E-01    0.02       1.0  T
   3   -115.7995358 -0.300150E-01  0.159E-01    0.13       1.0  T
   4   -115.8008430 -0.130727E-02  0.120E-01    0.12       1.0  T
   5   -115.8019875 -0.114450E-02  0.881E-02    0.11       1.0  T
   6   -115.8031327 -0.114512E-02  0.440E-02    0.10       1.0  T
   7   -115.8034342 -0.301560E-03  0.193E-02    0.09       1.0  T
   8   -115.8035022 -0.679865E-04  0.443E-03    0.09       2.7  T
   9   -115.8035055 -0.332724E-05  0.132E-03    0.09       9.1  T
  10   -115.8035058 -0.304900E-06  0.146E-04    0.09      81.7  T
  11   -115.8035058 -0.167437E-08  0.818E-05    0.09     146.2  T
     SCC iter.                  ...        0 min,  0.477 sec
     gradient                   ...        0 min,  0.043 sec
 * total energy  :  -113.7602088 Eh     change       -0.7297550E-03 Eh
   gradient norm :     0.0070500 Eh/α   predicted    -0.5866419E-03 ( -19.61%)
   displ. norm   :     0.6544587 α      lambda       -0.8719049E-03
   maximum displ.:     0.4115536 α      in ANC's #3, #6, #9, ...

........................................................................
.............................. CYCLE   13 ..............................
........................................................................

 iter      E             dE          RMSdq      gap      omega  full diag
   1   -115.8058204 -0.115806E+03  0.133E-01    0.10       0.0  T
   2   -115.6017173  0.204103E+00  0.102E+00    0.05       1.0  T
   3   -115.8055918 -0.203875E+00  0.921E-02    0.10       1.0  T
   4   -115.8052680  0.323855E-03  0.725E-02    0.11       1.0  T
   5   -115.8056290 -0.360999E-03  0.537E-02    0.10       1.0  T
   6   -115.8061313 -0.502335E-03  0.199E-02    0.09       1.0  T
   7   -115.8061822 -0.508692E-04  0.113E-02    0.09       1.1  T
   8   -115.8062072 -0.249763E-04  0.168E-03    0.09       7.1  T
   9   -115.8062064  0.764318E-06  0.253E-03    0.09       4.7  T
  10   -115.8062073 -0.890453E-06  0.129E-03    0.09       9.2  T
  11   -115.8062076 -0.296988E-06  0.374E-04    0.09      32.0  T
  12   -115.8062076 -0.262742E-07  0.698E-05    0.09     171.3  T
     SCC iter.                  ...        0 min,  0.395 sec
     gradient                   ...        0 min,  0.016 sec
 * total energy  :  -113.7609380 Eh     change       -0.7292079E-03 Eh
   gradient norm :     0.0118773 Eh/α   predicted    -0.6226803E-03 ( -14.61%)
   displ. norm   :     0.6785200 α      lambda       -0.8860629E-03
   maximum displ.:     0.4356663 α      in ANC's #3, #6, #9, ...

........................................................................
.............................. CYCLE   14 ..............................
........................................................................

 iter      E             dE          RMSdq      gap      omega  full diag
   1   -115.8047598 -0.115805E+03  0.141E-01    0.10       0.0  T
   2   -115.6266789  0.178081E+00  0.950E-01    0.04       1.0  T
   3   -115.8022011 -0.175522E+00  0.145E-01    0.13       1.0  T
   4   -115.8037763 -0.157525E-02  0.879E-02    0.11       1.0  T
   5   -115.8041327 -0.356397E-03  0.698E-02    0.11       1.0  T
   6   -115.8049527 -0.819952E-03  0.286E-02    0.10       1.0  T
   7   -115.8050778 -0.125095E-03  0.129E-02    0.09       1.0  T
   8   -115.8051099 -0.321397E-04  0.168E-03    0.09       7.1  T
   9   -115.8051072  0.269155E-05  0.397E-03    0.09       3.0  T
  10   -115.8051097 -0.252073E-05  0.166E-03    0.09       7.2  T
  11   -115.8051103 -0.533277E-06  0.108E-04    0.09     110.5  T
  12   -115.8051103  0.222302E-08  0.127E-04    0.09      94.0  T
     SCC iter.                  ...        0 min,  0.393 sec
     gradient                   ...        0 min,  0.015 sec
 * total energy  :  -113.7616495 Eh     change       -0.7115048E-03 Eh
   gradient norm :     0.0082546 Eh/α   predicted    -0.6469995E-03 (  -9.07%)
   displ. norm   :     0.6483583 α      lambda       -0.7560479E-03
   maximum displ.:     0.4188946 α      in ANC's #3, #6, #7, ...

........................................................................
.............................. CYCLE   15 ..............................
........................................................................

 iter      E             dE          RMSdq      gap      omega  full diag
   1   -115.8049394 -0.115805E+03  0.139E-01    0.10       0.0  T
   2   -115.5637330  0.241206E+00  0.110E+00    0.07       1.0  T
   3   -115.8041488 -0.240416E+00  0.110E-01    0.11       1.0  T
   4   -115.8044140 -0.265141E-03  0.727E-02    0.11       1.0  T
   5   -115.8049646 -0.550618E-03  0.468E-02    0.10       1.0  T
   6   -115.8053543 -0.389743E-03  0.161E-02    0.09       1.0  T
   7   -115.8053958 -0.414709E-04  0.673E-03    0.09       1.8  T
   8   -115.8054032 -0.743058E-05  0.308E-03    0.09       3.9  T
   9   -115.8054027  0.523987E-06  0.338E-03    0.09       3.5  T
  10   -115.8054047 -0.195638E-05  0.112E-03    0.09      10.6  T
  11   -115.8054049 -0.245290E-06  0.179E-04    0.09      67.0  T
  12   -115.8054049 -0.516272E-08  0.448E-05    0.09     266.7  T
     SCC iter.                  ...        0 min,  0.543 sec
     gradient                   ...        0 min,  0.015 sec
 * total energy  :  -113.7622807 Eh     change       -0.6312195E-03 Eh
   gradient norm :     0.0078735 Eh/α   predicted    -0.5369388E-03 ( -14.94%)
   displ. norm   :     0.6170282 α      lambda       -0.6728722E-03
   maximum displ.:     0.4016465 α      in ANC's #3, #6, #7, ...

........................................................................
.............................. CYCLE   16 ..............................
........................................................................

 iter      E             dE          RMSdq      gap      omega  full diag
   1   -115.8051712 -0.115805E+03  0.129E-01    0.10       0.0  T
   2   -115.6569442  0.148227E+00  0.868E-01    0.03       1.0  T
   3   -115.8038294 -0.146885E+00  0.116E-01    0.12       1.0  T
   4   -115.8037533  0.761305E-04  0.929E-02    0.12       1.0  T
   5   -115.8049191 -0.116580E-02  0.529E-02    0.10       1.0  T
   6   -115.8053114 -0.392286E-03  0.275E-02    0.10       1.0  T
   7   -115.8054324 -0.121026E-03  0.120E-02    0.09       1.0  T
   8   -115.8054601 -0.276668E-04  0.101E-03    0.09      11.8  T
   9   -115.8054590  0.109555E-05  0.248E-03    0.09       4.8  T
  10   -115.8054600 -0.100945E-05  0.101E-03    0.09      11.8  T
  11   -115.8054602 -0.195022E-06  0.915E-05    0.09     130.6  T
  12   -115.8054602 -0.469214E-09  0.487E-05    0.09     245.6  T
     SCC iter.                  ...        0 min,  0.370 sec
     gradient                   ...        0 min,  0.014 sec
 * total energy  :  -113.7628399 Eh     change       -0.5591273E-03 Eh
   gradient norm :     0.0075060 Eh/α   predicted    -0.4645260E-03 ( -16.92%)
   displ. norm   :     0.6023155 α      lambda       -0.6069987E-03
   maximum displ.:     0.3877508 α      in ANC's #3, #7, #6, ...

........................................................................
.............................. CYCLE   17 ..............................
........................................................................

 iter      E             dE          RMSdq      gap      omega  full diag
   1   -115.8055266 -0.115806E+03  0.120E-01    0.10       0.0  T
   2   -115.7539859  0.515408E-01  0.517E-01    0.01       1.0  T
   3   -115.8029175 -0.489316E-01  0.138E-01    0.13       1.0  T
   4   -115.8025335  0.383986E-03  0.126E-01    0.13       1.0  T
   5   -115.8044654 -0.193190E-02  0.787E-02    0.11       1.0  T
   6   -115.8052698 -0.804401E-03  0.445E-02    0.10       1.0  T
   7   -115.8055865 -0.316669E-03  0.187E-02    0.10       1.0  T
   8   -115.8056486 -0.621752E-04  0.475E-03    0.09       2.5  T
   9   -115.8056529 -0.424354E-05  0.452E-04    0.09      26.4  T
  10   -115.8056529 -0.714604E-08  0.319E-04    0.09      37.5  T
  11   -115.8056529 -0.996100E-08  0.205E-04    0.09      58.3  T
     SCC iter.                  ...        0 min,  0.471 sec
     gradient                   ...        0 min,  0.014 sec
 * total energy  :  -113.7633358 Eh     change       -0.4959731E-03 Eh
   gradient norm :     0.0069792 Eh/α   predicted    -0.4136056E-03 ( -16.61%)
   displ. norm   :     0.5920030 α      lambda       -0.5326031E-03
   maximum displ.:     0.3759274 α      in ANC's #3, #7, #6, ...

........................................................................
.............................. CYCLE   18 ..............................
........................................................................

 iter      E             dE          RMSdq      gap      omega  full diag
   1   -115.8051783 -0.115805E+03  0.114E-01    0.09       0.0  T
   2   -115.7970492  0.812911E-02  0.214E-01    0.05       1.0  T
   3   -115.7977459 -0.696767E-03  0.211E-01    0.17       1.0  T
   4   -115.8000586 -0.231263E-02  0.163E-01    0.15       1.0  T
   5   -115.8033585 -0.329995E-02  0.985E-02    0.12       1.0  T
   6   -115.8045722 -0.121369E-02  0.578E-02    0.11       1.0  T
   7   -115.8051478 -0.575615E-03  0.189E-02    0.10       1.0  T
   8   -115.8051944 -0.465596E-04  0.104E-02    0.09       1.1  T
   9   -115.8052151 -0.207072E-04  0.103E-03    0.09      11.6  T
  10   -115.8052152 -0.142229E-06  0.467E-04    0.09      25.6  T
  11   -115.8052152 -0.528124E-08  0.434E-04    0.09      27.6  T
     SCC iter.                  ...        0 min,  0.328 sec
     gradient                   ...        0 min,  0.014 sec
 * total energy  :  -113.7637537 Eh     change       -0.4178997E-03 Eh
   gradient norm :     0.0065073 Eh/α   predicted    -0.3596366E-03 ( -13.94%)
   displ. norm   :     0.5707468 α      lambda       -0.4736445E-03
   maximum displ.:     0.3431749 α      in ANC's #3, #7, #8, ...

........................................................................
.............................. CYCLE   19 ..............................
........................................................................

 iter      E             dE          RMSdq      gap      omega  full diag
   1   -115.8086993 -0.115809E+03  0.112E-01    0.09       0.0  T
   2   -115.8074828  0.121654E-02  0.105E-01    0.11       1.0  T
   3   -115.6272759  0.180207E+00  0.962E-01    0.04       1.0  T
   4   -115.8052249 -0.177949E+00  0.132E-01    0.13       1.0  T
   5   -115.8073648 -0.213993E-02  0.839E-02    0.11       1.0  T
   6   -115.8082353 -0.870470E-03  0.498E-02    0.10       1.0  T
   7   -115.8085842 -0.348864E-03  0.262E-02    0.10       1.0  T
   8   -115.8086936 -0.109470E-03  0.111E-02    0.09       1.1  T
   9   -115.8087174 -0.237392E-04  0.783E-04    0.09      15.3  T
  10   -115.8087173  0.601469E-07  0.847E-04    0.09      14.1  T
  11   -115.8087174 -0.117929E-06  0.307E-04    0.09      39.0  T
     SCC iter.                  ...        0 min,  0.287 sec
     gradient                   ...        0 min,  0.016 sec
 * total energy  :  -113.7640697 Eh     change       -0.3160028E-03 Eh
   gradient norm :     0.0070688 Eh/α   predicted    -0.3139705E-03 (  -0.64%)
   displ. norm   :     0.5967155 α      lambda       -0.4232555E-03
   maximum displ.:     0.3792077 α      in ANC's #3, #7, #6, ...

........................................................................
.............................. CYCLE   20 ..............................
........................................................................

 iter      E             dE          RMSdq      gap      omega  full diag
   1   -115.7998735 -0.115800E+03  0.122E-01    0.09       0.0  T
   2   -115.7998769 -0.340800E-05  0.712E-02    0.09       1.0  T
   3   -115.7986355  0.124137E-02  0.796E-02    0.11       1.0  T
   4   -115.7980606  0.574931E-03  0.100E-01    0.07       1.0  T
   5   -115.7998294 -0.176883E-02  0.170E-02    0.10       1.0  T
   6   -115.7998820 -0.526304E-04  0.270E-03    0.09       4.4  T
   7   -115.7998825 -0.437786E-06  0.204E-03    0.09       5.9  T
   8   -115.7998832 -0.709298E-06  0.522E-04    0.09      22.9  T
   9   -115.7998832 -0.306284E-07  0.160E-04    0.09      74.7  T
     SCC iter.                  ...        0 min,  0.246 sec
     gradient                   ...        0 min,  0.026 sec
 * total energy  :  -113.7642011 Eh     change       -0.1314129E-03 Eh
   gradient norm :     0.0103462 Eh/α   predicted    -0.2869845E-03 ( 118.38%)
   displ. norm   :     0.1839220 α      lambda       -0.3774785E-03
   maximum displ.:     0.0807872 α      in ANC's #8, #6, #5, ...
 * RMSD in coord.:     1.0830579 α      energy gain  -0.5464127E-01 Eh

generating ANC from model Hessian ...
Using Lindh-Hessian (1995)
 Shifting diagonal of input Hessian by    9.9408673429986060E-003
 Lowest  eigenvalues of input Hessian
    0.000000    0.000000    0.000000    0.000000    0.000000    0.000000
    0.010000    0.010194    0.010596    0.010669    0.010762    0.010985
    0.011148    0.011189    0.011295    0.011956    0.012219    0.013155
 Highest eigenvalues
    2.113363    2.119643    2.138807    2.144458    2.297423    2.564121


........................................................................
.............................. CYCLE   21 ..............................
........................................................................

 iter      E             dE          RMSdq      gap      omega  full diag
   1   -115.8080433 -0.115808E+03  0.448E-02    0.09       0.0  T
   2   -115.8064840  0.155927E-02  0.949E-02    0.12       1.0  T
   3   -115.8051489  0.133512E-02  0.126E-01    0.07       1.0  T
   4   -115.8077202 -0.257130E-02  0.421E-02    0.10       1.0  T
   5   -115.8079932 -0.273077E-03  0.180E-02    0.10       1.0  T
   6   -115.8080543 -0.610972E-04  0.358E-03    0.09       3.3  T
   7   -115.8080566 -0.222232E-05  0.630E-04    0.09      19.0  T
   8   -115.8080566 -0.387977E-07  0.279E-04    0.09      42.8  T
   9   -115.8080566 -0.548681E-10  0.233E-04    0.09      51.3  T
     SCC iter.                  ...        0 min,  0.447 sec
     gradient                   ...        0 min,  0.015 sec
 * total energy  :  -113.7643927 Eh     change       -0.1916012E-03 Eh
   gradient norm :     0.0074574 Eh/α   predicted     0.0000000E+00 (-100.00%)
   displ. norm   :     0.0708173 α      lambda       -0.1032955E-03
   maximum displ.:     0.0291230 α      in ANC's #14, #8, #11, ...

........................................................................
.............................. CYCLE   22 ..............................
........................................................................

 iter      E             dE          RMSdq      gap      omega  full diag
   1   -115.8091079 -0.115809E+03  0.252E-02    0.09       0.0  T
   2   -115.8088445  0.263366E-03  0.405E-02    0.08       1.0  T
   3   -115.8081178  0.726673E-03  0.733E-02    0.11       1.0  T
   4   -115.8091046 -0.986716E-03  0.649E-03    0.09       1.8  T
   5   -115.8091092 -0.464227E-05  0.260E-03    0.09       4.6  T
   6   -115.8091102 -0.103497E-05  0.693E-04    0.09      17.2  T
   7   -115.8091103 -0.589815E-07  0.236E-04    0.09      50.7  T
   8   -115.8091103 -0.660663E-09  0.159E-04    0.09      75.2  T
     SCC iter.                  ...        0 min,  0.359 sec
     gradient                   ...        0 min,  0.015 sec
 * total energy  :  -113.7644948 Eh     change       -0.1020998E-03 Eh
   gradient norm :     0.0026373 Eh/α   predicted    -0.6916656E-04 ( -32.26%)
   displ. norm   :     0.1531098 α      lambda       -0.1385040E-03
   maximum displ.:     0.0640599 α      in ANC's #8, #14, #1, ...

........................................................................
.............................. CYCLE   23 ..............................
........................................................................

 iter      E             dE          RMSdq      gap      omega  full diag
   1   -115.8100019 -0.115810E+03  0.467E-02    0.09       0.0  T
   2   -115.8097082  0.293673E-03  0.483E-02    0.08       1.0  T
   3   -115.8050049  0.470332E-02  0.165E-01    0.15       1.0  T
   4   -115.8099302 -0.492525E-02  0.212E-02    0.10       1.0  T
   5   -115.8099870 -0.568803E-04  0.987E-03    0.09       1.2  T
   6   -115.8100048 -0.177459E-04  0.210E-03    0.09       5.7  T
   7   -115.8100056 -0.817695E-06  0.394E-04    0.09      30.4  T
   8   -115.8100054  0.181974E-06  0.100E-03    0.09      11.9  T
   9   -115.8100056 -0.191307E-06  0.778E-05    0.09     153.6  T
     SCC iter.                  ...        0 min,  0.572 sec
     gradient                   ...        0 min,  0.034 sec
 * total energy  :  -113.7645933 Eh     change       -0.9843287E-04 Eh
   gradient norm :     0.0035686 Eh/α   predicted    -0.7087838E-04 ( -27.99%)
   displ. norm   :     0.2022660 α      lambda       -0.1115916E-03
   maximum displ.:     0.0915914 α      in ANC's #8, #14, #1, ...

........................................................................
.............................. CYCLE   24 ..............................
........................................................................

 iter      E             dE          RMSdq      gap      omega  full diag
   1   -115.8099865 -0.115810E+03  0.590E-02    0.09       0.0  T
   2   -115.8098798  0.106693E-03  0.419E-02    0.10       1.0  T
   3   -115.7417399  0.681399E-01  0.593E-01    0.01       1.0  T
   4   -115.8098558 -0.681159E-01  0.269E-02    0.10       1.0  T
   5   -115.8099477 -0.918869E-04  0.147E-02    0.09       1.0  T
   6   -115.8099813 -0.336253E-04  0.632E-03    0.09       1.9  T
   7   -115.8099867 -0.536018E-05  0.340E-03    0.09       3.5  T
   8   -115.8099887 -0.202652E-05  0.825E-04    0.09      14.5  T
   9   -115.8099888 -0.744783E-07  0.514E-04    0.09      23.2  T
  10   -115.8099888 -0.377385E-07  0.271E-04    0.09      44.1  T
     SCC iter.                  ...        0 min,  0.406 sec
     gradient                   ...        0 min,  0.013 sec
 * total energy  :  -113.7646804 Eh     change       -0.8714264E-04 Eh
   gradient norm :     0.0054498 Eh/α   predicted    -0.5810028E-04 ( -33.33%)
   displ. norm   :     0.2747659 α      lambda       -0.1303154E-03
   maximum displ.:     0.1283260 α      in ANC's #8, #1, #9, ...

........................................................................
.............................. CYCLE   25 ..............................
........................................................................

 iter      E             dE          RMSdq      gap      omega  full diag
   1   -115.8092701 -0.115809E+03  0.778E-02    0.09       0.0  T
   2   -115.8075629  0.170718E-02  0.106E-01    0.12       1.0  T
   3   -115.7766904  0.308725E-01  0.412E-01    0.02       1.0  T
   4   -115.8076927 -0.310023E-01  0.909E-02    0.12       1.0  T
   5   -115.8086217 -0.928923E-03  0.588E-02    0.11       1.0  T
   6   -115.8090918 -0.470194E-03  0.318E-02    0.10       1.0  T
   7   -115.8092416 -0.149738E-03  0.152E-02    0.09       1.0  T
   8   -115.8092771 -0.354795E-04  0.650E-03    0.09       1.8  T
   9   -115.8092851 -0.802318E-05  0.614E-04    0.09      19.5  T
  10   -115.8092851 -0.379285E-07  0.360E-04    0.09      33.2  T
  11   -115.8092851 -0.237170E-07  0.565E-05    0.09     211.4  T
     SCC iter.                  ...        0 min,  0.322 sec
     gradient                   ...        0 min,  0.014 sec
 * total energy  :  -113.7647808 Eh     change       -0.1004005E-03 Eh
   gradient norm :     0.0047999 Eh/α   predicted    -0.7007730E-04 ( -30.20%)
   displ. norm   :     0.2793698 α      lambda       -0.1140937E-03
   maximum displ.:     0.1381163 α      in ANC's #8, #1, #9, ...

........................................................................
.............................. CYCLE   26 ..............................
........................................................................

 iter      E             dE          RMSdq      gap      omega  full diag
   1   -115.8086979 -0.115809E+03  0.754E-02    0.09       0.0  T
   2   -115.8063513  0.234665E-02  0.120E-01    0.12       1.0  T
   3   -115.7892432  0.171081E-01  0.319E-01    0.04       1.0  T
   4   -115.8067584 -0.175152E-01  0.100E-01    0.12       1.0  T
   5   -115.8080073 -0.124892E-02  0.610E-02    0.11       1.0  T
   6   -115.8085261 -0.518842E-03  0.318E-02    0.10       1.0  T
   7   -115.8086805 -0.154352E-03  0.143E-02    0.09       1.0  T
   8   -115.8087144 -0.338833E-04  0.517E-03    0.09       2.3  T
   9   -115.8087194 -0.505751E-05  0.204E-04    0.09      58.5  T
  10   -115.8087194  0.507953E-08  0.226E-04    0.09      53.0  T
  11   -115.8087194 -0.902344E-08  0.437E-05    0.09     273.4  T
     SCC iter.                  ...        0 min,  0.342 sec
     gradient                   ...        0 min,  0.013 sec
 * total energy  :  -113.7648684 Eh     change       -0.8757724E-04 Eh
   gradient norm :     0.0031077 Eh/α   predicted    -0.6150063E-04 ( -29.78%)
   displ. norm   :     0.2477311 α      lambda       -0.9795361E-04
   maximum displ.:     0.1298618 α      in ANC's #8, #9, #1, ...

........................................................................
.............................. CYCLE   27 ..............................
........................................................................

 iter      E             dE          RMSdq      gap      omega  full diag
   1   -115.8089199 -0.115809E+03  0.624E-02    0.09       0.0  T
   2   -115.8072066  0.171336E-02  0.103E-01    0.12       1.0  T
   3   -115.7970377  0.101688E-01  0.250E-01    0.05       1.0  T
   4   -115.8076647 -0.106270E-01  0.805E-02    0.11       1.0  T
   5   -115.8086034 -0.938656E-03  0.417E-02    0.10       1.0  T
   6   -115.8088777 -0.274344E-03  0.174E-02    0.09       1.0  T
   7   -115.8089268 -0.490716E-04  0.673E-03    0.09       1.8  T
   8   -115.8089347 -0.791493E-05  0.181E-03    0.09       6.6  T
   9   -115.8089353 -0.574937E-06  0.257E-04    0.09      46.5  T
  10   -115.8089353 -0.946835E-08  0.790E-05    0.09     151.3  T
     SCC iter.                  ...        0 min,  0.276 sec
     gradient                   ...        0 min,  0.014 sec
 * total energy  :  -113.7649478 Eh     change       -0.7938161E-04 Eh
   gradient norm :     0.0025410 Eh/α   predicted    -0.5198547E-04 ( -34.51%)
   displ. norm   :     0.2689235 α      lambda       -0.1074919E-03
   maximum displ.:     0.1441558 α      in ANC's #8, #9, #1, ...

........................................................................
.............................. CYCLE   28 ..............................
........................................................................

 iter      E             dE          RMSdq      gap      omega  full diag
   1   -115.8095100 -0.115810E+03  0.638E-02    0.09       0.0  T
   2   -115.8085806  0.929441E-03  0.800E-02    0.11       1.0  T
   3   -115.7843008  0.242797E-01  0.362E-01    0.03       1.0  T
   4   -115.8083644 -0.240636E-01  0.765E-02    0.11       1.0  T
   5   -115.8092035 -0.839137E-03  0.407E-02    0.10       1.0  T
   6   -115.8094522 -0.248682E-03  0.187E-02    0.10       1.0  T
   7   -115.8095046 -0.524011E-04  0.877E-03    0.09       1.4  T
   8   -115.8095180 -0.133948E-04  0.255E-03    0.09       4.7  T
   9   -115.8095192 -0.113390E-05  0.565E-04    0.09      21.2  T
  10   -115.8095192 -0.552461E-07  0.138E-04    0.09      86.4  T
  11   -115.8095192 -0.312269E-08  0.396E-05    0.09     302.1  T
     SCC iter.                  ...        0 min,  0.230 sec
     gradient                   ...        0 min,  0.013 sec
 * total energy  :  -113.7650349 Eh     change       -0.8716810E-04 Eh
   gradient norm :     0.0031501 Eh/α   predicted    -0.5769303E-04 ( -33.81%)
   displ. norm   :     0.3038554 α      lambda       -0.1052977E-03
   maximum displ.:     0.1611811 α      in ANC's #8, #9, #1, ...

........................................................................
.............................. CYCLE   29 ..............................
........................................................................

 iter      E             dE          RMSdq      gap      omega  full diag
   1   -115.8096319 -0.115810E+03  0.699E-02    0.09       0.0  T
   2   -115.8095840  0.478984E-04  0.443E-02    0.09       1.0  T
   3   -115.7461070  0.634770E-01  0.573E-01    0.01       1.0  T
   4   -115.8091243 -0.630172E-01  0.510E-02    0.10       1.0  T
   5   -115.8095730 -0.448763E-03  0.181E-02    0.10       1.0  T
   6   -115.8096243 -0.512238E-04  0.753E-03    0.09       1.6  T
   7   -115.8096324 -0.815488E-05  0.369E-03    0.09       3.2  T
   8   -115.8096349 -0.252517E-05  0.594E-04    0.09      20.1  T
   9   -115.8096349  0.626790E-07  0.782E-04    0.09      15.3  T
  10   -115.8096350 -0.951110E-07  0.339E-04    0.09      35.3  T
     SCC iter.                  ...        0 min,  0.241 sec
     gradient                   ...        0 min,  0.069 sec
 * total energy  :  -113.7651187 Eh     change       -0.8379728E-04 Eh
   gradient norm :     0.0033273 Eh/α   predicted    -0.5751044E-04 ( -31.37%)
   displ. norm   :     0.3070412 α      lambda       -0.9026272E-04
   maximum displ.:     0.1588709 α      in ANC's #9, #8, #1, ...

........................................................................
.............................. CYCLE   30 ..............................
........................................................................

 iter      E             dE          RMSdq      gap      omega  full diag
   1   -115.8096083 -0.115810E+03  0.695E-02    0.09       0.0  T
   2   -115.8094122  0.196113E-03  0.514E-02    0.08       1.0  T
   3   -115.7990380  0.103742E-01  0.241E-01    0.20       1.0  T
   4   -115.8088092 -0.977116E-02  0.639E-02    0.11       1.0  T
   5   -115.8096110 -0.801862E-03  0.234E-03    0.09       5.1  T
   6   -115.8096117 -0.665994E-06  0.898E-04    0.09      13.3  T
   7   -115.8096114  0.333627E-06  0.151E-03    0.09       7.9  T
   8   -115.8096117 -0.360684E-06  0.543E-04    0.09      22.0  T
     SCC iter.                  ...        0 min,  0.379 sec
     gradient                   ...        0 min,  0.014 sec
 * total energy  :  -113.7651899 Eh     change       -0.7110851E-04 Eh
   gradient norm :     0.0029345 Eh/α   predicted    -0.4938785E-04 ( -30.55%)
   displ. norm   :     0.2835208 α      lambda       -0.7639535E-04
   maximum displ.:     0.1510109 α      in ANC's #1, #9, #8, ...

........................................................................
.............................. CYCLE   31 ..............................
........................................................................

 iter      E             dE          RMSdq      gap      omega  full diag
   1   -115.8098495 -0.115810E+03  0.639E-02    0.09       0.0  T
   2   -115.8086973  0.115223E-02  0.855E-02    0.07       1.0  T
   3   -115.8040871  0.461015E-02  0.179E-01    0.15       1.0  T
   4   -115.8088809 -0.479380E-02  0.706E-02    0.11       1.0  T
   5   -115.8097607 -0.879804E-03  0.224E-02    0.10       1.0  T
   6   -115.8098564 -0.956275E-04  0.176E-03    0.09       6.8  T
   7   -115.8098568 -0.434287E-06  0.617E-04    0.09      19.4  T
   8   -115.8098560  0.792086E-06  0.205E-03    0.09       5.8  T
   9   -115.8098568 -0.807964E-06  0.147E-04    0.09      81.1  T
     SCC iter.                  ...        0 min,  0.317 sec
     gradient                   ...        0 min,  0.013 sec
 * total energy  :  -113.7652502 Eh     change       -0.6032246E-04 Eh
   gradient norm :     0.0023169 Eh/α   predicted    -0.4127120E-04 ( -31.58%)
   displ. norm   :     0.2648734 α      lambda       -0.6538891E-04
   maximum displ.:     0.1490922 α      in ANC's #1, #9, #8, ...

........................................................................
.............................. CYCLE   32 ..............................
........................................................................

 iter      E             dE          RMSdq      gap      omega  full diag
   1   -115.8100117 -0.115810E+03  0.604E-02    0.09       0.0  T
   2   -115.8077442  0.226753E-02  0.114E-01    0.07       1.0  T
   3   -115.8064719  0.127231E-02  0.142E-01    0.13       1.0  T
   4   -115.8093114 -0.283948E-02  0.604E-02    0.11       1.0  T
   5   -115.8099334 -0.621998E-03  0.217E-02    0.10       1.0  T
   6   -115.8100213 -0.879708E-04  0.315E-03    0.09       3.8  T
   7   -115.8100230 -0.166466E-05  0.864E-04    0.09      13.8  T
   8   -115.8100228  0.236033E-06  0.133E-03    0.09       9.0  T
   9   -115.8100231 -0.328348E-06  0.223E-04    0.09      53.6  T
  10   -115.8100231 -0.874600E-08  0.520E-05    0.09     230.0  T
     SCC iter.                  ...        0 min,  0.344 sec
     gradient                   ...        0 min,  0.026 sec
 * total energy  :  -113.7653010 Eh     change       -0.5080578E-04 Eh
   gradient norm :     0.0020545 Eh/α   predicted    -0.3499265E-04 ( -31.12%)
   displ. norm   :     0.2355051 α      lambda       -0.5028287E-04
   maximum displ.:     0.1400964 α      in ANC's #1, #9, #8, ...

........................................................................
.............................. CYCLE   33 ..............................
........................................................................

 iter      E             dE          RMSdq      gap      omega  full diag
   1   -115.8101548 -0.115810E+03  0.539E-02    0.09       0.0  T
   2   -115.8088322  0.132259E-02  0.881E-02    0.07       1.0  T
   3   -115.8064698  0.236242E-02  0.144E-01    0.13       1.0  T
   4   -115.8096664 -0.319667E-02  0.505E-02    0.10       1.0  T
   5   -115.8101113 -0.444820E-03  0.163E-02    0.10       1.0  T
   6   -115.8101619 -0.506174E-04  0.129E-03    0.09       9.3  T
   7   -115.8101618  0.923581E-07  0.126E-03    0.09       9.5  T
   8   -115.8101617  0.290356E-07  0.128E-03    0.09       9.4  T
   9   -115.8101621 -0.310194E-06  0.153E-04    0.09      78.3  T
  10   -115.8101621 -0.391935E-08  0.388E-05    0.09     308.3  T
     SCC iter.                  ...        0 min,  0.269 sec
     gradient                   ...        0 min,  0.024 sec
 * total energy  :  -113.7653397 Eh     change       -0.3876461E-04 Eh
   gradient norm :     0.0020752 Eh/α   predicted    -0.2654085E-04 ( -31.53%)
   displ. norm   :     0.1938114 α      lambda       -0.3658835E-04
   maximum displ.:     0.1216719 α      in ANC's #1, #9, #2, ...

........................................................................
.............................. CYCLE   34 ..............................
........................................................................

 iter      E             dE          RMSdq      gap      omega  full diag
   1   -115.8102707 -0.115810E+03  0.441E-02    0.09       0.0  T
   2   -115.8097781  0.492558E-03  0.562E-02    0.08       1.0  T
   3   -115.8064727  0.330545E-02  0.145E-01    0.14       1.0  T
   4   -115.8100234 -0.355071E-02  0.359E-02    0.10       1.0  T
   5   -115.8102559 -0.232460E-03  0.971E-03    0.09       1.2  T
   6   -115.8102716 -0.157546E-04  0.346E-03    0.09       3.5  T
   7   -115.8102737 -0.206601E-05  0.102E-03    0.09      11.7  T
   8   -115.8102737 -0.384126E-07  0.888E-04    0.09      13.5  T
   9   -115.8102739 -0.152773E-06  0.717E-05    0.09     166.7  T
     SCC iter.                  ...        0 min,  0.333 sec
     gradient                   ...        0 min,  0.014 sec
 * total energy  :  -113.7653688 Eh     change       -0.2907594E-04 Eh
   gradient norm :     0.0018669 Eh/α   predicted    -0.1898377E-04 ( -34.71%)
   displ. norm   :     0.2344083 α      lambda       -0.3013320E-04
   maximum displ.:     0.1550751 α      in ANC's #1, #9, #2, ...

........................................................................
.............................. CYCLE   35 ..............................
........................................................................

 iter      E             dE          RMSdq      gap      omega  full diag
   1   -115.8106124 -0.115811E+03  0.525E-02    0.09       0.0  T
   2   -115.8095651  0.104732E-02  0.794E-02    0.08       1.0  T
   3   -115.8067017  0.286341E-02  0.148E-01    0.14       1.0  T
   4   -115.8101546 -0.345297E-02  0.492E-02    0.10       1.0  T
   5   -115.8105702 -0.415581E-03  0.158E-02    0.10       1.0  T
   6   -115.8106176 -0.473740E-04  0.173E-03    0.09       6.9  T
   7   -115.8106180 -0.462001E-06  0.731E-04    0.09      16.4  T
   8   -115.8106181 -0.132508E-07  0.575E-04    0.09      20.8  T
     SCC iter.                  ...        0 min,  0.193 sec
     gradient                   ...        0 min,  0.032 sec
 * total energy  :  -113.7654018 Eh     change       -0.3296197E-04 Eh
   gradient norm :     0.0016026 Eh/α   predicted    -0.1543755E-04 ( -53.17%)
   displ. norm   :     0.1657991 α      lambda       -0.2045870E-04
   maximum displ.:     0.1139132 α      in ANC's #1, #9, #7, ...

........................................................................
.............................. CYCLE   36 ..............................
........................................................................

 iter      E             dE          RMSdq      gap      omega  full diag
   1   -115.8102892 -0.115810E+03  0.373E-02    0.09       0.0  T
   2   -115.8065385  0.375065E-02  0.141E-01    0.06       1.0  T
   3   -115.8097962 -0.325774E-02  0.560E-02    0.10       1.0  T
   4   -115.8102080 -0.411715E-03  0.224E-02    0.10       1.0  T
   5   -115.8102944 -0.864313E-04  0.725E-03    0.09       1.6  T
   6   -115.8103030 -0.864017E-05  0.240E-03    0.09       5.0  T
   7   -115.8103041 -0.106650E-05  0.367E-04    0.09      32.6  T
   8   -115.8103041 -0.912191E-08  0.191E-04    0.09      62.7  T
   9   -115.8103041 -0.505042E-08  0.628E-05    0.09     190.2  T
     SCC iter.                  ...        0 min,  0.249 sec
     gradient                   ...        0 min,  0.013 sec
 * total energy  :  -113.7654274 Eh     change       -0.2564982E-04 Eh
   gradient norm :     0.0014429 Eh/α   predicted    -0.1035474E-04 ( -59.63%)
   displ. norm   :     0.1790512 α      lambda       -0.2754000E-04
   maximum displ.:     0.1261525 α      in ANC's #1, #9, #4, ...

........................................................................
.............................. CYCLE   37 ..............................
........................................................................

 iter      E             dE          RMSdq      gap      omega  full diag
   1   -115.8123610 -0.115812E+03  0.355E-02    0.09       0.0  T
   2   -115.8076562  0.470477E-02  0.158E-01    0.06       1.0  T
   3   -115.8120605 -0.440430E-02  0.455E-02    0.10       1.0  T
   4   -115.8123351 -0.274660E-03  0.153E-02    0.10       1.0  T
   5   -115.8123745 -0.393855E-04  0.496E-03    0.09       2.4  T
   6   -115.8123786 -0.404356E-05  0.163E-03    0.09       7.3  T
   7   -115.8123790 -0.471944E-06  0.372E-04    0.09      32.2  T
   8   -115.8123790 -0.543751E-08  0.272E-04    0.09      43.9  T
     SCC iter.                  ...        0 min,  0.254 sec
     gradient                   ...        0 min,  0.012 sec
 * total energy  :  -113.7654562 Eh     change       -0.2875217E-04 Eh
   gradient norm :     0.0023214 Eh/α   predicted    -0.1397026E-04 ( -51.41%)
   displ. norm   :     0.1562296 α      lambda       -0.3131830E-04
   maximum displ.:     0.1091501 α      in ANC's #1, #9, #7, ...

........................................................................
.............................. CYCLE   38 ..............................
........................................................................

 iter      E             dE          RMSdq      gap      omega  full diag
   1   -115.8112622 -0.115811E+03  0.350E-02    0.09       0.0  T
   2   -115.8089863  0.227591E-02  0.111E-01    0.07       1.0  T
   3   -115.8107341 -0.174772E-02  0.568E-02    0.11       1.0  T
   4   -115.8112014 -0.467323E-03  0.192E-02    0.10       1.0  T
   5   -115.8112602 -0.588293E-04  0.796E-03    0.09       1.5  T
   6   -115.8112707 -0.104800E-04  0.265E-03    0.09       4.5  T
   7   -115.8112720 -0.130387E-05  0.218E-04    0.09      54.8  T
   8   -115.8112720 -0.133441E-08  0.974E-05    0.09     122.7  T
   9   -115.8112720 -0.509331E-09  0.393E-05    0.09     304.3  T
     SCC iter.                  ...        0 min,  0.198 sec
     gradient                   ...        0 min,  0.014 sec
 * total energy  :  -113.7654804 Eh     change       -0.2422161E-04 Eh
   gradient norm :     0.0015985 Eh/α   predicted    -0.1604433E-04 ( -33.76%)
   displ. norm   :     0.1652030 α      lambda       -0.1873784E-04
   maximum displ.:     0.1197663 α      in ANC's #1, #9, #4, ...

........................................................................
.............................. CYCLE   39 ..............................
........................................................................

 iter      E             dE          RMSdq      gap      omega  full diag
   1   -115.8107407 -0.115811E+03  0.341E-02    0.09       0.0  T
   2   -115.8061966  0.454414E-02  0.156E-01    0.06       1.0  T
   3   -115.8104898 -0.429321E-02  0.421E-02    0.10       1.0  T
   4   -115.8107168 -0.227009E-03  0.149E-02    0.10       1.0  T
   5   -115.8107515 -0.347037E-04  0.612E-03    0.09       2.0  T
   6   -115.8107576 -0.610083E-05  0.201E-03    0.09       5.9  T
   7   -115.8107584 -0.745916E-06  0.309E-04    0.09      38.7  T
   8   -115.8107584 -0.914255E-08  0.101E-04    0.09     118.4  T
     SCC iter.                  ...        0 min,  0.168 sec
     gradient                   ...        0 min,  0.032 sec
 * total energy  :  -113.7655029 Eh     change       -0.2244286E-04 Eh
   gradient norm :     0.0012423 Eh/α   predicted    -0.9487042E-05 ( -57.73%)
   displ. norm   :     0.1250166 α      lambda       -0.1520235E-04
   maximum displ.:     0.0909771 α      in ANC's #1, #4, #9, ...

........................................................................
.............................. CYCLE   40 ..............................
........................................................................

 iter      E             dE          RMSdq      gap      omega  full diag
   1   -115.8113463 -0.115811E+03  0.238E-02    0.09       0.0  T
   2   -115.8108626  0.483601E-03  0.523E-02    0.08       1.0  T
   3   -115.8108222  0.404320E-04  0.544E-02    0.11       1.0  T
   4   -115.8113392 -0.516982E-03  0.725E-03    0.09       1.6  T
   5   -115.8113481 -0.889460E-05  0.202E-03    0.09       5.9  T
   6   -115.8113488 -0.735338E-06  0.285E-04    0.09      42.0  T
   7   -115.8113488  0.782865E-08  0.282E-04    0.09      42.3  T
     SCC iter.                  ...        0 min,  0.137 sec
     gradient                   ...        0 min,  0.013 sec
 * total energy  :  -113.7655211 Eh     change       -0.1822378E-04 Eh
   gradient norm :     0.0008462 Eh/α   predicted    -0.7656463E-05 ( -57.99%)
   displ. norm   :     0.1055846 α      lambda       -0.1199757E-04
   maximum displ.:     0.0786465 α      in ANC's #1, #4, #6, ...

........................................................................
.............................. CYCLE   41 ..............................
........................................................................

 iter      E             dE          RMSdq      gap      omega  full diag
   1   -115.8114439 -0.115811E+03  0.206E-02    0.09       0.0  T
   2   -115.8114168  0.270909E-04  0.172E-02    0.10       1.0  T
   3   -115.8074484  0.396838E-02  0.145E-01    0.06       1.0  T
   4   -115.8114377 -0.398934E-02  0.597E-03    0.09       2.0  T
   5   -115.8114436 -0.588979E-05  0.179E-03    0.09       6.7  T
   6   -115.8114442 -0.597596E-06  0.298E-04    0.09      40.1  T
   7   -115.8114442  0.975777E-08  0.321E-04    0.09      37.2  T
     SCC iter.                  ...        0 min,  0.342 sec
     gradient                   ...        0 min,  0.035 sec
 * total energy  :  -113.7655345 Eh     change       -0.1340734E-04 Eh
   gradient norm :     0.0011098 Eh/α   predicted    -0.6031538E-05 ( -55.01%)
   displ. norm   :     0.0774537 α      lambda       -0.9007721E-05
   maximum displ.:     0.0581217 α      in ANC's #1, #4, #2, ...

........................................................................
.............................. CYCLE   42 ..............................
........................................................................

 iter      E             dE          RMSdq      gap      omega  full diag
   1   -115.8112790 -0.115811E+03  0.156E-02    0.09       0.0  T
   2   -115.8109687  0.310299E-03  0.418E-02    0.10       1.0  T
   3   -115.8111803 -0.211570E-03  0.244E-02    0.09       1.0  T
   4   -115.8112799 -0.996041E-04  0.344E-03    0.09       3.5  T
   5   -115.8112807 -0.812035E-06  0.148E-03    0.09       8.1  T
   6   -115.8112811 -0.393530E-06  0.409E-04    0.09      29.3  T
   7   -115.8112810  0.278991E-07  0.512E-04    0.09      23.3  T
     SCC iter.                  ...        0 min,  0.233 sec
     gradient                   ...        0 min,  0.013 sec
 * total energy  :  -113.7655452 Eh     change       -0.1072559E-04 Eh
   gradient norm :     0.0010471 Eh/α   predicted    -0.4516516E-05 ( -57.89%)
   displ. norm   :     0.0676992 α      lambda       -0.8209900E-05
   maximum displ.:     0.0469206 α      in ANC's #1, #2, #4, ...
 * RMSD in coord.:     0.4344684 α      energy gain  -0.1344064E-02 Eh

generating ANC from model Hessian ...
Using Lindh-Hessian (1995)
 Shifting diagonal of input Hessian by    9.9393643786537100E-003
 Lowest  eigenvalues of input Hessian
    0.000000    0.000000    0.000000    0.000000    0.000000    0.000000
    0.010000    0.010178    0.010584    0.010680    0.010783    0.011017
    0.011132    0.011218    0.011262    0.011968    0.012244    0.013172
 Highest eigenvalues
    2.115470    2.119594    2.137800    2.149592    2.296989    2.566187


........................................................................
.............................. CYCLE   43 ..............................
........................................................................

 iter      E             dE          RMSdq      gap      omega  full diag
   1   -115.8110849 -0.115811E+03  0.140E-02    0.09       0.0  T
   2   -115.8108490  0.235888E-03  0.365E-02    0.10       1.0  T
   3   -115.8109909 -0.141922E-03  0.236E-02    0.09       1.0  T
   4   -115.8110848 -0.938464E-04  0.422E-03    0.09       2.8  T
   5   -115.8110862 -0.138952E-05  0.141E-03    0.09       8.5  T
   6   -115.8110865 -0.363604E-06  0.287E-04    0.09      41.6  T
   7   -115.8110865  0.730392E-07  0.645E-04    0.09      18.5  T
     SCC iter.                  ...        0 min,  0.177 sec
     gradient                   ...        0 min,  0.012 sec
 * total energy  :  -113.7655558 Eh     change       -0.1055161E-04 Eh
   gradient norm :     0.0010193 Eh/α   predicted     0.0000000E+00 (-100.00%)
   displ. norm   :     0.0316824 α      lambda       -0.5423348E-05
   maximum displ.:     0.0256765 α      in ANC's #1, #9, #6, ...

........................................................................
.............................. CYCLE   44 ..............................
........................................................................

 iter      E             dE          RMSdq      gap      omega  full diag
   1   -115.8109307 -0.115811E+03  0.643E-03    0.09       0.0  T
   2   -115.8108515  0.792314E-04  0.208E-02    0.09       1.0  T
   3   -115.8109074 -0.559549E-04  0.118E-02    0.10       1.0  T
   4   -115.8109310 -0.235412E-04  0.125E-03    0.09       9.5  T
   5   -115.8109310 -0.795954E-07  0.759E-04    0.09      15.8  T
   6   -115.8109311 -0.107887E-06  0.120E-04    0.09      99.6  T
     SCC iter.                  ...        0 min,  0.308 sec
     gradient                   ...        0 min,  0.029 sec
 * total energy  :  -113.7655639 Eh     change       -0.8114719E-05 Eh
   gradient norm :     0.0004365 Eh/α   predicted    -0.3124103E-05 ( -61.50%)
   displ. norm   :     0.0687511 α      lambda       -0.1008961E-04
   maximum displ.:     0.0503813 α      in ANC's #1, #9, #6, ...

........................................................................
.............................. CYCLE   45 ..............................
........................................................................

 iter      E             dE          RMSdq      gap      omega  full diag
   1   -115.8109390 -0.115811E+03  0.143E-02    0.09       0.0  T
   2   -115.8099383  0.100069E-02  0.732E-02    0.08       1.0  T
   3   -115.8108966 -0.958348E-03  0.174E-02    0.10       1.0  T
   4   -115.8109414 -0.448159E-04  0.384E-03    0.09       3.1  T
   5   -115.8109434 -0.193136E-05  0.131E-03    0.09       9.1  T
   6   -115.8109437 -0.306669E-06  0.254E-04    0.09      47.1  T
   7   -115.8109437  0.223872E-08  0.242E-04    0.09      49.4  T
     SCC iter.                  ...        0 min,  0.236 sec
     gradient                   ...        0 min,  0.023 sec
 * total energy  :  -113.7655767 Eh     change       -0.1282146E-04 Eh
   gradient norm :     0.0007530 Eh/α   predicted    -0.5055547E-05 ( -60.57%)
   displ. norm   :     0.0968913 α      lambda       -0.1114596E-04
   maximum displ.:     0.0690049 α      in ANC's #1, #9, #6, ...

........................................................................
.............................. CYCLE   46 ..............................
........................................................................

 iter      E             dE          RMSdq      gap      omega  full diag
   1   -115.8110352 -0.115811E+03  0.178E-02    0.09       0.0  T
   2   -115.8110240  0.111460E-04  0.129E-02    0.09       1.0  T
   3   -115.8075574  0.346664E-02  0.135E-01    0.07       1.0  T
   4   -115.8110341 -0.347677E-02  0.363E-03    0.09       3.3  T
   5   -115.8110349 -0.725207E-06  0.171E-03    0.09       7.0  T
   6   -115.8110354 -0.554255E-06  0.214E-04    0.09      55.9  T
   7   -115.8110354  0.166531E-07  0.327E-04    0.09      36.6  T
     SCC iter.                  ...        0 min,  0.215 sec
     gradient                   ...        0 min,  0.021 sec
 * total energy  :  -113.7655913 Eh     change       -0.1456257E-04 Eh
   gradient norm :     0.0010574 Eh/α   predicted    -0.5612327E-05 ( -61.46%)
   displ. norm   :     0.1096025 α      lambda       -0.1129338E-04
   maximum displ.:     0.0773689 α      in ANC's #1, #9, #2, ...

........................................................................
.............................. CYCLE   47 ..............................
........................................................................

 iter      E             dE          RMSdq      gap      omega  full diag
   1   -115.8110752 -0.115811E+03  0.193E-02    0.09       0.0  T
   2   -115.8107294  0.345855E-03  0.444E-02    0.10       1.0  T
   3   -115.8107741 -0.447282E-04  0.413E-02    0.08       1.0  T
   4   -115.8110754 -0.301300E-03  0.444E-03    0.09       2.7  T
   5   -115.8110760 -0.636013E-06  0.287E-03    0.09       4.2  T
   6   -115.8110776 -0.158208E-05  0.255E-04    0.09      46.9  T
   7   -115.8110775  0.663342E-07  0.614E-04    0.09      19.5  T
   8   -115.8110776 -0.712872E-07  0.526E-05    0.09     227.4  T
     SCC iter.                  ...        0 min,  0.224 sec
     gradient                   ...        0 min,  0.024 sec
 * total energy  :  -113.7656065 Eh     change       -0.1522811E-04 Eh
   gradient norm :     0.0009984 Eh/α   predicted    -0.5685199E-05 ( -62.67%)
   displ. norm   :     0.1165800 α      lambda       -0.1159943E-04
   maximum displ.:     0.0825196 α      in ANC's #1, #2, #9, ...

........................................................................
.............................. CYCLE   48 ..............................
........................................................................

 iter      E             dE          RMSdq      gap      omega  full diag
   1   -115.8111574 -0.115811E+03  0.200E-02    0.09       0.0  T
   2   -115.8107199  0.437452E-03  0.496E-02    0.10       1.0  T
   3   -115.8108831 -0.163196E-03  0.397E-02    0.08       1.0  T
   4   -115.8111586 -0.275453E-03  0.414E-03    0.09       2.9  T
   5   -115.8111589 -0.314068E-06  0.280E-03    0.09       4.3  T
   6   -115.8111604 -0.151474E-05  0.235E-04    0.09      50.8  T
   7   -115.8111604  0.284785E-07  0.418E-04    0.09      28.6  T
   8   -115.8111604 -0.299001E-07  0.115E-04    0.09     103.5  T
     SCC iter.                  ...        0 min,  0.174 sec
     gradient                   ...        0 min,  0.012 sec
 * total energy  :  -113.7656221 Eh     change       -0.1565882E-04 Eh
   gradient norm :     0.0006458 Eh/α   predicted    -0.5839392E-05 ( -62.71%)
   displ. norm   :     0.1191527 α      lambda       -0.1131441E-04
   maximum displ.:     0.0857391 α      in ANC's #1, #2, #3, ...

........................................................................
.............................. CYCLE   49 ..............................
........................................................................

 iter      E             dE          RMSdq      gap      omega  full diag
   1   -115.8111524 -0.115811E+03  0.209E-02    0.09       0.0  T
   2   -115.8100336  0.111874E-02  0.783E-02    0.11       1.0  T
   3   -115.8110701 -0.103649E-02  0.245E-02    0.09       1.0  T
   4   -115.8111593 -0.891477E-04  0.357E-03    0.09       3.3  T
   5   -115.8111595 -0.201383E-06  0.246E-03    0.09       4.9  T
   6   -115.8111606 -0.112752E-05  0.575E-04    0.09      20.8  T
   7   -115.8111606 -0.458843E-07  0.258E-04    0.09      46.3  T
   8   -115.8111607 -0.349002E-08  0.204E-04    0.09      58.6  T
     SCC iter.                  ...        0 min,  0.169 sec
     gradient                   ...        0 min,  0.012 sec
 * total energy  :  -113.7656374 Eh     change       -0.1521618E-04 Eh
   gradient norm :     0.0003383 Eh/α   predicted    -0.5694068E-05 ( -62.58%)
   displ. norm   :     0.1121835 α      lambda       -0.1008543E-04
   maximum displ.:     0.0824249 α      in ANC's #1, #2, #3, ...

........................................................................
.............................. CYCLE   50 ..............................
........................................................................

[...]
        95        2.0000           -0.5191390             -14.1265
        96        2.0000           -0.5162577             -14.0481
        97        2.0000           -0.5128877             -13.9564
        98        2.0000           -0.5065822             -13.7848
        99        2.0000           -0.5060701             -13.7709
       100        2.0000           -0.5041773             -13.7194
       101        2.0000           -0.5020147             -13.6605
       102        2.0000           -0.4869560             -13.2507
       103        2.0000           -0.4851123             -13.2006
       104        1.9920           -0.4689980             -12.7621
       105        1.7190           -0.4654723             -12.6661 (HOMO)
       106        0.2890           -0.4620619             -12.5733 (LUMO)
       107                         -0.3902886             -10.6203
       108                         -0.3695278             -10.0554
       109                         -0.3640293              -9.9057
       110                         -0.3541397              -9.6366
       111                         -0.3437277              -9.3533
       112                         -0.3384788              -9.2105
       113                         -0.3366676              -9.1612
       114                         -0.3345713              -9.1041
       115                         -0.3331317              -9.0650
       116                         -0.3078985              -8.3783
       ...                                ...                  ...
       205                          0.6216763              16.9167
      -------------------------------------------------------------
                  HL-Gap            0.0034103 Eh            0.0928 eV
             Fermi-level           -0.4637516 Eh          -12.6193 eV

     #   Z          covCN         q      C6AA      α(0)
     1   6 C        2.978     0.007    27.866     8.659
     2   6 C        2.979     0.013    27.715     8.636
     3   6 C        2.978     0.012    27.744     8.640
     4   6 C        2.989     0.018    27.591     8.616
     5   6 C        2.987     0.020    27.562     8.612
     6   6 C        2.987     0.018    27.598     8.617
     7   6 C        2.980     0.016    27.646     8.625
     8   6 C        2.981     0.011    27.772     8.644
     9   6 C        2.989     0.023    27.489     8.600
    10   6 C        2.988     0.012    27.734     8.639
    11   6 C        2.918    -0.026    28.652     8.778
    12   6 C        2.918    -0.027    28.675     8.781
    13   6 C        2.917    -0.028    28.710     8.787
    14   6 C        2.917    -0.032    28.788     8.799
    15   6 C        2.917    -0.027    28.674     8.781
    16   6 C        2.916    -0.035    28.861     8.810
    17   6 C        2.915    -0.031    28.766     8.795
    18   6 C        2.915    -0.032    28.788     8.798
    19   6 C        2.922    -0.027    28.673     8.781
    20   6 C        2.919    -0.029    28.713     8.787
    21   6 C        2.921    -0.028    28.710     8.787
    22   6 C        2.922    -0.032    28.803     8.801
    23   6 C        2.982    -0.003    28.092     8.694
    24   6 C        2.917    -0.026    28.664     8.779
    25   6 C        2.920    -0.029    28.719     8.788
    26   6 C        2.916    -0.025    28.639     8.776
    27   1 H        0.926     0.056     2.242     2.342
    28   1 H        0.926     0.055     2.262     2.352
    29   1 H        0.926     0.056     2.250     2.346
    30   1 H        0.926     0.051     2.313     2.378
    31   1 H        0.926     0.056     2.243     2.342
    32   1 H        0.926     0.045     2.387     2.416
    33   1 H        0.926     0.054     2.269     2.356
    34   1 H        0.926     0.045     2.387     2.416
    35   1 H        0.926     0.057     2.228     2.334
    36   1 H        0.926     0.043     2.408     2.427
    37   1 H        0.926     0.058     2.223     2.331
    38   1 H        0.926     0.043     2.409     2.427
    39   1 H        0.926     0.045     2.384     2.414
    40   1 H        0.926     0.046     2.375     2.410
    41   6 C        2.881     0.161    24.521     8.118
    42   7 N        1.936    -0.179    25.669     7.512
    43   7 N        2.849     0.084    19.788     6.607
    44   6 C        2.705     0.297    21.955     7.669
    45   7 N        2.850     0.081    19.831     6.614
    46   7 N        1.932    -0.183    25.776     7.528
    47   8 O        0.858    -0.381    21.313     6.190
    48   6 C        2.934     0.061    26.623     8.462
    49   6 C        2.917    -0.025    28.627     8.774
    50   6 C        2.921    -0.017    28.426     8.743
    51   6 C        2.919    -0.011    28.302     8.724
    52   6 C        2.919    -0.019    28.476     8.751
    53   6 C        2.922    -0.028    28.701     8.786
    54   6 C        2.935     0.062    26.620     8.462
    55   6 C        2.922    -0.025    28.616     8.772
    56   6 C        2.919    -0.017    28.428     8.743
    57   6 C        2.919    -0.010    28.273     8.720
    58   6 C        2.920    -0.016    28.413     8.741
    59   6 C        2.917    -0.024    28.601     8.770
    60   1 H        0.926     0.071     2.079     2.255
    61   1 H        0.926     0.069     2.100     2.266
    62   1 H        0.926     0.071     2.075     2.252
    63   1 H        0.926     0.071     2.075     2.252
    64   1 H        0.926     0.075     2.029     2.228
    65   1 H        0.926     0.078     1.997     2.210
    66   1 H        0.926     0.071     2.077     2.253
    67   1 H        0.926     0.069     2.093     2.263
    68   1 H        0.926     0.063     2.162     2.299
    69   1 H        0.926     0.068     2.102     2.267
    70   1 H        0.926     0.060     2.197     2.318

 Mol. C6AA /au·bohr⁶  :      74141.461085
 Mol. C8AA /au·bohr⁸  :    1895501.834759
 Mol. α(0) /au        :        439.650096


Wiberg/Mayer (AO) data.
largest (>0.10) Wiberg bond orders for each atom

 ---------------------------------------------------------------------------
     #   Z sym  total        # sym  WBO       # sym  WBO       # sym  WBO
 ---------------------------------------------------------------------------
     1   6 C    3.980 --     4 C    1.285     3 C    1.224     2 C    1.218
     2   6 C    3.930 --     5 C    1.300     1 C    1.218     7 C    1.172
     3   6 C    3.921 --     6 C    1.288     1 C    1.224     8 C    1.178
     4   6 C    3.972 --     1 C    1.285    11 C    1.258    12 C    1.243
     5   6 C    3.968 --     2 C    1.300    13 C    1.263    15 C    1.223
     6   6 C    3.953 --     3 C    1.288    14 C    1.256    16 C    1.235
     7   6 C    3.985 --    19 C    1.342     9 C    1.261     2 C    1.172
     8   6 C    3.985 --    20 C    1.319    10 C    1.271     3 C    1.178
     9   6 C    3.975 --    21 C    1.299     7 C    1.261    17 C    1.224
    10   6 C    3.983 --    22 C    1.312     8 C    1.271    18 C    1.216
    11   6 C    3.938 --    13 C    1.562     4 C    1.258    27 H    0.964
    12   6 C    3.938 --    14 C    1.579     4 C    1.243    28 H    0.964
    13   6 C    3.952 --    11 C    1.562     5 C    1.263    29 H    0.965
    14   6 C    3.967 --    12 C    1.579     6 C    1.256    30 H    0.966
    15   6 C    3.972 --    17 C    1.617     5 C    1.223    31 H    0.965
    16   6 C    3.978 --    18 C    1.604     6 C    1.235    32 H    0.965
    17   6 C    3.964 --    15 C    1.617     9 C    1.224    33 H    0.965
    18   6 C    3.942 --    16 C    1.604    10 C    1.216    34 H    0.966
    19   6 C    3.970 --    23 C    1.429     7 C    1.342    35 H    0.958
    20   6 C    3.955 --    24 C    1.501     8 C    1.319    36 H    0.960
                            22 C    0.101
    21   6 C    3.975 --    25 C    1.542     9 C    1.299    37 H    0.965
    22   6 C    3.953 --    26 C    1.503    10 C    1.312    38 H    0.967
                            20 C    0.101
    23   6 C    3.973 --    19 C    1.429    25 C    1.288    41 C    1.072
    24   6 C    3.974 --    20 C    1.501    26 C    1.362    39 H    0.969
    25   6 C    3.967 --    21 C    1.542    23 C    1.288    70 H    0.964
    26   6 C    3.968 --    22 C    1.503    24 C    1.362    40 H    0.970
    27   1 H    0.995 --    11 C    0.964
    28   1 H    0.995 --    12 C    0.964
    29   1 H    0.996 --    13 C    0.965
    30   1 H    0.996 --    14 C    0.966
    31   1 H    0.996 --    15 C    0.965
    32   1 H    0.997 --    16 C    0.965
    33   1 H    0.995 --    17 C    0.965
    34   1 H    0.996 --    18 C    0.966
    35   1 H    0.996 --    19 C    0.958
    36   1 H    0.997 --    20 C    0.960
    37   1 H    0.995 --    21 C    0.965
    38   1 H    0.997 --    22 C    0.967
    39   1 H    0.997 --    24 C    0.969
    40   1 H    0.997 --    26 C    0.970
    41   6 C    3.954 --    46 N    1.354    42 N    1.346    23 C    1.072
    42   7 N    2.904 --    41 C    1.346    43 N    1.245
    43   7 N    3.627 --    42 N    1.245    44 C    1.057    54 C    1.034
                            47 O    0.126
    44   6 C    3.958 --    47 O    1.696    43 N    1.057    45 N    1.056
    45   7 N    3.624 --    46 N    1.240    44 C    1.056    48 C    1.036
                            47 O    0.127
    46   7 N    2.907 --    41 C    1.354    45 N    1.240
    47   8 O    2.059 --    44 C    1.696    45 N    0.127    43 N    0.126
    48   6 C    3.936 --    49 C    1.354    53 C    1.345    45 N    1.036
    49   6 C    3.965 --    50 C    1.459    48 C    1.354    65 H    0.962
                            52 C    0.100
    50   6 C    3.984 --    49 C    1.459    51 C    1.424    66 H    0.966
                            53 C    0.102
    51   6 C    3.945 --    50 C    1.424    52 C    1.415    67 H    0.968
    52   6 C    3.985 --    53 C    1.470    51 C    1.415    68 H    0.965
                            49 C    0.100
    53   6 C    3.964 --    52 C    1.470    48 C    1.345    69 H    0.955
                            50 C    0.102
    54   6 C    3.935 --    59 C    1.354    55 C    1.344    43 N    1.034
    55   6 C    3.965 --    56 C    1.471    54 C    1.344    60 H    0.961
                            58 C    0.102
    56   6 C    3.984 --    55 C    1.471    57 C    1.414    61 H    0.966
                            59 C    0.100
    57   6 C    3.944 --    58 C    1.424    56 C    1.414    62 H    0.968
    58   6 C    3.984 --    59 C    1.459    57 C    1.424    63 H    0.966
                            55 C    0.102
    59   6 C    3.966 --    58 C    1.459    54 C    1.354    64 H    0.963
                            56 C    0.100
    60   1 H    0.995 --    55 C    0.961
    61   1 H    0.994 --    56 C    0.966
    62   1 H    0.995 --    57 C    0.968
    63   1 H    0.993 --    58 C    0.966
    64   1 H    0.994 --    59 C    0.963
    65   1 H    0.994 --    49 C    0.962
    66   1 H    0.994 --    50 C    0.966
    67   1 H    0.995 --    51 C    0.968
    68   1 H    0.995 --    52 C    0.965
    69   1 H    0.995 --    53 C    0.955
    70   1 H    0.995 --    25 C    0.964
 ---------------------------------------------------------------------------

Topologies differ in bond orders
Writing corrected topology to xtbtopo.mol

molecular dipole:
                 x           y           z       tot (Debye)
 q only:        0.653      -0.159      -1.126
   full:        0.648      -0.226      -1.046       3.179
molecular quadrupole (traceless):
                xx          xy          yy          xz          yz          zz
 q only:       44.944      -8.807       2.015      -4.513     -14.489     -46.959
  q+dip:       48.616      -6.946       5.903      -1.583     -18.638     -54.519
   full:       42.986      -9.674       1.181      -3.656     -12.599     -44.167

           -------------------------------------------------
          |                Geometry Summary                 |
           -------------------------------------------------

      molecular mass/u    :      577.6541725
   center of mass at/Å    :       -0.1441646       0.2150570      -0.2438988
  moments of inertia/u·Å² :        0.4431195E+04   0.8625888E+04   0.1116526E+05
rotational constants/cm⁻¹ :        0.3804308E-02   0.1954307E-02   0.1509829E-02

 * 75 selected distances

     #   Z          #   Z                                           value/Å
     1   6 C        2   6 C                                       1.4325856 (max)
     1   6 C        3   6 C                                       1.4313490
     1   6 C        4   6 C                                       1.4165144
     2   6 C        5   6 C                                       1.4128622
     3   6 C        6   6 C                                       1.4149624
     7   6 C        9   6 C                                       1.4193375
     8   6 C       10   6 C                                       1.4171051
     4   6 C       11   6 C                                       1.4132692
     4   6 C       12   6 C                                       1.4158184
     5   6 C       13   6 C                                       1.4122728
    11   6 C       13   6 C                                       1.3619855
     6   6 C       14   6 C                                       1.4134527
    12   6 C       14   6 C                                       1.3596054
     5   6 C       15   6 C                                       1.4208069
     6   6 C       16   6 C                                       1.4183727
     9   6 C       17   6 C                                       1.4198023
    15   6 C       17   6 C                                       1.3554388
    10   6 C       18   6 C                                       1.4218978
    16   6 C       18   6 C                                       1.3570414
     7   6 C       19   6 C                                       1.4012477
     8   6 C       20   6 C                                       1.4053146
     9   6 C       21   6 C                                       1.4062144
    10   6 C       22   6 C                                       1.4044922
    19   6 C       23   6 C                                       1.3837270
    20   6 C       24   6 C                                       1.3737812
    21   6 C       25   6 C                                       1.3658073
    23   6 C       25   6 C                                       1.4078719
    22   6 C       26   6 C                                       1.3728938
    24   6 C       26   6 C                                       1.3955102
    11   6 C       27   1 H                                       1.0793838
    12   6 C       28   1 H                                       1.0793427
    13   6 C       29   1 H                                       1.0791937
    14   6 C       30   1 H                                       1.0794302
    15   6 C       31   1 H                                       1.0794964
    16   6 C       32   1 H                                       1.0798894
    17   6 C       33   1 H                                       1.0792299
    18   6 C       34   1 H                                       1.0803163
    19   6 C       35   1 H                                       1.0780971
    20   6 C       36   1 H                                       1.0786914
    21   6 C       37   1 H                                       1.0795684
    22   6 C       38   1 H                                       1.0805891
    24   6 C       39   1 H                                       1.0791680
    26   6 C       40   1 H                                       1.0792726
    41   6 C       42   7 N                                       1.3275600
    42   7 N       43   7 N                                       1.3121123
    43   7 N       44   6 C                                       1.4027886
    44   6 C       45   7 N                                       1.4044077
    41   6 C       46   7 N                                       1.3260910
    45   7 N       46   7 N                                       1.3157408
    44   6 C       47   8 O                                       1.2000739
    45   7 N       48   6 C                                       1.4100650
    48   6 C       49   6 C                                       1.3948242
    49   6 C       50   6 C                                       1.3820529
    50   6 C       51   6 C                                       1.3865623
    51   6 C       52   6 C                                       1.3877904
    48   6 C       53   6 C                                       1.3960844
    52   6 C       53   6 C                                       1.3786525
    43   7 N       54   6 C                                       1.4097936
    54   6 C       55   6 C                                       1.3967600
    55   6 C       56   6 C                                       1.3788493
    56   6 C       57   6 C                                       1.3882906
    57   6 C       58   6 C                                       1.3867585
    54   6 C       59   6 C                                       1.3943131
    58   6 C       59   6 C                                       1.3819094
    55   6 C       60   1 H                                       1.0784342
    56   6 C       61   1 H                                       1.0786610
    57   6 C       62   1 H                                       1.0786889
    58   6 C       63   1 H                                       1.0785541
Note: The following floating-point exceptions are signalling: IEEE_UNDERFLOW_FLAG
normal termination of xtb
    59   6 C       64   1 H                                       1.0768384
    49   6 C       65   1 H                                       1.0764881 (min)
    50   6 C       66   1 H                                       1.0785090
    51   6 C       67   1 H                                       1.0787465
    52   6 C       68   1 H                                       1.0783389
    53   6 C       69   1 H                                       1.0784109
    25   6 C       70   1 H                                       1.0773364

 * 5 distinct bonds (by element types)

   Z      Z             #   av. dist./Å        max./Å        min./Å
   1 H    6 C          25     1.0788270     1.0805891     1.0764881
   6 C    6 C          41     1.3971753     1.4325856     1.3554388
   6 C    7 N           6     1.3801177     1.4100650     1.3260910
   7 N    7 N           2     1.3139265     1.3157408     1.3121123
   6 C    8 O           1     1.2000739     1.2000739     1.2000739


optimized geometry written to: xtbopt.mol


           -------------------------------------------------
          | TOTAL ENERGY             -113.765838678984 Eh   |
          | GRADIENT NORM               0.000176095843 Eh/α |
          | HOMO-LUMO GAP               0.092800129112 eV   |
           -------------------------------------------------
########################################################################
[WARNING] Runtime exception occurred
-1- restart_readRestart: Number of electron missmatch in restart file.
########################################################################

------------------------------------------------------------------------
 * finished run on 2024/11/14 at 15:18:57.591     
------------------------------------------------------------------------
 total:
 * wall-time:     0 d,  0 h,  0 min, 21.906 sec
 *  cpu-time:     0 d,  0 h,  1 min, 10.722 sec
 * ratio c/w:     3.228 speedup
 SCF:
 * wall-time:     0 d,  0 h,  0 min,  0.779 sec
 *  cpu-time:     0 d,  0 h,  0 min,  2.786 sec
 * ratio c/w:     3.576 speedup
 ANC optimizer:
 * wall-time:     0 d,  0 h,  0 min, 21.115 sec
 *  cpu-time:     0 d,  0 h,  1 min,  7.920 sec
 * ratio c/w:     3.217 speedup

