      -----------------------------------------------------------      
     |                   =====================                   |     
     |                           x T B                           |     
     |                   =====================                   |     
     |                         S. Grimme                         |     
     |          Mulliken Center for Theoretical Chemistry        |     
     |                    University of Bonn                     |     
      -----------------------------------------------------------      

   * xtb version 6.6.1 (8d0f1dd) compiled by 'runner@Mac-1690902418499.local' on 2023-08-01

   xtb is free software: you can redistribute it and/or modify it under
   the terms of the GNU Lesser General Public License as published by
   the Free Software Foundation, either version 3 of the License, or
   (at your option) any later version.
   
   xtb is distributed in the hope that it will be useful,
   but WITHOUT ANY WARRANTY; without even the implied warranty of
   MERCHANTABILITY or FITNESS FOR A PARTICULAR PURPOSE.  See the
   GNU Lesser General Public License for more details.
   
   Cite this work as:
   * C. Bannwarth, E. Caldeweyher, S. Ehlert, A. Hansen, P. Pracht,
     J. Seibert, S. Spicher, S. Grimme, WIREs Comput. Mol. Sci., 2020, 11,
     e01493. DOI: 10.1002/wcms.1493
   
   for GFN2-xTB:
   * C. Bannwarth, S. Ehlert and S. Grimme., J. Chem. Theory Comput., 2019,
     15, 1652-1671. DOI: 10.1021/acs.jctc.8b01176
   for GFN1-xTB:
   * S. Grimme, C. Bannwarth, P. Shushkov, J. Chem. Theory Comput., 2017,
     13, 1989-2009. DOI: 10.1021/acs.jctc.7b00118
   for GFN0-xTB:
   * P. Pracht, E. Caldeweyher, S. Ehlert, S. Grimme, ChemRxiv, 2019, preprint.
     DOI: 10.26434/chemrxiv.8326202.v1
   for GFN-FF:
   * S. Spicher and S. Grimme, Angew. Chem. Int. Ed., 2020, 59, 15665-15673.
     DOI: 10.1002/anie.202004239
   
   for ALPB and GBSA implicit solvation:
   * S. Ehlert, M. Stahn, S. Spicher, S. Grimme, J. Chem. Theory Comput.,
     2021, 17, 4250-4261. DOI: 10.1021/acs.jctc.1c00471
   
   for DFT-D4:
   * E. Caldeweyher, C. Bannwarth and S. Grimme, J. Chem. Phys., 2017,
     147, 034112. DOI: 10.1063/1.4993215
   * E. Caldeweyher, S. Ehlert, A. Hansen, H. Neugebauer, S. Spicher,
     C. Bannwarth and S. Grimme, J. Chem. Phys., 2019, 150, 154122.
     DOI: 10.1063/1.5090222
   * E. Caldeweyher, J.-M. Mewes, S. Ehlert and S. Grimme, Phys. Chem. Chem. Phys.
     2020, 22, 8499-8512. DOI: 10.1039/D0CP00502A
   
   for sTDA-xTB:
   * S. Grimme and C. Bannwarth, J. Chem. Phys., 2016, 145, 054103.
     DOI: 10.1063/1.4959605
   
   in the mass-spec context:
   * V. Asgeirsson, C. Bauer and S. Grimme, Chem. Sci., 2017, 8, 4879.
     DOI: 10.1039/c7sc00601b
   * J. Koopman and S. Grimme, ACS Omega 2019, 4, 12, 15120-15133.
     DOI: 10.1021/acsomega.9b02011
   
   for metadynamics refer to:
   * S. Grimme, J. Chem. Theory Comput., 2019, 155, 2847-2862
     DOI: 10.1021/acs.jctc.9b00143
   
   for SPH calculations refer to:
   * S. Spicher and S. Grimme, J. Chem. Theory Comput., 2021, 17, 1701-1714
     DOI: 10.1021/acs.jctc.0c01306
   
   with help from (in alphabetical order)
   P. Atkinson, C. Bannwarth, F. Bohle, G. Brandenburg, E. Caldeweyher
   M. Checinski, S. Dohm, S. Ehlert, S. Ehrlich, I. Gerasimov, C. Hölzer
   A. Katbashev, J. Koopman, C. Lavigne, S. Lehtola, F. März, M. Müller,
   F. Musil, H. Neugebauer, J. Pisarek, C. Plett, P. Pracht, F. Pultar,
   J. Seibert, P. Shushkov, S. Spicher, M. Stahn, M. Steiner, T. Strunk,
   J. Stückrath, T. Rose, and J. Unsleber
   
 * started run on 2024/11/14 at 15:20:30.658     

           -------------------------------------------------
          |                Calculation Setup                |
           -------------------------------------------------

          program call               : xtb opt_radical_Verdazyl2.mol --gfn2 --sp --chrg 1 --uhf 0
          coordinate file            : opt_radical_Verdazyl2.mol
          omp threads                :                     8

   ID    Z sym.   atoms
    1    6 C      1-26, 41, 44, 48-59
    2    1 H      27-40, 60-70
    3    7 N      42, 43, 45, 46
    4    8 O      47

           -------------------------------------------------
          |                 G F N 2 - x T B                 |
           -------------------------------------------------

        Reference                      10.1021/acs.jctc.8b01176
      * Hamiltonian:
        H0-scaling (s, p, d)           1.850000    2.230000    2.230000
        zeta-weighting                 0.500000
      * Dispersion:
        s8                             2.700000
        a1                             0.520000
        a2                             5.000000
        s9                             5.000000
      * Repulsion:
        kExp                           1.500000    1.000000
        rExp                           1.000000
      * Coulomb:
        alpha                          2.000000
        third order                    shell-resolved
        anisotropic                    true
        a3                             3.000000
        a5                             4.000000
        cn-shift                       1.200000
        cn-exp                         4.000000
        max-rad                        5.000000

q/qsh data taken from xtbrestart
CAMM data taken from xtbrestart

          ...................................................
          :                      SETUP                      :
          :.................................................:
          :  # basis functions                 205          :
          :  # atomic orbitals                 205          :
          :  # shells                          115          :
          :  # electrons                       210          :
          :  max. iterations                   250          :
          :  Hamiltonian                  GFN2-xTB          :
          :  restarted?                       true          :
          :  GBSA solvation                  false          :
          :  PC potential                    false          :
          :  electronic temp.          300.0000000     K    :
          :  accuracy                    1.0000000          :
          :  -> integral cutoff          0.2500000E+02      :
          :  -> integral neglect         0.1000000E-07      :
          :  -> SCF convergence          0.1000000E-05 Eh   :
          :  -> wf. convergence          0.1000000E-03 e    :
          :  Broyden damping             0.4000000          :
          ...................................................

 iter      E             dE          RMSdq      gap      omega  full diag
   1   -115.7543723 -0.115754E+03  0.300E+00    0.84       0.0  T
   2   -115.3284808  0.425891E+00  0.238E+00    0.08       1.0  T
   3   -115.5211674 -0.192687E+00  0.182E+00    0.33       1.0  T
   4   -115.7258049 -0.204638E+00  0.101E+00    1.18       1.0  T
   5   -115.7493206 -0.235157E-01  0.691E-01    1.12       1.0  T
   6   -115.7779283 -0.286077E-01  0.523E-01    1.07       1.0  T
   7   -115.7887890 -0.108607E-01  0.422E-01    0.77       1.0  T
   8   -115.7980707 -0.928170E-02  0.300E-01    0.31       1.0  T
   9   -115.4549720  0.343099E+00  0.138E+00    0.07       1.0  T
  10   -115.5341578 -0.791859E-01  0.118E+00    0.06       1.0  T
  11   -115.8054473 -0.271289E+00  0.200E-01    0.18       1.0  T
  12   -115.8123566 -0.690936E-02  0.554E-02    0.10       1.0  T
  13   -115.8101031  0.225354E-02  0.119E-01    0.14       1.0  T
  14   -115.8092279  0.875155E-03  0.135E-01    0.15       1.0  T
  15   -115.8105872 -0.135933E-02  0.105E-01    0.14       1.0  T
  16   -115.8114901 -0.902899E-03  0.788E-02    0.13       1.0  T
  17   -115.8120349 -0.544706E-03  0.583E-02    0.12       1.0  T
  18   -115.8126220 -0.587180E-03  0.199E-02    0.11       1.0  T
  19   -115.8126972 -0.751567E-04  0.562E-03    0.11       2.1  T
  20   -115.8126973 -0.160616E-06  0.476E-03    0.11       2.5  T
  21   -115.8127016 -0.423639E-05  0.105E-03    0.11      11.4  T
  22   -115.8127017 -0.981481E-07  0.617E-04    0.11      19.4  T
  23   -115.8127017 -0.384705E-07  0.404E-04    0.11      29.6  T

   *** convergence criteria satisfied after 23 iterations ***

         #    Occupation            Energy/Eh            Energy/eV
      -------------------------------------------------------------
         1        2.0000           -0.8584796             -23.3604
       ...           ...                  ...                  ...
        99        2.0000           -0.5096702             -13.8688
       100        2.0000           -0.5086915             -13.8422
       101        2.0000           -0.5038325             -13.7100
       102        2.0000           -0.4916521             -13.3785
       103        2.0000           -0.4882160             -13.2850
       104        1.9613           -0.4735589             -12.8862
       105        1.8047           -0.4719427             -12.8422 (HOMO)
       106        0.2340           -0.4679100             -12.7325 (LUMO)
       107                         -0.3888533             -10.5812
       108                         -0.3739724             -10.1763
       109                         -0.3650352              -9.9331
       110                         -0.3564377              -9.6992
       ...                                ...                  ...
       205                          0.6164749              16.7751
      -------------------------------------------------------------
                  HL-Gap            0.0040327 Eh            0.1097 eV
             Fermi-level           -0.4698301 Eh          -12.7847 eV

 SCC (total)                   0 d,  0 h,  0 min,  1.627 sec
 SCC setup                      ...        0 min,  0.000 sec (  0.011%)
 Dispersion                     ...        0 min,  0.001 sec (  0.034%)
 classical contributions        ...        0 min,  0.000 sec (  0.007%)
 integral evaluation            ...        0 min,  0.003 sec (  0.180%)
 iterations                     ...        0 min,  1.603 sec ( 98.512%)
 molecular gradient             ...        0 min,  0.020 sec (  1.216%)
 printout                       ...        0 min,  0.001 sec (  0.039%)

         :::::::::::::::::::::::::::::::::::::::::::::::::::::
         ::                     SUMMARY                     ::
         :::::::::::::::::::::::::::::::::::::::::::::::::::::
         :: total energy            -113.765706790557 Eh    ::
         :: gradient norm              0.063113462339 Eh/a0 ::
         :: HOMO-LUMO gap              0.109735227193 eV    ::
         ::.................................................::
         :: SCC energy              -115.812701721506 Eh    ::
         :: -> isotropic ES            0.091040352196 Eh    ::
         :: -> anisotropic ES         -0.010063485254 Eh    ::
         :: -> anisotropic XC          0.073521505294 Eh    ::
         :: -> dispersion             -0.112408940639 Eh    ::
         :: repulsion energy           2.043788515135 Eh    ::
         :: add. restraining           0.000000000000 Eh    ::
         :: total charge               1.000000447105 e     ::
         :::::::::::::::::::::::::::::::::::::::::::::::::::::

           -------------------------------------------------
          |                Property Printout                |
           -------------------------------------------------

    * Orbital Energies and Occupations

         #    Occupation            Energy/Eh            Energy/eV
      -------------------------------------------------------------
         1        2.0000           -0.8584796             -23.3604
       ...           ...                  ...                  ...
        93        2.0000           -0.5240706             -14.2607
        94        2.0000           -0.5231873             -14.2367
        95        2.0000           -0.5194960             -14.1362
        96        2.0000           -0.5187626             -14.1162
        97        2.0000           -0.5169617             -14.0672
        98        2.0000           -0.5106459             -13.8954
        99        2.0000           -0.5096702             -13.8688
       100        2.0000           -0.5086915             -13.8422
       101        2.0000           -0.5038325             -13.7100
       102        2.0000           -0.4916521             -13.3785
       103        2.0000           -0.4882160             -13.2850
       104        1.9613           -0.4735589             -12.8862
       105        1.8047           -0.4719427             -12.8422 (HOMO)
       106        0.2340           -0.4679100             -12.7325 (LUMO)
       107                         -0.3888533             -10.5812
       108                         -0.3739724             -10.1763
       109                         -0.3650352              -9.9331
       110                         -0.3564377              -9.6992
       111                         -0.3482383              -9.4760
       112                         -0.3403179              -9.2605
       113                         -0.3364015              -9.1540
       114                         -0.3357016              -9.1349
       115                         -0.3355466              -9.1307
       116                         -0.3099660              -8.4346
       ...                                ...                  ...
       205                          0.6164749              16.7751
      -------------------------------------------------------------
                  HL-Gap            0.0040327 Eh            0.1097 eV
             Fermi-level           -0.4698301 Eh          -12.7847 eV

     #   Z          covCN         q      C6AA      α(0)
     1   6 C        2.977     0.007    27.851     8.657
     2   6 C        2.980     0.014    27.702     8.634
     3   6 C        2.978     0.014    27.706     8.634
     4   6 C        2.990     0.019    27.565     8.612
     5   6 C        2.988     0.022    27.518     8.605
     6   6 C        2.989     0.020    27.550     8.610
     7   6 C        2.984     0.016    27.656     8.626
     8   6 C        2.983     0.012    27.730     8.638
     9   6 C        2.989     0.023    27.477     8.599
    10   6 C        2.989     0.013    27.718     8.636
    11   6 C        2.919    -0.025    28.618     8.773
    12   6 C        2.918    -0.025    28.639     8.776
    13   6 C        2.917    -0.027    28.679     8.782
    14   6 C        2.918    -0.030    28.757     8.794
    15   6 C        2.917    -0.027    28.665     8.780
    16   6 C        2.918    -0.033    28.826     8.804
    17   6 C        2.914    -0.028    28.708     8.786
    18   6 C        2.915    -0.030    28.758     8.794
    19   6 C        2.930    -0.028    28.696     8.785
    20   6 C        2.920    -0.028    28.709     8.787
    21   6 C        2.921    -0.027    28.682     8.783
    22   6 C        2.922    -0.036    28.904     8.816
    23   6 C        2.987    -0.002    28.069     8.691
    24   6 C        2.918    -0.028    28.693     8.784
    25   6 C        2.918    -0.026    28.659     8.779
    26   6 C        2.916    -0.028    28.706     8.786
    27   1 H        0.926     0.058     2.220     2.330
    28   1 H        0.926     0.057     2.231     2.336
    29   1 H        0.926     0.057     2.229     2.335
    30   1 H        0.926     0.053     2.285     2.364
    31   1 H        0.926     0.058     2.227     2.334
    32   1 H        0.926     0.046     2.366     2.406
    33   1 H        0.926     0.056     2.243     2.342
    34   1 H        0.926     0.038     2.482     2.464
    35   1 H        0.926     0.063     2.168     2.302
    36   1 H        0.926     0.044     2.396     2.421
    37   1 H        0.926     0.060     2.199     2.319
    38   1 H        0.925     0.032     2.559     2.502
    39   1 H        0.926     0.046     2.374     2.410
    40   1 H        0.926     0.040     2.446     2.446
    41   6 C        2.877     0.169    24.354     8.090
    42   7 N        1.928    -0.188    25.881     7.543
    43   7 N        2.849     0.071    19.996     6.641
    44   6 C        2.701     0.303    21.850     7.651
    45   7 N        2.846     0.073    19.968     6.637
    46   7 N        1.932    -0.193    25.993     7.560
    47   8 O        0.858    -0.400    21.689     6.244
    48   6 C        2.930     0.067    26.508     8.444
    49   6 C        2.919    -0.028    28.696     8.784
    50   6 C        2.921    -0.018    28.452     8.747
    51   6 C        2.918    -0.011    28.298     8.723
    52   6 C        2.920    -0.018    28.458     8.748
    53   6 C        2.925    -0.027    28.669     8.781
    54   6 C        2.931     0.067    26.509     8.444
    55   6 C        2.924    -0.026    28.643     8.777
    56   6 C        2.920    -0.017    28.434     8.744
    57   6 C        2.919    -0.009    28.253     8.716
    58   6 C        2.922    -0.016    28.411     8.741
    59   6 C        2.919    -0.024    28.599     8.770
    60   1 H        0.926     0.071     2.073     2.251
    61   1 H        0.926     0.068     2.111     2.272
    62   1 H        0.926     0.071     2.077     2.254
    63   1 H        0.926     0.071     2.071     2.250
    64   1 H        0.926     0.083     1.951     2.184
    65   1 H        0.926     0.087     1.906     2.159
    66   1 H        0.926     0.070     2.087     2.259
    67   1 H        0.926     0.069     2.101     2.267
    68   1 H        0.926     0.064     2.154     2.295
    69   1 H        0.926     0.071     2.078     2.254
    70   1 H        0.926     0.063     2.169     2.303

 Mol. C6AA /au·bohr⁶  :      74127.982682
 Mol. C8AA /au·bohr⁸  :    1895210.517894
 Mol. α(0) /au        :        439.590992


Wiberg/Mayer (AO) data.
largest (>0.10) Wiberg bond orders for each atom

 ---------------------------------------------------------------------------
     #   Z sym  total        # sym  WBO       # sym  WBO       # sym  WBO
 ---------------------------------------------------------------------------
     1   6 C    3.975 --     4 C    1.290     2 C    1.217     3 C    1.216
     2   6 C    3.927 --     5 C    1.303     1 C    1.217     7 C    1.177
     3   6 C    3.924 --     6 C    1.298     1 C    1.216     8 C    1.173
     4   6 C    3.969 --     1 C    1.290    11 C    1.251    12 C    1.244
     5   6 C    3.962 --     2 C    1.303    13 C    1.256    15 C    1.225
     6   6 C    3.958 --     3 C    1.298    14 C    1.253    16 C    1.229
     7   6 C    3.983 --    19 C    1.332     9 C    1.263     2 C    1.177
     8   6 C    3.982 --    20 C    1.315    10 C    1.273     3 C    1.173
     9   6 C    3.975 --    21 C    1.299     7 C    1.263    17 C    1.224
    10   6 C    3.983 --    22 C    1.308     8 C    1.273    18 C    1.215
    11   6 C    3.935 --    13 C    1.569     4 C    1.251    27 H    0.964
    12   6 C    3.935 --    14 C    1.578     4 C    1.244    28 H    0.964
    13   6 C    3.950 --    11 C    1.569     5 C    1.256    29 H    0.965
    14   6 C    3.960 --    12 C    1.578     6 C    1.253    30 H    0.965
    15   6 C    3.969 --    17 C    1.614     5 C    1.225    31 H    0.965
    16   6 C    3.976 --    18 C    1.611     6 C    1.229    32 H    0.965
    17   6 C    3.956 --    15 C    1.614     9 C    1.224    33 H    0.965
    18   6 C    3.947 --    16 C    1.611    10 C    1.215    34 H    0.965
    19   6 C    3.967 --    23 C    1.432     7 C    1.332    35 H    0.952
    20   6 C    3.971 --    24 C    1.512     8 C    1.315    36 H    0.962
                            22 C    0.104
    21   6 C    3.970 --    25 C    1.533     9 C    1.299    37 H    0.965
    22   6 C    3.967 --    26 C    1.515    10 C    1.308    38 H    0.968
                            20 C    0.104
    23   6 C    3.972 --    19 C    1.432    25 C    1.298    41 C    1.054
    24   6 C    3.976 --    20 C    1.512    26 C    1.352    39 H    0.969
    25   6 C    3.968 --    21 C    1.533    23 C    1.298    70 H    0.965
    26   6 C    3.976 --    22 C    1.515    24 C    1.352    40 H    0.970
    27   1 H    0.995 --    11 C    0.964
    28   1 H    0.995 --    12 C    0.964
    29   1 H    0.995 --    13 C    0.965
    30   1 H    0.996 --    14 C    0.965
    31   1 H    0.996 --    15 C    0.965
    32   1 H    0.997 --    16 C    0.965
    33   1 H    0.995 --    17 C    0.965
    34   1 H    0.997 --    18 C    0.965
    35   1 H    0.995 --    19 C    0.952
    36   1 H    0.997 --    20 C    0.962
    37   1 H    0.995 --    21 C    0.965
    38   1 H    0.998 --    22 C    0.968
    39   1 H    0.997 --    24 C    0.969
    40   1 H    0.997 --    26 C    0.970
    41   6 C    3.956 --    42 N    1.371    46 N    1.369    23 C    1.054
    42   7 N    2.880 --    41 C    1.371    43 N    1.196
    43   7 N    3.613 --    42 N    1.196    44 C    1.082    54 C    1.042
                            47 O    0.129
    44   6 C    3.959 --    47 O    1.665    43 N    1.082    45 N    1.077
    45   7 N    3.623 --    46 N    1.201    44 C    1.077    48 C    1.048
                            47 O    0.126
    46   7 N    2.897 --    41 C    1.369    45 N    1.201
    47   8 O    2.035 --    44 C    1.665    43 N    0.129    45 N    0.126
    48   6 C    3.935 --    49 C    1.350    53 C    1.339    45 N    1.048
    49   6 C    3.959 --    50 C    1.457    48 C    1.350    65 H    0.959
    50   6 C    3.984 --    49 C    1.457    51 C    1.425    66 H    0.966
                            53 C    0.102
    51   6 C    3.942 --    50 C    1.425    52 C    1.412    67 H    0.968
    52   6 C    3.984 --    53 C    1.472    51 C    1.412    68 H    0.967
    53   6 C    3.964 --    52 C    1.472    48 C    1.339    69 H    0.961
                            50 C    0.102
    54   6 C    3.932 --    59 C    1.352    55 C    1.341    43 N    1.042
    55   6 C    3.963 --    56 C    1.472    54 C    1.341    60 H    0.961
                            58 C    0.102
    56   6 C    3.983 --    55 C    1.472    57 C    1.411    61 H    0.966
    57   6 C    3.939 --    58 C    1.424    56 C    1.411    62 H    0.967
    58   6 C    3.983 --    59 C    1.457    57 C    1.424    63 H    0.966
                            55 C    0.102
    59   6 C    3.961 --    58 C    1.457    54 C    1.352    64 H    0.961
    60   1 H    0.994 --    55 C    0.961
    61   1 H    0.994 --    56 C    0.966
    62   1 H    0.995 --    57 C    0.967
    63   1 H    0.993 --    58 C    0.966
    64   1 H    0.993 --    59 C    0.961
    65   1 H    0.992 --    49 C    0.959
    66   1 H    0.994 --    50 C    0.966
    67   1 H    0.995 --    51 C    0.968
    68   1 H    0.995 --    52 C    0.967
    69   1 H    0.995 --    53 C    0.961
    70   1 H    0.995 --    25 C    0.965
 ---------------------------------------------------------------------------

Topologies differ in bond orders
Writing corrected topology to xtbtopo.mol

molecular dipole:
                 x           y           z       tot (Debye)
 q only:        0.077       0.323      -0.892
   full:        0.097       0.198      -0.823       2.167
molecular quadrupole (traceless):
                xx          xy          yy          xz          yz          zz
 q only:       48.093      -5.330      -0.948       6.698     -20.164     -47.145
  q+dip:       53.417      -4.571       2.471       9.654     -26.017     -55.888
   full:       46.173      -6.545      -1.226       6.143     -18.186     -44.947


           -------------------------------------------------
          | TOTAL ENERGY             -113.765706790557 Eh   |
          | GRADIENT NORM               0.063113462339 Eh/α |
          | HOMO-LUMO GAP               0.109735227193 eV   |
           -------------------------------------------------
########################################################################
[WARNING] Runtime exception occurred
-2- restart_readRestart: Multiplicity missmatch in restart file.
-1- restart_readRestart: Number of electron missmatch in restart file.
########################################################################

------------------------------------------------------------------------
 * finished run on 2024/11/14 at 15:20:32.299     
------------------------------------------------------------------------
 total:
 * wall-time:     0 d,  0 h,  0 min,  1.640 sec
 *  cpu-time:     0 d,  0 h,  0 min,  6.686 sec
 * ratio c/w:     4.076 speedup
 SCF:
 * wall-time:     0 d,  0 h,  0 min,  1.627 sec
 *  cpu-time:     0 d,  0 h,  0 min,  6.669 sec
Note: The following floating-point exceptions are signalling: IEEE_UNDERFLOW_FLAG
normal termination of xtb
 * ratio c/w:     4.098 speedup

