      -----------------------------------------------------------      
     |                   =====================                   |     
     |                           x T B                           |     
     |                   =====================                   |     
     |                         S. Grimme                         |     
     |          Mulliken Center for Theoretical Chemistry        |     
     |                    University of Bonn                     |     
      -----------------------------------------------------------      

   * xtb version 6.6.1 (8d0f1dd) compiled by 'runner@Mac-1690902418499.local' on 2023-08-01

   xtb is free software: you can redistribute it and/or modify it under
   the terms of the GNU Lesser General Public License as published by
   the Free Software Foundation, either version 3 of the License, or
   (at your option) any later version.
   
   xtb is distributed in the hope that it will be useful,
   but WITHOUT ANY WARRANTY; without even the implied warranty of
   MERCHANTABILITY or FITNESS FOR A PARTICULAR PURPOSE.  See the
   GNU Lesser General Public License for more details.
   
   Cite this work as:
   * C. Bannwarth, E. Caldeweyher, S. Ehlert, A. Hansen, P. Pracht,
     J. Seibert, S. Spicher, S. Grimme, WIREs Comput. Mol. Sci., 2020, 11,
     e01493. DOI: 10.1002/wcms.1493
   
   for GFN2-xTB:
   * C. Bannwarth, S. Ehlert and S. Grimme., J. Chem. Theory Comput., 2019,
     15, 1652-1671. DOI: 10.1021/acs.jctc.8b01176
   for GFN1-xTB:
   * S. Grimme, C. Bannwarth, P. Shushkov, J. Chem. Theory Comput., 2017,
     13, 1989-2009. DOI: 10.1021/acs.jctc.7b00118
   for GFN0-xTB:
   * P. Pracht, E. Caldeweyher, S. Ehlert, S. Grimme, ChemRxiv, 2019, preprint.
     DOI: 10.26434/chemrxiv.8326202.v1
   for GFN-FF:
   * S. Spicher and S. Grimme, Angew. Chem. Int. Ed., 2020, 59, 15665-15673.
     DOI: 10.1002/anie.202004239
   
   for ALPB and GBSA implicit solvation:
   * S. Ehlert, M. Stahn, S. Spicher, S. Grimme, J. Chem. Theory Comput.,
     2021, 17, 4250-4261. DOI: 10.1021/acs.jctc.1c00471
   
   for DFT-D4:
   * E. Caldeweyher, C. Bannwarth and S. Grimme, J. Chem. Phys., 2017,
     147, 034112. DOI: 10.1063/1.4993215
   * E. Caldeweyher, S. Ehlert, A. Hansen, H. Neugebauer, S. Spicher,
     C. Bannwarth and S. Grimme, J. Chem. Phys., 2019, 150, 154122.
     DOI: 10.1063/1.5090222
   * E. Caldeweyher, J.-M. Mewes, S. Ehlert and S. Grimme, Phys. Chem. Chem. Phys.
     2020, 22, 8499-8512. DOI: 10.1039/D0CP00502A
   
   for sTDA-xTB:
   * S. Grimme and C. Bannwarth, J. Chem. Phys., 2016, 145, 054103.
     DOI: 10.1063/1.4959605
   
   in the mass-spec context:
   * V. Asgeirsson, C. Bauer and S. Grimme, Chem. Sci., 2017, 8, 4879.
     DOI: 10.1039/c7sc00601b
   * J. Koopman and S. Grimme, ACS Omega 2019, 4, 12, 15120-15133.
     DOI: 10.1021/acsomega.9b02011
   
   for metadynamics refer to:
   * S. Grimme, J. Chem. Theory Comput., 2019, 155, 2847-2862
     DOI: 10.1021/acs.jctc.9b00143
   
   for SPH calculations refer to:
   * S. Spicher and S. Grimme, J. Chem. Theory Comput., 2021, 17, 1701-1714
     DOI: 10.1021/acs.jctc.0c01306
   
   with help from (in alphabetical order)
   P. Atkinson, C. Bannwarth, F. Bohle, G. Brandenburg, E. Caldeweyher
   M. Checinski, S. Dohm, S. Ehlert, S. Ehrlich, I. Gerasimov, C. Hölzer
   A. Katbashev, J. Koopman, C. Lavigne, S. Lehtola, F. März, M. Müller,
   F. Musil, H. Neugebauer, J. Pisarek, C. Plett, P. Pracht, F. Pultar,
   J. Seibert, P. Shushkov, S. Spicher, M. Stahn, M. Steiner, T. Strunk,
   J. Stückrath, T. Rose, and J. Unsleber
   
 * started run on 2024/11/14 at 15:20:29.406     

           -------------------------------------------------
          |                Calculation Setup                |
           -------------------------------------------------

          program call               : xtb opt_cation_Verdazyl2.mol --gfn2 --sp --chrg 1 --uhf 0
          coordinate file            : opt_cation_Verdazyl2.mol
          omp threads                :                     8

   ID    Z sym.   atoms
    1    6 C      1-26, 41, 44, 48-59
    2    1 H      27-40, 60-70
    3    7 N      42, 43, 45, 46
    4    8 O      47
########################################################################
[WARNING] Please study the warnings concerning your input carefully
-1- prog_main: Charge in sdf/mol input was overwritten
########################################################################

           -------------------------------------------------
          |                 G F N 2 - x T B                 |
           -------------------------------------------------

        Reference                      10.1021/acs.jctc.8b01176
      * Hamiltonian:
        H0-scaling (s, p, d)           1.850000    2.230000    2.230000
        zeta-weighting                 0.500000
      * Dispersion:
        s8                             2.700000
        a1                             0.520000
        a2                             5.000000
        s9                             5.000000
      * Repulsion:
        kExp                           1.500000    1.000000
        rExp                           1.000000
      * Coulomb:
        alpha                          2.000000
        third order                    shell-resolved
        anisotropic                    true
        a3                             3.000000
        a5                             4.000000
        cn-shift                       1.200000
        cn-exp                         4.000000
        max-rad                        5.000000

q/qsh data taken from xtbrestart
CAMM data taken from xtbrestart

          ...................................................
          :                      SETUP                      :
          :.................................................:
          :  # basis functions                 205          :
          :  # atomic orbitals                 205          :
          :  # shells                          115          :
          :  # electrons                       210          :
          :  max. iterations                   250          :
          :  Hamiltonian                  GFN2-xTB          :
          :  restarted?                       true          :
          :  GBSA solvation                  false          :
          :  PC potential                    false          :
          :  electronic temp.          300.0000000     K    :
          :  accuracy                    1.0000000          :
          :  -> integral cutoff          0.2500000E+02      :
          :  -> integral neglect         0.1000000E-07      :
          :  -> SCF convergence          0.1000000E-05 Eh   :
          :  -> wf. convergence          0.1000000E-03 e    :
          :  Broyden damping             0.4000000          :
          ...................................................

 iter      E             dE          RMSdq      gap      omega  full diag
   1   -115.6523088 -0.115652E+03  0.310E+00    0.99       0.0  T
   2   -115.2991910  0.353118E+00  0.241E+00    0.09       1.0  T
   3   -115.5814107 -0.282220E+00  0.177E+00    0.32       1.0  T
   4   -115.7506624 -0.169252E+00  0.922E-01    1.26       1.0  T
   5   -115.7812540 -0.305916E-01  0.508E-01    1.13       1.0  T
   6   -115.7969130 -0.156591E-01  0.358E-01    0.35       1.0  T
   7   -115.4503968  0.346516E+00  0.136E+00    0.13       1.0  T
   8   -115.7951480 -0.344751E+00  0.356E-01    0.47       1.0  T
   9   -115.7953421 -0.194095E-03  0.325E-01    0.44       1.0  T
  10   -115.7965890 -0.124694E-02  0.297E-01    0.35       1.0  T
  11   -115.7991954 -0.260635E-02  0.263E-01    0.25       1.0  T
  12   -115.8028468 -0.365146E-02  0.216E-01    0.19       1.0  T
  13   -115.8077422 -0.489532E-02  0.138E-01    0.14       1.0  T
  14   -115.8085551 -0.812962E-03  0.121E-01    0.13       1.0  T
  15   -115.8112853 -0.273014E-02  0.132E-02    0.09       1.0  T
  16   -115.8112928 -0.749651E-05  0.103E-02    0.09       1.2  T
  17   -115.8112873  0.543542E-05  0.116E-02    0.09       1.0  T
  18   -115.8112864  0.874471E-06  0.117E-02    0.10       1.0  T
  19   -115.8113121 -0.256068E-04  0.456E-04    0.09      26.2  T
  20   -115.8113116  0.454817E-06  0.161E-03    0.09       7.4  T
  21   -115.8113118 -0.228992E-06  0.118E-03    0.09      10.1  T
  22   -115.8113121 -0.233274E-06  0.370E-04    0.09      32.3  T
  23   -115.8113121 -0.255893E-07  0.240E-05    0.09     498.0  T

   *** convergence criteria satisfied after 23 iterations ***

         #    Occupation            Energy/Eh            Energy/eV
      -------------------------------------------------------------
         1        2.0000           -0.8625601             -23.4715
       ...           ...                  ...                  ...
        99        2.0000           -0.5060656             -13.7707
       100        2.0000           -0.5041731             -13.7192
       101        2.0000           -0.5020117             -13.6604
       102        2.0000           -0.4869512             -13.2506
       103        2.0000           -0.4851103             -13.2005
       104        1.9920           -0.4689899             -12.7619
       105        1.7191           -0.4654704             -12.6661 (HOMO)
       106        0.2889           -0.4620596             -12.5733 (LUMO)
       107                         -0.3902868             -10.6202
       108                         -0.3695185             -10.0551
       109                         -0.3640325              -9.9058
       110                         -0.3541387              -9.6366
       ...                                ...                  ...
       205                          0.6216931              16.9171
      -------------------------------------------------------------
                  HL-Gap            0.0034109 Eh            0.0928 eV
             Fermi-level           -0.4637494 Eh          -12.6193 eV

 SCC (total)                   0 d,  0 h,  0 min,  0.767 sec
 SCC setup                      ...        0 min,  0.000 sec (  0.022%)
 Dispersion                     ...        0 min,  0.001 sec (  0.069%)
 classical contributions        ...        0 min,  0.000 sec (  0.016%)
 integral evaluation            ...        0 min,  0.003 sec (  0.370%)
 iterations                     ...        0 min,  0.747 sec ( 97.411%)
 molecular gradient             ...        0 min,  0.015 sec (  2.018%)
 printout                       ...        0 min,  0.001 sec (  0.092%)

         :::::::::::::::::::::::::::::::::::::::::::::::::::::
         ::                     SUMMARY                     ::
         :::::::::::::::::::::::::::::::::::::::::::::::::::::
         :: total energy            -113.765838557009 Eh    ::
         :: gradient norm              0.000477234199 Eh/a0 ::
         :: HOMO-LUMO gap              0.092814290984 eV    ::
         ::.................................................::
         :: SCC energy              -115.811312086301 Eh    ::
         :: -> isotropic ES            0.087728482218 Eh    ::
         :: -> anisotropic ES         -0.007801130169 Eh    ::
         :: -> anisotropic XC          0.073752132441 Eh    ::
         :: -> dispersion             -0.105192311154 Eh    ::
         :: repulsion energy           2.043267196689 Eh    ::
         :: add. restraining           0.000000000000 Eh    ::
         :: total charge               0.999999841688 e     ::
         :::::::::::::::::::::::::::::::::::::::::::::::::::::

           -------------------------------------------------
          |                Property Printout                |
           -------------------------------------------------

    * Orbital Energies and Occupations

         #    Occupation            Energy/Eh            Energy/eV
      -------------------------------------------------------------
         1        2.0000           -0.8625601             -23.4715
       ...           ...                  ...                  ...
        93        2.0000           -0.5215227             -14.1914
        94        2.0000           -0.5199236             -14.1478
        95        2.0000           -0.5191340             -14.1264
        96        2.0000           -0.5162554             -14.0480
        97        2.0000           -0.5128854             -13.9563
        98        2.0000           -0.5065807             -13.7848
        99        2.0000           -0.5060656             -13.7707
       100        2.0000           -0.5041731             -13.7192
       101        2.0000           -0.5020117             -13.6604
       102        2.0000           -0.4869512             -13.2506
       103        2.0000           -0.4851103             -13.2005
       104        1.9920           -0.4689899             -12.7619
       105        1.7191           -0.4654704             -12.6661 (HOMO)
       106        0.2889           -0.4620596             -12.5733 (LUMO)
       107                         -0.3902868             -10.6202
       108                         -0.3695185             -10.0551
       109                         -0.3640325              -9.9058
       110                         -0.3541387              -9.6366
       111                         -0.3437166              -9.3530
       112                         -0.3384857              -9.2107
       113                         -0.3366566              -9.1609
       114                         -0.3345716              -9.1042
       115                         -0.3331352              -9.0651
       116                         -0.3078996              -8.3784
       ...                                ...                  ...
       205                          0.6216931              16.9171
      -------------------------------------------------------------
                  HL-Gap            0.0034109 Eh            0.0928 eV
             Fermi-level           -0.4637494 Eh          -12.6193 eV

     #   Z          covCN         q      C6AA      α(0)
     1   6 C        2.978     0.007    27.866     8.659
     2   6 C        2.979     0.013    27.715     8.636
     3   6 C        2.978     0.012    27.744     8.640
     4   6 C        2.989     0.018    27.591     8.616
     5   6 C        2.987     0.020    27.562     8.612
     6   6 C        2.987     0.018    27.598     8.617
     7   6 C        2.980     0.016    27.646     8.625
     8   6 C        2.981     0.011    27.772     8.644
     9   6 C        2.989     0.023    27.490     8.601
    10   6 C        2.988     0.012    27.734     8.639
    11   6 C        2.918    -0.026    28.652     8.778
    12   6 C        2.918    -0.027    28.675     8.781
    13   6 C        2.917    -0.028    28.710     8.787
    14   6 C        2.917    -0.032    28.789     8.799
    15   6 C        2.917    -0.027    28.675     8.781
    16   6 C        2.916    -0.035    28.861     8.810
    17   6 C        2.915    -0.031    28.766     8.795
    18   6 C        2.915    -0.032    28.788     8.798
    19   6 C        2.922    -0.027    28.673     8.781
    20   6 C        2.919    -0.029    28.713     8.787
    21   6 C        2.921    -0.028    28.710     8.787
    22   6 C        2.922    -0.032    28.803     8.801
    23   6 C        2.982    -0.003    28.092     8.694
    24   6 C        2.917    -0.027    28.664     8.780
    25   6 C        2.920    -0.029    28.719     8.788
    26   6 C        2.916    -0.025    28.639     8.776
    27   1 H        0.926     0.056     2.242     2.342
    28   1 H        0.926     0.055     2.262     2.352
    29   1 H        0.926     0.056     2.251     2.346
    30   1 H        0.926     0.051     2.312     2.378
    31   1 H        0.926     0.056     2.243     2.342
    32   1 H        0.926     0.045     2.387     2.416
    33   1 H        0.926     0.054     2.269     2.356
    34   1 H        0.926     0.045     2.387     2.416
    35   1 H        0.926     0.057     2.229     2.334
    36   1 H        0.926     0.043     2.408     2.427
    37   1 H        0.926     0.058     2.223     2.331
    38   1 H        0.926     0.043     2.409     2.427
    39   1 H        0.926     0.045     2.383     2.414
    40   1 H        0.926     0.046     2.375     2.410
    41   6 C        2.881     0.161    24.521     8.118
    42   7 N        1.936    -0.179    25.668     7.512
    43   7 N        2.849     0.084    19.788     6.607
    44   6 C        2.705     0.297    21.955     7.669
    45   7 N        2.850     0.081    19.831     6.614
    46   7 N        1.932    -0.183    25.776     7.528
    47   8 O        0.858    -0.381    21.312     6.190
    48   6 C        2.934     0.061    26.623     8.462
    49   6 C        2.917    -0.025    28.627     8.774
    50   6 C        2.921    -0.017    28.426     8.743
    51   6 C        2.919    -0.011    28.302     8.724
    52   6 C        2.919    -0.019    28.476     8.751
    53   6 C        2.922    -0.028    28.701     8.786
    54   6 C        2.935     0.062    26.620     8.462
    55   6 C        2.922    -0.025    28.616     8.772
    56   6 C        2.919    -0.017    28.428     8.743
    57   6 C        2.919    -0.010    28.273     8.720
    58   6 C        2.920    -0.016    28.413     8.741
    59   6 C        2.917    -0.024    28.600     8.770
    60   1 H        0.926     0.071     2.079     2.255
    61   1 H        0.926     0.069     2.100     2.266
    62   1 H        0.926     0.071     2.075     2.252
    63   1 H        0.926     0.071     2.075     2.252
    64   1 H        0.926     0.075     2.030     2.228
    65   1 H        0.926     0.078     1.997     2.210
    66   1 H        0.926     0.071     2.077     2.254
    67   1 H        0.926     0.069     2.094     2.263
    68   1 H        0.926     0.063     2.162     2.299
    69   1 H        0.926     0.068     2.102     2.267
    70   1 H        0.926     0.060     2.197     2.318

 Mol. C6AA /au·bohr⁶  :      74141.523877
 Mol. C8AA /au·bohr⁸  :    1895502.533822
 Mol. α(0) /au        :        439.650309


Wiberg/Mayer (AO) data.
largest (>0.10) Wiberg bond orders for each atom

 ---------------------------------------------------------------------------
     #   Z sym  total        # sym  WBO       # sym  WBO       # sym  WBO
 ---------------------------------------------------------------------------
     1   6 C    3.980 --     4 C    1.285     3 C    1.224     2 C    1.218
     2   6 C    3.930 --     5 C    1.300     1 C    1.218     7 C    1.172
     3   6 C    3.921 --     6 C    1.288     1 C    1.224     8 C    1.178
     4   6 C    3.972 --     1 C    1.285    11 C    1.258    12 C    1.243
     5   6 C    3.968 --     2 C    1.300    13 C    1.263    15 C    1.223
     6   6 C    3.953 --     3 C    1.288    14 C    1.256    16 C    1.235
     7   6 C    3.985 --    19 C    1.342     9 C    1.261     2 C    1.172
     8   6 C    3.985 --    20 C    1.319    10 C    1.272     3 C    1.178
     9   6 C    3.975 --    21 C    1.299     7 C    1.261    17 C    1.224
    10   6 C    3.983 --    22 C    1.312     8 C    1.272    18 C    1.216
    11   6 C    3.938 --    13 C    1.562     4 C    1.258    27 H    0.964
    12   6 C    3.938 --    14 C    1.579     4 C    1.243    28 H    0.964
    13   6 C    3.952 --    11 C    1.562     5 C    1.263    29 H    0.965
    14   6 C    3.967 --    12 C    1.579     6 C    1.256    30 H    0.966
    15   6 C    3.972 --    17 C    1.617     5 C    1.223    31 H    0.965
    16   6 C    3.978 --    18 C    1.604     6 C    1.235    32 H    0.965
    17   6 C    3.964 --    15 C    1.617     9 C    1.224    33 H    0.965
    18   6 C    3.942 --    16 C    1.604    10 C    1.216    34 H    0.966
    19   6 C    3.970 --    23 C    1.429     7 C    1.342    35 H    0.958
    20   6 C    3.955 --    24 C    1.501     8 C    1.319    36 H    0.960
                            22 C    0.101
    21   6 C    3.975 --    25 C    1.542     9 C    1.299    37 H    0.965
    22   6 C    3.953 --    26 C    1.503    10 C    1.312    38 H    0.967
                            20 C    0.101
    23   6 C    3.973 --    19 C    1.429    25 C    1.288    41 C    1.072
    24   6 C    3.974 --    20 C    1.501    26 C    1.362    39 H    0.969
    25   6 C    3.967 --    21 C    1.542    23 C    1.288    70 H    0.964
    26   6 C    3.968 --    22 C    1.503    24 C    1.362    40 H    0.970
    27   1 H    0.995 --    11 C    0.964
    28   1 H    0.995 --    12 C    0.964
    29   1 H    0.996 --    13 C    0.965
    30   1 H    0.996 --    14 C    0.966
    31   1 H    0.996 --    15 C    0.965
    32   1 H    0.997 --    16 C    0.965
    33   1 H    0.995 --    17 C    0.965
    34   1 H    0.996 --    18 C    0.966
    35   1 H    0.996 --    19 C    0.958
    36   1 H    0.997 --    20 C    0.960
    37   1 H    0.995 --    21 C    0.965
    38   1 H    0.997 --    22 C    0.967
    39   1 H    0.997 --    24 C    0.969
    40   1 H    0.997 --    26 C    0.970
    41   6 C    3.954 --    46 N    1.354    42 N    1.346    23 C    1.072
    42   7 N    2.904 --    41 C    1.346    43 N    1.245
    43   7 N    3.627 --    42 N    1.245    44 C    1.056    54 C    1.034
                            47 O    0.126
    44   6 C    3.958 --    47 O    1.696    43 N    1.056    45 N    1.056
    45   7 N    3.624 --    46 N    1.240    44 C    1.056    48 C    1.036
                            47 O    0.127
    46   7 N    2.907 --    41 C    1.354    45 N    1.240
    47   8 O    2.059 --    44 C    1.696    45 N    0.127    43 N    0.126
    48   6 C    3.936 --    49 C    1.354    53 C    1.345    45 N    1.036
    49   6 C    3.965 --    50 C    1.459    48 C    1.354    65 H    0.962
                            52 C    0.100
    50   6 C    3.984 --    49 C    1.459    51 C    1.424    66 H    0.966
                            53 C    0.102
    51   6 C    3.945 --    50 C    1.424    52 C    1.415    67 H    0.968
    52   6 C    3.985 --    53 C    1.470    51 C    1.415    68 H    0.965
                            49 C    0.100
    53   6 C    3.964 --    52 C    1.470    48 C    1.345    69 H    0.955
                            50 C    0.102
    54   6 C    3.935 --    59 C    1.354    55 C    1.344    43 N    1.034
    55   6 C    3.965 --    56 C    1.471    54 C    1.344    60 H    0.961
                            58 C    0.102
    56   6 C    3.984 --    55 C    1.471    57 C    1.414    61 H    0.966
                            59 C    0.100
    57   6 C    3.944 --    58 C    1.424    56 C    1.414    62 H    0.968
    58   6 C    3.984 --    59 C    1.459    57 C    1.424    63 H    0.966
                            55 C    0.102
    59   6 C    3.966 --    58 C    1.459    54 C    1.354    64 H    0.963
                            56 C    0.100
    60   1 H    0.995 --    55 C    0.961
    61   1 H    0.994 --    56 C    0.966
    62   1 H    0.995 --    57 C    0.968
    63   1 H    0.993 --    58 C    0.966
    64   1 H    0.994 --    59 C    0.963
    65   1 H    0.994 --    49 C    0.962
    66   1 H    0.994 --    50 C    0.966
    67   1 H    0.995 --    51 C    0.968
    68   1 H    0.995 --    52 C    0.965
    69   1 H    0.995 --    53 C    0.955
    70   1 H    0.995 --    25 C    0.964
 ---------------------------------------------------------------------------

Topologies differ in bond orders
Writing corrected topology to xtbtopo.mol

molecular dipole:
                 x           y           z       tot (Debye)
 q only:        0.653      -0.159      -1.127
   full:        0.649      -0.227      -1.046       3.181
molecular quadrupole (traceless):
                xx          xy          yy          xz          yz          zz
 q only:       44.946      -8.809       2.015      -4.513     -14.489     -46.961
  q+dip:       48.618      -6.949       5.903      -1.584     -18.637     -54.521
   full:       42.988      -9.677       1.181      -3.657     -12.598     -44.169


           -------------------------------------------------
          | TOTAL ENERGY             -113.765838557009 Eh   |
          | GRADIENT NORM               0.000477234199 Eh/α |
          | HOMO-LUMO GAP               0.092814290984 eV   |
           -------------------------------------------------
########################################################################
[WARNING] Runtime exception occurred
-1- restart_readRestart: Number of electron missmatch in restart file.
########################################################################

------------------------------------------------------------------------
 * finished run on 2024/11/14 at 15:20:30.183     
Note: The following floating-point exceptions are signalling: IEEE_UNDERFLOW_FLAG
normal termination of xtb
------------------------------------------------------------------------
 total:
 * wall-time:     0 d,  0 h,  0 min,  0.777 sec
 *  cpu-time:     0 d,  0 h,  0 min,  2.729 sec
 * ratio c/w:     3.514 speedup
 SCF:
 * wall-time:     0 d,  0 h,  0 min,  0.767 sec
 *  cpu-time:     0 d,  0 h,  0 min,  2.712 sec
 * ratio c/w:     3.534 speedup

