      -----------------------------------------------------------      
     |                   =====================                   |     
     |                           x T B                           |     
     |                   =====================                   |     
     |                         S. Grimme                         |     
     |          Mulliken Center for Theoretical Chemistry        |     
     |                    University of Bonn                     |     
      -----------------------------------------------------------      

   * xtb version 6.6.1 (8d0f1dd) compiled by 'runner@Mac-1690902418499.local' on 2023-08-01

   xtb is free software: you can redistribute it and/or modify it under
   the terms of the GNU Lesser General Public License as published by
   the Free Software Foundation, either version 3 of the License, or
   (at your option) any later version.
   
   xtb is distributed in the hope that it will be useful,
   but WITHOUT ANY WARRANTY; without even the implied warranty of
   MERCHANTABILITY or FITNESS FOR A PARTICULAR PURPOSE.  See the
   GNU Lesser General Public License for more details.
   
   Cite this work as:
   * C. Bannwarth, E. Caldeweyher, S. Ehlert, A. Hansen, P. Pracht,
     J. Seibert, S. Spicher, S. Grimme, WIREs Comput. Mol. Sci., 2020, 11,
     e01493. DOI: 10.1002/wcms.1493
   
   for GFN2-xTB:
   * C. Bannwarth, S. Ehlert and S. Grimme., J. Chem. Theory Comput., 2019,
     15, 1652-1671. DOI: 10.1021/acs.jctc.8b01176
   for GFN1-xTB:
   * S. Grimme, C. Bannwarth, P. Shushkov, J. Chem. Theory Comput., 2017,
     13, 1989-2009. DOI: 10.1021/acs.jctc.7b00118
   for GFN0-xTB:
   * P. Pracht, E. Caldeweyher, S. Ehlert, S. Grimme, ChemRxiv, 2019, preprint.
     DOI: 10.26434/chemrxiv.8326202.v1
   for GFN-FF:
   * S. Spicher and S. Grimme, Angew. Chem. Int. Ed., 2020, 59, 15665-15673.
     DOI: 10.1002/anie.202004239
   
   for ALPB and GBSA implicit solvation:
   * S. Ehlert, M. Stahn, S. Spicher, S. Grimme, J. Chem. Theory Comput.,
     2021, 17, 4250-4261. DOI: 10.1021/acs.jctc.1c00471
   
   for DFT-D4:
   * E. Caldeweyher, C. Bannwarth and S. Grimme, J. Chem. Phys., 2017,
     147, 034112. DOI: 10.1063/1.4993215
   * E. Caldeweyher, S. Ehlert, A. Hansen, H. Neugebauer, S. Spicher,
     C. Bannwarth and S. Grimme, J. Chem. Phys., 2019, 150, 154122.
     DOI: 10.1063/1.5090222
   * E. Caldeweyher, J.-M. Mewes, S. Ehlert and S. Grimme, Phys. Chem. Chem. Phys.
     2020, 22, 8499-8512. DOI: 10.1039/D0CP00502A
   
   for sTDA-xTB:
   * S. Grimme and C. Bannwarth, J. Chem. Phys., 2016, 145, 054103.
     DOI: 10.1063/1.4959605
   
   in the mass-spec context:
   * V. Asgeirsson, C. Bauer and S. Grimme, Chem. Sci., 2017, 8, 4879.
     DOI: 10.1039/c7sc00601b
   * J. Koopman and S. Grimme, ACS Omega 2019, 4, 12, 15120-15133.
     DOI: 10.1021/acsomega.9b02011
   
   for metadynamics refer to:
   * S. Grimme, J. Chem. Theory Comput., 2019, 155, 2847-2862
     DOI: 10.1021/acs.jctc.9b00143
   
   for SPH calculations refer to:
   * S. Spicher and S. Grimme, J. Chem. Theory Comput., 2021, 17, 1701-1714
     DOI: 10.1021/acs.jctc.0c01306
   
   with help from (in alphabetical order)
   P. Atkinson, C. Bannwarth, F. Bohle, G. Brandenburg, E. Caldeweyher
   M. Checinski, S. Dohm, S. Ehlert, S. Ehrlich, I. Gerasimov, C. Hölzer
   A. Katbashev, J. Koopman, C. Lavigne, S. Lehtola, F. März, M. Müller,
   F. Musil, H. Neugebauer, J. Pisarek, C. Plett, P. Pracht, F. Pultar,
   J. Seibert, P. Shushkov, S. Spicher, M. Stahn, M. Steiner, T. Strunk,
   J. Stückrath, T. Rose, and J. Unsleber
   
 * started run on 2024/11/14 at 15:42:28.631     

           -------------------------------------------------
          |                Calculation Setup                |
           -------------------------------------------------

          program call               : xtb stacked_dimer_Verdazyl2.mol --opt --gfn2 --chrg 0 --uhf 1 --tight
          coordinate file            : stacked_dimer_Verdazyl2.mol
          omp threads                :                     8

   ID    Z sym.   atoms
    1    6 C      1-26, 41, 44, 48-59, 71-96, 111, 114, 118-129
    2    1 H      27-40, 60-70, 97-110, 130-140
    3    7 N      42, 43, 45, 46, 112, 113, 115, 116
    4    8 O      47, 117
########################################################################
[WARNING] Please study the warnings concerning your input carefully
-1- prog_main_parseArguments: Unknown option '--tight' provided
########################################################################

           -------------------------------------------------
          |                 G F N 2 - x T B                 |
           -------------------------------------------------

        Reference                      10.1021/acs.jctc.8b01176
      * Hamiltonian:
        H0-scaling (s, p, d)           1.850000    2.230000    2.230000
        zeta-weighting                 0.500000
      * Dispersion:
        s8                             2.700000
        a1                             0.520000
        a2                             5.000000
        s9                             5.000000
      * Repulsion:
        kExp                           1.500000    1.000000
        rExp                           1.000000
      * Coulomb:
        alpha                          2.000000
        third order                    shell-resolved
        anisotropic                    true
        a3                             3.000000
        a5                             4.000000
        cn-shift                       1.200000
        cn-exp                         4.000000
        max-rad                        5.000000

q/qsh data taken from xtbrestart
CAMM data taken from xtbrestart

          ...................................................
          :                      SETUP                      :
          :.................................................:
          :  # basis functions                 410          :
          :  # atomic orbitals                 410          :
          :  # shells                          230          :
          :  # electrons                       422          :
          :  max. iterations                   250          :
          :  Hamiltonian                  GFN2-xTB          :
          :  restarted?                       true          :
          :  GBSA solvation                  false          :
          :  PC potential                    false          :
          :  electronic temp.          300.0000000     K    :
          :  accuracy                    1.0000000          :
          :  -> integral cutoff          0.2500000E+02      :
          :  -> integral neglect         0.1000000E-07      :
          :  -> SCF convergence          0.1000000E-05 Eh   :
          :  -> wf. convergence          0.1000000E-03 e    :
          :  Broyden damping             0.4000000          :
          ...................................................

 iter      E             dE          RMSdq      gap      omega  full diag
   1   -232.0354760 -0.232035E+03  0.285E+00    0.85       0.0  T
   2   -231.8425155  0.192961E+00  0.209E+00    0.48       1.0  T
   3   -231.8842716 -0.417561E-01  0.163E+00    1.07       1.0  T
   4   -232.1032978 -0.219026E+00  0.772E-01    0.16       1.0  T
   5   -232.0744375  0.288603E-01  0.920E-01    0.96       1.0  T
   6   -232.1224311 -0.479936E-01  0.753E-01    0.43       1.0  T
   7   -232.1334688 -0.110377E-01  0.741E-01    0.21       1.0  T
   8   -232.3129019 -0.179433E+00  0.441E-02    0.00       1.0  T
   9   -232.2873867  0.255151E-01  0.270E-01    0.04       1.0  T
  10   -232.2368072  0.505795E-01  0.470E-01    0.09       1.0  T
  11   -232.3084015 -0.715943E-01  0.116E-01    0.01       1.0  T
  12   -232.3100122 -0.161065E-02  0.934E-02    0.02       1.0  T
  13   -232.3122193 -0.220708E-02  0.494E-02    0.00       1.0  T
  14   -232.3130169 -0.797677E-03  0.118E-02    0.00       1.0  T
  15   -232.3130600 -0.431110E-04  0.392E-03    0.00       2.2  T
  16   -232.3130650 -0.499272E-05  0.105E-03    0.00       8.0  T
  17   -232.3130654 -0.351604E-06  0.258E-04    0.00      32.8  T
  18   -232.3130654  0.451894E-08  0.274E-04    0.00      30.8  T

   *** convergence criteria satisfied after 18 iterations ***

         #    Occupation            Energy/Eh            Energy/eV
      -------------------------------------------------------------
         1        2.0000           -0.7272463             -19.7894
       ...           ...                  ...                  ...
       205        2.0000           -0.3723787             -10.1329
       206        2.0000           -0.3708359             -10.0910
       207        2.0000           -0.3689516             -10.0397
       208        2.0000           -0.3653495              -9.9417
       209        2.0000           -0.3477794              -9.4636
       210        1.9849           -0.3366163              -9.1598
       211        1.0357           -0.3320506              -9.0356 (HOMO)
       212        0.9794           -0.3319436              -9.0326 (LUMO)
       213                         -0.2794175              -7.6033
       214                         -0.2737928              -7.4503
       215                         -0.2701620              -7.3515
       216                         -0.2609965              -7.1021
       ...                                ...                  ...
       410                          0.7272592              19.7897
      -------------------------------------------------------------
                  HL-Gap            0.0001070 Eh            0.0029 eV
             Fermi-level           -0.3319827 Eh           -9.0337 eV

 SCC (total)                   0 d,  0 h,  0 min,  1.994 sec
 SCC setup                      ...        0 min,  0.001 sec (  0.044%)
 Dispersion                     ...        0 min,  0.004 sec (  0.187%)
 classical contributions        ...        0 min,  0.001 sec (  0.042%)
 integral evaluation            ...        0 min,  0.014 sec (  0.712%)
 iterations                     ...        0 min,  1.778 sec ( 89.149%)
 molecular gradient             ...        0 min,  0.098 sec (  4.892%)
 printout                       ...        0 min,  0.099 sec (  4.973%)

         :::::::::::::::::::::::::::::::::::::::::::::::::::::
         ::                     SUMMARY                     ::
         :::::::::::::::::::::::::::::::::::::::::::::::::::::
         :: total energy            -228.201402819948 Eh    ::
         :: gradient norm              0.176569454856 Eh/a0 ::
         :: HOMO-LUMO gap              0.002912896379 eV    ::
         ::.................................................::
         :: SCC energy              -232.313065381721 Eh    ::
         :: -> isotropic ES            0.109264133393 Eh    ::
         :: -> anisotropic ES          0.011588660824 Eh    ::
         :: -> anisotropic XC          0.139660685100 Eh    ::
         :: -> dispersion             -0.252449669469 Eh    ::
         :: repulsion energy           4.090286589887 Eh    ::
         :: add. restraining           0.000000000000 Eh    ::
         :: total charge              -0.000001422927 e     ::
         :::::::::::::::::::::::::::::::::::::::::::::::::::::

      ----------------------------------------------------------- 
     |                   =====================                   |
     |                        A N C O P T                        |
     |                   =====================                   |
     |               Approximate Normal Coordinate               |
     |                Rational Function Optimizer                |
      ----------------------------------------------------------- 

          ...................................................
          :                      SETUP                      :
          :.................................................:
          :   optimization level            normal          :
          :   max. optcycles                   420          :
          :   ANC micro-cycles                  20          :
          :   degrees of freedom               414          :
          :.................................................:
          :   RF solver                   davidson          :
          :   write xtbopt.log                true          :
          :   linear?                        false          :
          :   energy convergence         0.5000000E-05 Eh   :
          :   grad. convergence          0.1000000E-02 Eh/α :
          :   maxmium RF displ.          1.0000000          :
          :   Hlow (freq-cutoff)         0.1000000E-01      :
          :   Hmax (freq-cutoff)         5.0000000          :
          :   S6 in model hess.         20.0000000          :
          ...................................................

generating ANC from model Hessian ...
Using Lindh-Hessian (1995)
 Shifting diagonal of input Hessian by    9.9895992339308157E-003
 Lowest  eigenvalues of input Hessian
    0.000000    0.000000    0.000000    0.000000    0.000000    0.000000
    0.010000    0.010048    0.010099    0.010123    0.010167    0.010232
    0.010304    0.010414    0.010568    0.010701    0.010747    0.010855
 Highest eigenvalues
    2.160942    2.162670    2.297252    2.298269    2.533623    2.533754


........................................................................
.............................. CYCLE    1 ..............................
........................................................................

 iter      E             dE          RMSdq      gap      omega  full diag
   1   -232.3130654 -0.232313E+03  0.205E-04    0.00       0.0  T
   2   -232.3130466  0.188118E-04  0.734E-03    0.00       1.2  T
   3   -232.3130654 -0.188254E-04  0.509E-05    0.00     165.9  T
   4   -232.3130654 -0.841311E-09  0.138E-05    0.00     614.3  T
   5   -232.3130654 -0.299849E-10  0.821E-06    0.00    1028.9  T
     SCC iter.                  ...        0 min,  0.535 sec
     gradient                   ...        0 min,  0.077 sec
 * total energy  :  -228.2014028 Eh     change       -0.2575288E-07 Eh
   gradient norm :     0.1765683 Eh/α   predicted     0.0000000E+00 (-100.00%)
   displ. norm   :     0.6740445 α      lambda       -0.1075616E+00
   maximum displ.:     0.2517163 α      in ANC's #81, #206, #227, ...

........................................................................
.............................. CYCLE    2 ..............................
........................................................................

 iter      E             dE          RMSdq      gap      omega  full diag
   1   -232.3905211 -0.232391E+03  0.245E-01    0.02       0.0  T
   2   -232.1803963  0.210125E+00  0.835E-01    0.57       1.0  T
   3   -232.3234695 -0.143073E+00  0.488E-01    0.08       1.0  T
   4   -232.2513989  0.720706E-01  0.665E-01    0.15       1.0  T
   5   -232.2488943  0.250462E-02  0.670E-01    0.17       1.0  T
   6   -232.3561404 -0.107246E+00  0.355E-01    0.06       1.0  T
   7   -232.3421190  0.140214E-01  0.410E-01    0.06       1.0  T
   8   -232.4004901 -0.583711E-01  0.109E-02    0.00       1.0  T
   9   -232.4002736  0.216555E-03  0.265E-02    0.01       1.0  T
  10   -232.4004997 -0.226162E-03  0.739E-03    0.00       1.1  T
  11   -232.4005057 -0.595069E-05  0.609E-03    0.00       1.4  T
  12   -232.4005144 -0.874405E-05  0.347E-03    0.00       2.4  T
  13   -232.4005185 -0.404735E-05  0.578E-04    0.00      14.6  T
  14   -232.4005186 -0.103314E-06  0.184E-04    0.00      46.0  T
  15   -232.4005186  0.262038E-07  0.328E-04    0.00      25.8  T
     SCC iter.                  ...        0 min,  1.661 sec
     gradient                   ...        0 min,  0.068 sec
 * total energy  :  -228.2809990 Eh     change       -0.7959613E-01 Eh
   gradient norm :     0.0881930 Eh/α   predicted    -0.7821553E-01 (  -1.73%)
   displ. norm   :     0.5429051 α      lambda       -0.4329108E-01
   maximum displ.:     0.2309239 α      in ANC's #81, #227, #87, ...

........................................................................
.............................. CYCLE    3 ..............................
........................................................................

 iter      E             dE          RMSdq      gap      omega  full diag
   1   -232.4349981 -0.232435E+03  0.128E-01    0.01       0.0  T
   2   -232.2485257  0.186472E+00  0.747E-01    0.24       1.0  T
   3   -232.4215033 -0.172978E+00  0.218E-01    0.03       1.0  T
   4   -232.4207125  0.790810E-03  0.220E-01    0.03       1.0  T
   5   -232.4243085 -0.359596E-02  0.189E-01    0.03       1.0  T
   6   -232.4365834 -0.122749E-01  0.739E-03    0.00       1.1  T
   7   -232.4356490  0.934385E-03  0.519E-02    0.01       1.0  T
   8   -232.4363569 -0.707909E-03  0.260E-02    0.01       1.0  T
   9   -232.4365884 -0.231506E-03  0.244E-03    0.00       3.5  T
  10   -232.4365879  0.519231E-06  0.275E-03    0.00       3.1  T
  11   -232.4365900 -0.210414E-05  0.124E-03    0.00       6.8  T
  12   -232.4365905 -0.531903E-06  0.860E-05    0.00      98.3  T
  13   -232.4365905 -0.113681E-08  0.490E-05    0.00     172.4  T
     SCC iter.                  ...        0 min,  1.233 sec
     gradient                   ...        0 min,  0.071 sec
 * total energy  :  -228.3142649 Eh     change       -0.3326588E-01 Eh
   gradient norm :     0.0485182 Eh/α   predicted    -0.2802548E-01 ( -15.75%)
   displ. norm   :     0.5649496 α      lambda       -0.2451693E-01
   maximum displ.:     0.2663257 α      in ANC's #81, #42, #87, ...

........................................................................
.............................. CYCLE    4 ..............................
........................................................................

 iter      E             dE          RMSdq      gap      omega  full diag
   1   -232.4522234 -0.232452E+03  0.922E-02    0.00       0.0  T
   2   -232.3983897  0.538337E-01  0.399E-01    0.06       1.0  T
   3   -232.4236421 -0.252524E-01  0.292E-01    0.05       1.0  T
   4   -232.4522120 -0.285699E-01  0.415E-02    0.00       1.0  T
   5   -232.4524300 -0.217989E-03  0.145E-02    0.00       1.0  T
   6   -232.4524736 -0.436689E-04  0.646E-03    0.00       1.3  T
   7   -232.4524842 -0.106042E-04  0.147E-03    0.00       5.7  T
   8   -232.4524844 -0.156124E-06  0.806E-04    0.00      10.5  T
   9   -232.4524845 -0.132610E-06  0.256E-04    0.00      33.0  T
     SCC iter.                  ...        0 min,  0.878 sec
     gradient                   ...        0 min,  0.069 sec
 * total energy  :  -228.3330300 Eh     change       -0.1876514E-01 Eh
   gradient norm :     0.0265495 Eh/α   predicted    -0.1617098E-01 ( -13.82%)
   displ. norm   :     0.5637625 α      lambda       -0.1334812E-01
   maximum displ.:     0.2637897 α      in ANC's #81, #42, #40, ...

........................................................................
.............................. CYCLE    5 ..............................
........................................................................

 iter      E             dE          RMSdq      gap      omega  full diag
   1   -232.4576887 -0.232458E+03  0.838E-02    0.00       0.0  T
   2   -232.3289467  0.128742E+00  0.614E-01    0.13       1.0  T
   3   -232.4403129 -0.111366E+00  0.230E-01    0.03       1.0  T
   4   -232.4498079 -0.949503E-02  0.154E-01    0.02       1.0  T
   5   -232.4573177 -0.750980E-02  0.429E-02    0.01       1.0  T
   6   -232.4579051 -0.587359E-03  0.116E-02    0.00       1.0  T
   7   -232.4579458 -0.407082E-04  0.384E-03    0.00       2.2  T
   8   -232.4579403  0.544392E-05  0.552E-03    0.00       1.5  T
   9   -232.4579508 -0.104724E-04  0.537E-04    0.00      15.7  T
  10   -232.4579506  0.216486E-06  0.950E-04    0.00       8.9  T
  11   -232.4579509 -0.307844E-06  0.143E-04    0.00      58.9  T
     SCC iter.                  ...        0 min,  1.029 sec
     gradient                   ...        0 min,  0.068 sec
 * total energy  :  -228.3432626 Eh     change       -0.1023261E-01 Eh
   gradient norm :     0.0150970 Eh/α   predicted    -0.8795947E-02 ( -14.04%)
   displ. norm   :     0.5565496 α      lambda       -0.7317193E-02
   maximum displ.:     0.2382758 α      in ANC's #81, #27, #42, ...

........................................................................
.............................. CYCLE    6 ..............................
........................................................................

 iter      E             dE          RMSdq      gap      omega  full diag
   1   -232.4581599 -0.232458E+03  0.969E-02    0.01       0.0  T
   2   -232.2712957  0.186864E+00  0.750E-01    0.29       1.0  T
   3   -232.4574569 -0.186161E+00  0.845E-02    0.01       1.0  T
   4   -232.4460440  0.114129E-01  0.195E-01    0.03       1.0  T
   5   -232.4551522 -0.910817E-02  0.110E-01    0.02       1.0  T
   6   -232.4588407 -0.368850E-02  0.359E-02    0.01       1.0  T
   7   -232.4592679 -0.427240E-03  0.342E-03    0.00       2.5  T
   8   -232.4592709 -0.299202E-05  0.158E-03    0.00       5.3  T
   9   -232.4592717 -0.765555E-06  0.479E-04    0.00      17.7  T
  10   -232.4592717 -0.423038E-07  0.305E-04    0.00      27.7  T
     SCC iter.                  ...        0 min,  0.910 sec
     gradient                   ...        0 min,  0.066 sec
 * total energy  :  -228.3488257 Eh     change       -0.5563095E-02 Eh
   gradient norm :     0.0097416 Eh/α   predicted    -0.4791840E-02 ( -13.86%)
   displ. norm   :     0.5364436 α      lambda       -0.3876093E-02
   maximum displ.:     0.1956543 α      in ANC's #81, #27, #42, ...

........................................................................
.............................. CYCLE    7 ..............................
........................................................................

 iter      E             dE          RMSdq      gap      omega  full diag
   1   -232.4576451 -0.232458E+03  0.107E-01    0.01       0.0  T
   2   -232.2623984  0.195247E+00  0.774E-01    0.40       1.0  T
   3   -232.4584621 -0.196064E+00  0.726E-02    0.01       1.0  T
   4   -232.4069057  0.515564E-01  0.394E-01    0.06       1.0  T
   5   -232.4526622 -0.457565E-01  0.143E-01    0.02       1.0  T
   6   -232.4590433 -0.638111E-02  0.423E-02    0.01       1.0  T
   7   -232.4596042 -0.560912E-03  0.136E-02    0.00       1.0  T
   8   -232.4596675 -0.633063E-04  0.732E-04    0.00      11.5  T
   9   -232.4596677 -0.122487E-06  0.279E-04    0.00      30.3  T
  10   -232.4596676  0.235058E-07  0.341E-04    0.00      24.8  T
     SCC iter.                  ...        0 min,  0.822 sec
     gradient                   ...        0 min,  0.065 sec
 * total energy  :  -228.3517351 Eh     change       -0.2909423E-02 Eh
   gradient norm :     0.0068654 Eh/α   predicted    -0.2495765E-02 ( -14.22%)
   displ. norm   :     0.5094734 α      lambda       -0.1996367E-02
   maximum displ.:     0.1621350 α      in ANC's #8, #81, #27, ...

........................................................................
.............................. CYCLE    8 ..............................
........................................................................

 iter      E             dE          RMSdq      gap      omega  full diag
   1   -232.4587411 -0.232459E+03  0.956E-02    0.01       0.0  T
   2   -232.2640139  0.194727E+00  0.769E-01    0.36       1.0  T
   3   -232.4595571 -0.195543E+00  0.618E-02    0.01       1.0  T
   4   -232.4261653  0.333918E-01  0.316E-01    0.05       1.0  T
   5   -232.4559287 -0.297634E-01  0.114E-01    0.02       1.0  T
   6   -232.4601870 -0.425836E-02  0.237E-02    0.00       1.0  T
   7   -232.4603603 -0.173273E-03  0.813E-03    0.00       1.0  T
   8   -232.4603828 -0.224646E-04  0.595E-04    0.00      14.2  T
   9   -232.4603829 -0.651176E-07  0.314E-04    0.00      27.0  T
  10   -232.4603828  0.417521E-08  0.301E-04    0.00      28.1  T
     SCC iter.                  ...        0 min,  0.868 sec
     gradient                   ...        0 min,  0.066 sec
 * total energy  :  -228.3532284 Eh     change       -0.1493275E-02 Eh
   gradient norm :     0.0045805 Eh/α   predicted    -0.1257278E-02 ( -15.80%)
   displ. norm   :     0.4949471 α      lambda       -0.1101856E-02
   maximum displ.:     0.1926154 α      in ANC's #8, #7, #27, ...

........................................................................
.............................. CYCLE    9 ..............................
........................................................................

 iter      E             dE          RMSdq      gap      omega  full diag
   1   -232.4605742 -0.232461E+03  0.756E-02    0.01       0.0  T
   2   -232.2768760  0.183698E+00  0.736E-01    0.24       1.0  T
   3   -232.4609426 -0.184067E+00  0.465E-02    0.00       1.0  T
   4   -232.4606992  0.243410E-03  0.409E-02    0.01       1.0  T
   5   -232.4603739  0.325281E-03  0.511E-02    0.01       1.0  T
   6   -232.4612365 -0.862661E-03  0.118E-02    0.00       1.0  T
   7   -232.4612819 -0.453584E-04  0.210E-03    0.00       4.0  T
   8   -232.4612786  0.329198E-05  0.371E-03    0.00       2.3  T
   9   -232.4612816 -0.302616E-05  0.226E-03    0.00       3.7  T
  10   -232.4612833 -0.171423E-05  0.438E-04    0.00      19.3  T
  11   -232.4612834 -0.442400E-07  0.248E-04    0.00      34.1  T
  12   -232.4612834 -0.143395E-07  0.140E-04    0.00      60.2  T
     SCC iter.                  ...        0 min,  1.413 sec
     gradient                   ...        0 min,  0.063 sec
 * total energy  :  -228.3540701 Eh     change       -0.8416739E-03 Eh
   gradient norm :     0.0035351 Eh/α   predicted    -0.6858925E-03 ( -18.51%)
   displ. norm   :     0.5010295 α      lambda       -0.7408755E-03
   maximum displ.:     0.2141500 α      in ANC's #8, #7, #1, ...

........................................................................
.............................. CYCLE   10 ..............................
........................................................................

 iter      E             dE          RMSdq      gap      omega  full diag
   1   -232.4620927 -0.232462E+03  0.616E-02    0.00       0.0  T
   2   -232.3829943  0.790985E-01  0.478E-01    0.08       1.0  T
   3   -232.4572624 -0.742681E-01  0.124E-01    0.02       1.0  T
   4   -232.4618415 -0.457913E-02  0.315E-02    0.00       1.0  T
   5   -232.4621160 -0.274478E-03  0.132E-02    0.00       1.0  T
   6   -232.4621722 -0.562176E-04  0.364E-03    0.00       2.3  T
   7   -232.4621766 -0.439421E-05  0.755E-04    0.00      11.2  T
   8   -232.4621761  0.515569E-06  0.141E-03    0.00       6.0  T
   9   -232.4621767 -0.585735E-06  0.522E-04    0.00      16.2  T
  10   -232.4621768 -0.688273E-07  0.278E-04    0.00      30.4  T
     SCC iter.                  ...        0 min,  1.262 sec
     gradient                   ...        0 min,  0.064 sec
 * total energy  :  -228.3546644 Eh     change       -0.5942977E-03 Eh
   gradient norm :     0.0036981 Eh/α   predicted    -0.4634329E-03 ( -22.02%)
   displ. norm   :     0.5278915 α      lambda       -0.6401787E-03
   maximum displ.:     0.2340389 α      in ANC's #8, #7, #1, ...

........................................................................
.............................. CYCLE   11 ..............................
........................................................................

 iter      E             dE          RMSdq      gap      omega  full diag
   1   -232.4631415 -0.232463E+03  0.632E-02    0.00       0.0  T
   2   -232.4595820  0.355956E-02  0.108E-01    0.02       1.0  T
   3   -232.3873438  0.722382E-01  0.467E-01    0.08       1.0  T
   4   -232.4630459 -0.757020E-01  0.182E-02    0.00       1.0  T
   5   -232.4630551 -0.924158E-05  0.162E-02    0.00       1.0  T
   6   -232.4631472 -0.920980E-04  0.756E-04    0.00      11.2  T
   7   -232.4631457  0.146862E-05  0.212E-03    0.00       4.0  T
   8   -232.4631472 -0.149193E-05  0.438E-04    0.00      19.3  T
   9   -232.4631471  0.148543E-06  0.761E-04    0.00      11.1  T
  10   -232.4631473 -0.198781E-06  0.130E-04    0.00      65.1  T
     SCC iter.                  ...        0 min,  0.776 sec
     gradient                   ...        0 min,  0.069 sec
 * total energy  :  -228.3552067 Eh     change       -0.5422992E-03 Eh
   gradient norm :     0.0040277 Eh/α   predicted    -0.4093050E-03 ( -24.52%)
   displ. norm   :     0.5789874 α      lambda       -0.6714236E-03
   maximum displ.:     0.2639312 α      in ANC's #7, #8, #1, ...

........................................................................
.............................. CYCLE   12 ..............................
........................................................................

 iter      E             dE          RMSdq      gap      omega  full diag
   1   -232.4640166 -0.232464E+03  0.741E-02    0.00       0.0  T
   2   -232.3418589  0.122158E+00  0.594E-01    0.12       1.0  T
   3   -232.4597447 -0.117886E+00  0.119E-01    0.02       1.0  T
   4   -232.4612002 -0.145553E-02  0.920E-02    0.01       1.0  T
   5   -232.4641809 -0.298068E-02  0.571E-03    0.00       1.5  T
   6   -232.4641356  0.452682E-04  0.126E-02    0.00       1.0  T
   7   -232.4641913 -0.556573E-04  0.440E-04    0.00      19.2  T
   8   -232.4641871  0.423232E-05  0.347E-03    0.00       2.4  T
   9   -232.4641913 -0.425273E-05  0.675E-05    0.00     125.2  T
  10   -232.4641913  0.562083E-07  0.401E-04    0.00      21.1  T
  11   -232.4641913 -0.540635E-07  0.883E-05    0.00      95.7  T
     SCC iter.                  ...        0 min,  0.916 sec
     gradient                   ...        0 min,  0.071 sec
 * total energy  :  -228.3557920 Eh     change       -0.5853040E-03 Eh
   gradient norm :     0.0039442 Eh/α   predicted    -0.4483107E-03 ( -23.41%)
   displ. norm   :     0.6340790 α      lambda       -0.7276707E-03
   maximum displ.:     0.3049053 α      in ANC's #7, #8, #1, ...

........................................................................
.............................. CYCLE   13 ..............................
........................................................................

 iter      E             dE          RMSdq      gap      omega  full diag
   1   -232.4648000 -0.232465E+03  0.844E-02    0.00       0.0  T
   2   -232.3110705  0.153729E+00  0.667E-01    0.16       1.0  T
   3   -232.4599331 -0.148863E+00  0.129E-01    0.02       1.0  T
   4   -232.4573174  0.261573E-02  0.148E-01    0.02       1.0  T
   5   -232.4650972 -0.777981E-02  0.544E-03    0.00       1.6  T
   6   -232.4649070  0.190224E-03  0.237E-02    0.00       1.0  T
   7   -232.4651002 -0.193222E-03  0.406E-03    0.00       2.1  T
   8   -232.4650971  0.308973E-05  0.495E-03    0.00       1.7  T
   9   -232.4651052 -0.812068E-05  0.132E-03    0.00       6.4  T
  10   -232.4651058 -0.529654E-06  0.477E-04    0.00      17.7  T
  11   -232.4651058 -0.769324E-07  0.107E-04    0.00      78.7  T
     SCC iter.                  ...        0 min,  0.824 sec
     gradient                   ...        0 min,  0.064 sec
 * total energy  :  -228.3564246 Eh     change       -0.6325846E-03 Eh
   gradient norm :     0.0036912 Eh/α   predicted    -0.5101204E-03 ( -19.36%)
   displ. norm   :     0.6674890 α      lambda       -0.7100933E-03
   maximum displ.:     0.3327352 α      in ANC's #7, #8, #1, ...

........................................................................
.............................. CYCLE   14 ..............................
........................................................................

 iter      E             dE          RMSdq      gap      omega  full diag
   1   -232.4652998 -0.232465E+03  0.862E-02    0.00       0.0  T
   2   -232.3531230  0.112177E+00  0.568E-01    0.11       1.0  T
   3   -232.4535734 -0.100450E+00  0.190E-01    0.03       1.0  T
   4   -232.4610331 -0.745962E-02  0.112E-01    0.02       1.0  T
   5   -232.4653130 -0.427999E-02  0.194E-02    0.00       1.0  T
   6   -232.4653719 -0.588152E-04  0.145E-02    0.00       1.0  T
   7   -232.4654456 -0.737249E-04  0.473E-04    0.00      17.9  T
   8   -232.4654414  0.422210E-05  0.346E-03    0.00       2.4  T
   9   -232.4654456 -0.423702E-05  0.107E-04    0.00      78.8  T
  10   -232.4654455  0.604400E-07  0.425E-04    0.00      19.9  T
  11   -232.4654456 -0.635431E-07  0.222E-05    0.00     381.1  T
     SCC iter.                  ...        0 min,  0.950 sec
     gradient                   ...        0 min,  0.069 sec
 * total energy  :  -228.3570333 Eh     change       -0.6087561E-03 Eh
   gradient norm :     0.0041475 Eh/α   predicted    -0.5132347E-03 ( -15.69%)
   displ. norm   :     0.6659810 α      lambda       -0.6228460E-03
   maximum displ.:     0.3409399 α      in ANC's #7, #1, #8, ...

........................................................................
.............................. CYCLE   15 ..............................
........................................................................

 iter      E             dE          RMSdq      gap      omega  full diag
   1   -232.4652528 -0.232465E+03  0.828E-02    0.00       0.0  T
   2   -232.4561760  0.907683E-02  0.168E-01    0.02       1.0  T
   3   -232.3744950  0.816810E-01  0.510E-01    0.09       1.0  T
   4   -232.4646457 -0.901507E-01  0.427E-02    0.01       1.0  T
   5   -232.4650261 -0.380424E-03  0.259E-02    0.00       1.0  T
   6   -232.4652625 -0.236404E-03  0.166E-03    0.00       5.1  T
   7   -232.4652597  0.282745E-05  0.320E-03    0.00       2.6  T
   8   -232.4652629 -0.325196E-05  0.104E-03    0.00       8.1  T
   9   -232.4652629  0.186081E-07  0.104E-03    0.00       8.1  T
  10   -232.4652633 -0.383280E-06  0.321E-05    0.00     263.4  T
  11   -232.4652633  0.867652E-08  0.158E-04    0.00      53.6  T
     SCC iter.                  ...        0 min,  0.934 sec
     gradient                   ...        0 min,  0.068 sec
 * total energy  :  -228.3575742 Eh     change       -0.5408599E-03 Eh
   gradient norm :     0.0048571 Eh/α   predicted    -0.4495489E-03 ( -16.88%)
   displ. norm   :     0.6663817 α      lambda       -0.5925845E-03
   maximum displ.:     0.3477401 α      in ANC's #7, #1, #8, ...

........................................................................
.............................. CYCLE   16 ..............................
........................................................................

 iter      E             dE          RMSdq      gap      omega  full diag
   1   -232.4652386 -0.232465E+03  0.818E-02    0.00       0.0  T
   2   -232.4163531  0.488855E-01  0.376E-01    0.06       1.0  T
   3   -232.4445677 -0.282146E-01  0.247E-01    0.04       1.0  T
   4   -232.4651574 -0.205897E-01  0.198E-02    0.00       1.0  T
   5   -232.4652532 -0.958097E-04  0.949E-03    0.00       1.0  T
   6   -232.4652843 -0.311597E-04  0.853E-04    0.00       9.9  T
   7   -232.4652844 -0.515655E-07  0.507E-04    0.00      16.7  T
   8   -232.4652844 -0.262820E-07  0.298E-04    0.00      28.4  T
     SCC iter.                  ...        0 min,  0.686 sec
     gradient                   ...        0 min,  0.064 sec
 * total energy  :  -228.3581092 Eh     change       -0.5349977E-03 Eh
   gradient norm :     0.0047711 Eh/α   predicted    -0.4278678E-03 ( -20.02%)
   displ. norm   :     0.7042736 α      lambda       -0.6719489E-03
   maximum displ.:     0.3724032 α      in ANC's #7, #1, #2, ...

........................................................................
.............................. CYCLE   17 ..............................
........................................................................

 iter      E             dE          RMSdq      gap      omega  full diag
   1   -232.4660643 -0.232466E+03  0.857E-02    0.00       0.0  T
   2   -232.3919071  0.741572E-01  0.462E-01    0.08       1.0  T
   3   -232.4490956 -0.571885E-01  0.225E-01    0.03       1.0  T
   4   -232.4650640 -0.159684E-01  0.554E-02    0.01       1.0  T
   5   -232.4660631 -0.999078E-03  0.149E-02    0.00       1.0  T
   6   -232.4661374 -0.742699E-04  0.319E-03    0.00       2.7  T
   7   -232.4661407 -0.330551E-05  0.774E-04    0.00      10.9  T
   8   -232.4661404  0.270219E-06  0.113E-03    0.00       7.5  T
   9   -232.4661408 -0.362614E-06  0.445E-04    0.00      19.0  T
  10   -232.4661409 -0.681480E-07  0.445E-05    0.00     190.1  T
     SCC iter.                  ...        0 min,  0.860 sec
     gradient                   ...        0 min,  0.069 sec
 * total energy  :  -228.3587311 Eh     change       -0.6219333E-03 Eh
   gradient norm :     0.0040419 Eh/α   predicted    -0.5026285E-03 ( -19.18%)
   displ. norm   :     0.7627982 α      lambda       -0.8016807E-03
   maximum displ.:     0.4066544 α      in ANC's #7, #1, #2, ...

........................................................................
.............................. CYCLE   18 ..............................
........................................................................

 iter      E             dE          RMSdq      gap      omega  full diag
   1   -232.4674866 -0.232467E+03  0.920E-02    0.00       0.0  T
   2   -232.3855386  0.819480E-01  0.486E-01    0.08       1.0  T
   3   -232.4463058 -0.607672E-01  0.251E-01    0.04       1.0  T
   4   -232.4653792 -0.190734E-01  0.788E-02    0.01       1.0  T
   5   -232.4674944 -0.211522E-02  0.152E-02    0.00       1.0  T
   6   -232.4675689 -0.744447E-04  0.427E-03    0.00       2.0  T
   7   -232.4675751 -0.624465E-05  0.619E-04    0.00      13.6  T
   8   -232.4675743  0.790521E-06  0.158E-03    0.00       5.4  T
   9   -232.4675752 -0.831941E-06  0.295E-04    0.00      28.7  T
  10   -232.4675752 -0.255479E-07  0.100E-04    0.00      84.5  T
     SCC iter.                  ...        0 min,  0.714 sec
     gradient                   ...        0 min,  0.066 sec
 * total energy  :  -228.3594739 Eh     change       -0.7427944E-03 Eh
   gradient norm :     0.0044291 Eh/α   predicted    -0.6340749E-03 ( -14.64%)
   displ. norm   :     0.8067479 α      lambda       -0.8863483E-03
   maximum displ.:     0.4330081 α      in ANC's #7, #1, #2, ...

........................................................................
.............................. CYCLE   19 ..............................
........................................................................

 iter      E             dE          RMSdq      gap      omega  full diag
   1   -232.4686574 -0.232469E+03  0.944E-02    0.00       0.0  T
   2   -232.4654637  0.319369E-02  0.110E-01    0.01       1.0  T
   3   -232.3020435  0.163420E+00  0.693E-01    0.17       1.0  T
   4   -232.4590864 -0.157043E+00  0.165E-01    0.02       1.0  T
   5   -232.4686618 -0.957543E-02  0.366E-03    0.00       2.3  T
   6   -232.4685539  0.107886E-03  0.177E-02    0.00       1.0  T
   7   -232.4686528 -0.988511E-04  0.622E-03    0.00       1.4  T
   8   -232.4686644 -0.116191E-04  0.219E-03    0.00       3.9  T
   9   -232.4686642  0.204083E-06  0.235E-03    0.00       3.6  T
  10   -232.4686661 -0.193738E-05  0.123E-04    0.00      69.0  T
  11   -232.4686661  0.142885E-07  0.230E-04    0.00      36.7  T
  12   -232.4686661 -0.171016E-07  0.683E-05    0.00     123.8  T
     SCC iter.                  ...        0 min,  1.160 sec
     gradient                   ...        0 min,  0.083 sec
 * total energy  :  -228.3602946 Eh     change       -0.8207368E-03 Eh
   gradient norm :     0.0058559 Eh/α   predicted    -0.7316128E-03 ( -10.86%)
   displ. norm   :     0.8310152 α      lambda       -0.9227357E-03
   maximum displ.:     0.4510307 α      in ANC's #7, #1, #2, ...

........................................................................
.............................. CYCLE   20 ..............................
........................................................................

 iter      E             dE          RMSdq      gap      omega  full diag
   1   -232.4692055 -0.232469E+03  0.968E-02    0.00       0.0  T
   2   -232.3354419  0.133764E+00  0.621E-01    0.13       1.0  T
   3   -232.4576820 -0.122240E+00  0.190E-01    0.03       1.0  T
   4   -232.4656916 -0.800956E-02  0.104E-01    0.02       1.0  T
   5   -232.4691248 -0.343320E-02  0.284E-02    0.00       1.0  T
   6   -232.4693174 -0.192638E-03  0.164E-02    0.00       1.0  T
   7   -232.4694092 -0.917453E-04  0.239E-03    0.00       3.5  T
   8   -232.4694015  0.768178E-05  0.523E-03    0.00       1.6  T
   9   -232.4694112 -0.968440E-05  0.129E-04    0.00      65.3  T
  10   -232.4694110  0.148002E-06  0.657E-04    0.00      12.9  T
  11   -232.4694112 -0.148420E-06  0.113E-04    0.00      74.7  T
     SCC iter.                  ...        0 min,  1.171 sec
     gradient                   ...        0 min,  0.067 sec
 * total energy  :  -228.3611556 Eh     change       -0.8610154E-03 Eh
   gradient norm :     0.0064501 Eh/α   predicted    -0.7799877E-03 (  -9.41%)
   displ. norm   :     0.8475192 α      lambda       -0.9554995E-03
   maximum displ.:     0.4672887 α      in ANC's #7, #1, #2, ...
 * RMSD in coord.:     0.8071919 α      energy gain  -0.1597528E+00 Eh

generating ANC from model Hessian ...
Using Lindh-Hessian (1995)
 Shifting diagonal of input Hessian by    1.0002201875379167E-002
 Lowest  eigenvalues of input Hessian
    0.010000    0.000000    0.000000    0.000000    0.000000    0.000000
    0.000000    0.010020    0.010033    0.010081    0.010118    0.010173
    0.010209    0.010314    0.010404    0.010471    0.010695    0.010796
 Highest eigenvalues
    2.158351    2.161182    2.295500    2.296652    2.531811    2.533926


........................................................................
.............................. CYCLE   21 ..............................
........................................................................

 iter      E             dE          RMSdq      gap      omega  full diag
   1   -232.4696378 -0.232470E+03  0.979E-02    0.01       0.0  T
   2   -232.2956281  0.174010E+00  0.712E-01    0.20       1.0  T
   3   -232.4647700 -0.169142E+00  0.134E-01    0.02       1.0  T
   4   -232.4594818  0.528819E-02  0.174E-01    0.03       1.0  T
   5   -232.4696832 -0.102014E-01  0.356E-02    0.00       1.0  T
   6   -232.4698935 -0.210295E-03  0.251E-02    0.00       1.0  T
   7   -232.4700802 -0.186701E-03  0.103E-02    0.00       1.0  T
   8   -232.4701111 -0.309452E-04  0.410E-03    0.00       2.1  T
   9   -232.4701165 -0.537730E-05  0.131E-03    0.00       6.5  T
  10   -232.4701171 -0.581491E-06  0.252E-04    0.00      33.5  T
  11   -232.4701171 -0.176653E-07  0.112E-04    0.00      75.7  T
     SCC iter.                  ...        0 min,  1.244 sec
     gradient                   ...        0 min,  0.067 sec
 * total energy  :  -228.3620600 Eh     change       -0.9043515E-03 Eh
   gradient norm :     0.0058344 Eh/α   predicted     0.0000000E+00 (-100.00%)
   displ. norm   :     0.1355657 α      lambda       -0.2573367E-03
   maximum displ.:     0.0763004 α      in ANC's #9, #10, #5, ...

........................................................................
.............................. CYCLE   22 ..............................
........................................................................

 iter      E             dE          RMSdq      gap      omega  full diag
   1   -232.4727991 -0.232473E+03  0.175E-02    0.00       0.0  T
   2   -232.4703742  0.242494E-02  0.837E-02    0.01       1.0  T
   3   -232.4720840 -0.170980E-02  0.463E-02    0.01       1.0  T
   4   -232.4727515 -0.667497E-03  0.119E-02    0.00       1.0  T
   5   -232.4728014 -0.499660E-04  0.681E-04    0.00      12.4  T
   6   -232.4728013  0.157890E-06  0.848E-04    0.00      10.0  T
   7   -232.4728015 -0.236243E-06  0.184E-04    0.00      46.0  T
     SCC iter.                  ...        0 min,  0.638 sec
     gradient                   ...        0 min,  0.064 sec
 * total energy  :  -228.3623038 Eh     change       -0.2438389E-03 Eh
   gradient norm :     0.0033284 Eh/α   predicted    -0.1375748E-03 ( -43.58%)
   displ. norm   :     0.5191213 α      lambda       -0.8310378E-03
   maximum displ.:     0.2707467 α      in ANC's #9, #10, #5, ...

........................................................................
.............................. CYCLE   23 ..............................
........................................................................

 iter      E             dE          RMSdq      gap      omega  full diag
   1   -232.4774266 -0.232477E+03  0.609E-02    0.00       0.0  T
   2   -232.3534216  0.124005E+00  0.596E-01    0.12       1.0  T
   3   -232.4766828 -0.123261E+00  0.608E-02    0.01       1.0  T
   4   -232.4775753 -0.892537E-03  0.109E-02    0.00       1.0  T
   5   -232.4775328  0.425586E-04  0.139E-02    0.00       1.0  T
   6   -232.4775996 -0.667816E-04  0.159E-03    0.00       5.3  T
   7   -232.4775988  0.808781E-06  0.207E-03    0.00       4.1  T
   8   -232.4775997 -0.961048E-06  0.122E-03    0.00       6.9  T
   9   -232.4775998 -0.115877E-06  0.104E-03    0.00       8.1  T
  10   -232.4776002 -0.333910E-06  0.386E-04    0.00      21.9  T
  11   -232.4776002 -0.304714E-07  0.246E-04    0.00      34.3  T
     SCC iter.                  ...        0 min,  1.427 sec
     gradient                   ...        0 min,  0.074 sec
 * total energy  :  -228.3629953 Eh     change       -0.6914849E-03 Eh
   gradient norm :     0.0054318 Eh/α   predicted    -0.5274956E-03 ( -23.72%)
   displ. norm   :     0.6552401 α      lambda       -0.8118980E-03
   maximum displ.:     0.3452069 α      in ANC's #9, #10, #5, ...

........................................................................
.............................. CYCLE   24 ..............................
........................................................................

 iter      E             dE          RMSdq      gap      omega  full diag
   1   -232.4782210 -0.232478E+03  0.721E-02    0.00       0.0  T
   2   -232.3113579  0.166863E+00  0.694E-01    0.18       1.0  T
   3   -232.4776964 -0.166339E+00  0.629E-02    0.01       1.0  T
   4   -232.4782773 -0.580885E-03  0.320E-02    0.00       1.0  T
   5   -232.4785938 -0.316500E-03  0.617E-03    0.00       1.4  T
   6   -232.4785784  0.153372E-04  0.888E-03    0.00       1.0  T
   7   -232.4786058 -0.273324E-04  0.997E-04    0.00       8.5  T
   8   -232.4786044  0.133691E-05  0.213E-03    0.00       4.0  T
   9   -232.4786058 -0.131993E-05  0.911E-04    0.00       9.3  T
  10   -232.4786060 -0.285949E-06  0.552E-05    0.00     153.2  T
  11   -232.4786060  0.753242E-07  0.462E-04    0.00      18.3  T
     SCC iter.                  ...        0 min,  1.501 sec
     gradient                   ...        0 min,  0.068 sec
 * total energy  :  -228.3637088 Eh     change       -0.7135030E-03 Eh
   gradient norm :     0.0083405 Eh/α   predicted    -0.5803048E-03 ( -18.67%)
   displ. norm   :     0.6996564 α      lambda       -0.8153934E-03
   maximum displ.:     0.3726345 α      in ANC's #9, #10, #5, ...

........................................................................
.............................. CYCLE   25 ..............................
........................................................................

 iter      E             dE          RMSdq      gap      omega  full diag
   1   -232.4772601 -0.232477E+03  0.690E-02    0.00       0.0  T
   2   -232.3187925  0.158468E+00  0.675E-01    0.16       1.0  T
   3   -232.4759133 -0.157121E+00  0.775E-02    0.01       1.0  T
   4   -232.4766632 -0.749833E-03  0.518E-02    0.01       1.0  T
   5   -232.4775631 -0.899920E-03  0.681E-03    0.00       1.2  T
   6   -232.4775269  0.362163E-04  0.121E-02    0.00       1.0  T
   7   -232.4775786 -0.516893E-04  0.751E-04    0.00      11.3  T
   8   -232.4775743  0.425248E-05  0.351E-03    0.00       2.4  T
   9   -232.4775785 -0.415637E-05  0.801E-04    0.00      10.6  T
  10   -232.4775786 -0.186268E-06  0.305E-04    0.00      27.7  T
  11   -232.4775786  0.307029E-07  0.424E-04    0.00      19.9  T
     SCC iter.                  ...        0 min,  1.161 sec
     gradient                   ...        0 min,  0.067 sec
 * total energy  :  -228.3644501 Eh     change       -0.7412689E-03 Eh
   gradient norm :     0.0084553 Eh/α   predicted    -0.6072805E-03 ( -18.08%)
   displ. norm   :     0.7122731 α      lambda       -0.8611929E-03
   maximum displ.:     0.3832555 α      in ANC's #9, #10, #5, ...

........................................................................
.............................. CYCLE   26 ..............................
........................................................................

 iter      E             dE          RMSdq      gap      omega  full diag
   1   -232.4760374 -0.232476E+03  0.665E-02    0.00       0.0  T
   2   -232.3116943  0.164343E+00  0.687E-01    0.17       1.0  T
   3   -232.4749431 -0.163249E+00  0.724E-02    0.01       1.0  T
   4   -232.4749007  0.423560E-04  0.654E-02    0.01       1.0  T
   5   -232.4763626 -0.146190E-02  0.994E-03    0.00       1.0  T
   6   -232.4763411  0.215487E-04  0.123E-02    0.00       1.0  T
   7   -232.4763914 -0.503238E-04  0.315E-03    0.00       2.7  T
   8   -232.4763925 -0.111241E-05  0.251E-03    0.00       3.4  T
   9   -232.4763939 -0.138134E-05  0.159E-03    0.00       5.3  T
  10   -232.4763948 -0.883237E-06  0.156E-04    0.00      54.1  T
  11   -232.4763948  0.128308E-07  0.240E-04    0.00      35.2  T
     SCC iter.                  ...        0 min,  1.114 sec
     gradient                   ...        0 min,  0.068 sec
 * total energy  :  -228.3652289 Eh     change       -0.7788092E-03 Eh
   gradient norm :     0.0068754 Eh/α   predicted    -0.6490541E-03 ( -16.66%)
   displ. norm   :     0.7141843 α      lambda       -0.8813200E-03
   maximum displ.:     0.3867878 α      in ANC's #9, #10, #5, ...

........................................................................
.............................. CYCLE   27 ..............................
........................................................................

 iter      E             dE          RMSdq      gap      omega  full diag
   1   -232.4756509 -0.232476E+03  0.671E-02    0.01       0.0  T
   2   -232.3055514  0.170099E+00  0.699E-01    0.18       1.0  T
   3   -232.4747854 -0.169234E+00  0.684E-02    0.01       1.0  T
   4   -232.4737957  0.989750E-03  0.799E-02    0.01       1.0  T
   5   -232.4753777 -0.158200E-02  0.440E-02    0.01       1.0  T
   6   -232.4760309 -0.653216E-03  0.827E-03    0.00       1.0  T
   7   -232.4760359 -0.503956E-05  0.751E-03    0.00       1.1  T
   8   -232.4760558 -0.198510E-04  0.349E-04    0.00      24.2  T
   9   -232.4760552  0.570889E-06  0.130E-03    0.00       6.5  T
  10   -232.4760557 -0.498988E-06  0.531E-04    0.00      15.9  T
  11   -232.4760558 -0.939384E-07  0.122E-04    0.00      69.6  T
     SCC iter.                  ...        0 min,  1.037 sec
     gradient                   ...        0 min,  0.070 sec
 * total energy  :  -228.3659923 Eh     change       -0.7633834E-03 Eh
   gradient norm :     0.0054320 Eh/α   predicted    -0.6654251E-03 ( -12.83%)
   displ. norm   :     0.6778211 α      lambda       -0.7658963E-03
   maximum displ.:     0.3663604 α      in ANC's #9, #5, #10, ...

........................................................................
.............................. CYCLE   28 ..............................
........................................................................

 iter      E             dE          RMSdq      gap      omega  full diag
   1   -232.4761022 -0.232476E+03  0.690E-02    0.01       0.0  T
   2   -232.3032262  0.172876E+00  0.706E-01    0.19       1.0  T
   3   -232.4754908 -0.172265E+00  0.639E-02    0.01       1.0  T
   4   -232.4740797  0.141112E-02  0.830E-02    0.01       1.0  T
   5   -232.4757402 -0.166048E-02  0.475E-02    0.01       1.0  T
   6   -232.4765197 -0.779493E-03  0.630E-03    0.00       1.3  T
   7   -232.4765159  0.383031E-05  0.723E-03    0.00       1.2  T
   8   -232.4765324 -0.165693E-04  0.233E-03    0.00       3.6  T
   9   -232.4765339 -0.149373E-05  0.102E-03    0.00       8.3  T
  10   -232.4765342 -0.283454E-06  0.499E-04    0.00      16.9  T
  11   -232.4765343 -0.817736E-07  0.132E-04    0.00      64.2  T
     SCC iter.                  ...        0 min,  1.050 sec
     gradient                   ...        0 min,  0.068 sec
 * total energy  :  -228.3666108 Eh     change       -0.6185466E-03 Eh
   gradient norm :     0.0054324 Eh/α   predicted    -0.5588906E-03 (  -9.64%)
   displ. norm   :     0.5722043 α      lambda       -0.5330525E-03
   maximum displ.:     0.3034029 α      in ANC's #9, #5, #4, ...

........................................................................
.............................. CYCLE   29 ..............................
........................................................................

 iter      E             dE          RMSdq      gap      omega  full diag
   1   -232.4775910 -0.232478E+03  0.601E-02    0.00       0.0  T
   2   -232.3657176  0.111873E+00  0.565E-01    0.10       1.0  T
   3   -232.4752299 -0.109512E+00  0.900E-02    0.01       1.0  T
   4   -232.4763913 -0.116135E-02  0.615E-02    0.01       1.0  T
   5   -232.4777277 -0.133644E-02  0.374E-03    0.00       2.3  T
   6   -232.4777162  0.115723E-04  0.657E-03    0.00       1.3  T
   7   -232.4777314 -0.152477E-04  0.403E-04    0.00      20.9  T
   8   -232.4777288  0.257245E-05  0.270E-03    0.00       3.1  T
   9   -232.4777314 -0.255476E-05  0.302E-04    0.00      28.0  T
  10   -232.4777314 -0.210360E-07  0.176E-04    0.00      48.0  T
  11   -232.4777314 -0.102417E-07  0.420E-05    0.00     201.2  T
     SCC iter.                  ...        0 min,  0.985 sec
     gradient                   ...        0 min,  0.068 sec
 * total energy  :  -228.3670163 Eh     change       -0.4054225E-03 Eh
   gradient norm :     0.0054722 Eh/α   predicted    -0.3537921E-03 ( -12.73%)
   displ. norm   :     0.4423597 α      lambda       -0.3556683E-03
   maximum displ.:     0.2180754 α      in ANC's #9, #5, #4, ...

........................................................................
.............................. CYCLE   30 ..............................
........................................................................

 iter      E             dE          RMSdq      gap      omega  full diag
   1   -232.4795071 -0.232480E+03  0.522E-02    0.00       0.0  T
   2   -232.4702152  0.929193E-02  0.165E-01    0.02       1.0  T
   3   -232.4596040  0.106112E-01  0.239E-01    0.03       1.0  T
   4   -232.4793603 -0.197563E-01  0.216E-02    0.00       1.0  T
   5   -232.4795164 -0.156104E-03  0.238E-03    0.00       3.5  T
   6   -232.4795178 -0.140378E-05  0.857E-04    0.00       9.9  T
   7   -232.4795179 -0.108426E-06  0.361E-04    0.00      23.4  T
   8   -232.4795179  0.100783E-07  0.292E-04    0.00      29.0  T
     SCC iter.                  ...        0 min,  0.708 sec
     gradient                   ...        0 min,  0.064 sec
 * total energy  :  -228.3672887 Eh     change       -0.2723986E-03 Eh
   gradient norm :     0.0048655 Eh/α   predicted    -0.2126344E-03 ( -21.94%)
   displ. norm   :     0.4003231 α      lambda       -0.3058708E-03
   maximum displ.:     0.1697279 α      in ANC's #9, #5, #4, ...

........................................................................
.............................. CYCLE   31 ..............................
........................................................................

 iter      E             dE          RMSdq      gap      omega  full diag
   1   -232.4807868 -0.232481E+03  0.604E-02    0.00       0.0  T
   2   -232.3252830  0.155504E+00  0.669E-01    0.16       1.0  T
   3   -232.4807262 -0.155443E+00  0.444E-02    0.00       1.0  T
   4   -232.4809947 -0.268562E-03  0.184E-02    0.00       1.0  T
   5   -232.4810980 -0.103291E-03  0.382E-03    0.00       2.2  T
   6   -232.4810898  0.823716E-05  0.578E-03    0.00       1.5  T
   7   -232.4811011 -0.112749E-04  0.122E-03    0.00       6.9  T
   8   -232.4811010  0.499219E-08  0.117E-03    0.00       7.2  T
   9   -232.4811014 -0.360310E-06  0.603E-04    0.00      14.0  T
  10   -232.4811015 -0.123393E-06  0.103E-04    0.00      81.9  T
     SCC iter.                  ...        0 min,  0.772 sec
     gradient                   ...        0 min,  0.067 sec
 * total energy  :  -228.3675247 Eh     change       -0.2359937E-03 Eh
   gradient norm :     0.0042403 Eh/α   predicted    -0.1774452E-03 ( -24.81%)
   displ. norm   :     0.4104296 α      lambda       -0.2739004E-03
   maximum displ.:     0.1725648 α      in ANC's #5, #4, #9, ...

........................................................................
.............................. CYCLE   32 ..............................
........................................................................

 iter      E             dE          RMSdq      gap      omega  full diag
   1   -232.4811351 -0.232481E+03  0.652E-02    0.01       0.0  T
   2   -232.3067806  0.174354E+00  0.711E-01    0.20       1.0  T
   3   -232.4816221 -0.174842E+00  0.314E-02    0.00       1.0  T
   4   -232.4814719  0.150238E-03  0.225E-02    0.00       1.0  T
   5   -232.4816199 -0.148008E-03  0.811E-03    0.00       1.0  T
   6   -232.4816371 -0.171745E-04  0.342E-03    0.00       2.5  T
   7   -232.4816406 -0.356068E-05  0.118E-03    0.00       7.2  T
   8   -232.4816409 -0.244373E-06  0.770E-04    0.00      11.0  T
   9   -232.4816410 -0.931347E-07  0.579E-04    0.00      14.6  T
     SCC iter.                  ...        0 min,  0.853 sec
     gradient                   ...        0 min,  0.068 sec
 * total energy  :  -228.3677351 Eh     change       -0.2104823E-03 Eh
   gradient norm :     0.0044456 Eh/α   predicted    -0.1600247E-03 ( -23.97%)
   displ. norm   :     0.4059491 α      lambda       -0.2303076E-03
   maximum displ.:     0.1748719 α      in ANC's #5, #4, #9, ...

........................................................................
.............................. CYCLE   33 ..............................
........................................................................

 iter      E             dE          RMSdq      gap      omega  full diag
   1   -232.4812775 -0.232481E+03  0.584E-02    0.00       0.0  T
   2   -232.3317317  0.149546E+00  0.655E-01    0.15       1.0  T
   3   -232.4813066 -0.149575E+00  0.395E-02    0.00       1.0  T
   4   -232.4814686 -0.161971E-03  0.160E-02    0.00       1.0  T
   5   -232.4815315 -0.629043E-04  0.803E-03    0.00       1.1  T
   6   -232.4815496 -0.181037E-04  0.307E-03    0.00       2.8  T
   7   -232.4815528 -0.321132E-05  0.524E-04    0.00      16.1  T
   8   -232.4815527  0.108382E-06  0.716E-04    0.00      11.8  T
   9   -232.4815528 -0.113889E-06  0.450E-04    0.00      18.8  T
     SCC iter.                  ...        0 min,  1.011 sec
     gradient                   ...        0 min,  0.077 sec
 * total energy  :  -228.3679127 Eh     change       -0.1775231E-03 Eh
   gradient norm :     0.0046699 Eh/α   predicted    -0.1341350E-03 ( -24.44%)
   displ. norm   :     0.3822303 α      lambda       -0.1922896E-03
   maximum displ.:     0.1702026 α      in ANC's #5, #4, #9, ...

........................................................................
.............................. CYCLE   34 ..............................
........................................................................

 iter      E             dE          RMSdq      gap      omega  full diag
   1   -232.4811165 -0.232481E+03  0.493E-02    0.00       0.0  T
   2   -232.4047069  0.764096E-01  0.467E-01    0.08       1.0  T
   3   -232.4803386 -0.756317E-01  0.560E-02    0.01       1.0  T
   4   -232.4811198 -0.781198E-03  0.152E-02    0.00       1.0  T
   5   -232.4811892 -0.693666E-04  0.414E-03    0.00       2.0  T
   6   -232.4811941 -0.496008E-05  0.116E-03    0.00       7.3  T
   7   -232.4811943 -0.128198E-06  0.898E-04    0.00       9.4  T
   8   -232.4811944 -0.134417E-06  0.628E-04    0.00      13.5  T
     SCC iter.                  ...        0 min,  0.605 sec
     gradient                   ...        0 min,  0.068 sec
 * total energy  :  -228.3680605 Eh     change       -0.1478876E-03 Eh
   gradient norm :     0.0041472 Eh/α   predicted    -0.1101945E-03 ( -25.49%)
   displ. norm   :     0.3438925 α      lambda       -0.1586427E-03
   maximum displ.:     0.1591399 α      in ANC's #5, #4, #9, ...

........................................................................
.............................. CYCLE   35 ..............................
........................................................................

 iter      E             dE          RMSdq      gap      omega  full diag
   1   -232.4806482 -0.232481E+03  0.473E-02    0.00       0.0  T
   2   -232.3488969  0.131751E+00  0.613E-01    0.12       1.0  T
   3   -232.4801138 -0.131217E+00  0.511E-02    0.01       1.0  T
   4   -232.4804037 -0.289863E-03  0.353E-02    0.00       1.0  T
   5   -232.4808240 -0.420363E-03  0.708E-03    0.00       1.2  T
   6   -232.4808198  0.426502E-05  0.758E-03    0.00       1.1  T
   7   -232.4808403 -0.205347E-04  0.426E-04    0.00      19.9  T
   8   -232.4808392  0.112094E-05  0.181E-03    0.00       4.7  T
   9   -232.4808403 -0.110719E-05  0.414E-04    0.00      20.4  T
  10   -232.4808403 -0.539318E-07  0.128E-04    0.00      66.3  T
  11   -232.4808403 -0.120306E-08  0.114E-04    0.00      74.1  T
     SCC iter.                  ...        0 min,  0.943 sec
     gradient                   ...        0 min,  0.067 sec
 * total energy  :  -228.3681828 Eh     change       -0.1222212E-03 Eh
   gradient norm :     0.0033179 Eh/α   predicted    -0.8870617E-04 ( -27.42%)
   displ. norm   :     0.3103410 α      lambda       -0.1308521E-03
   maximum displ.:     0.1477233 α      in ANC's #5, #4, #12, ...

........................................................................
.............................. CYCLE   36 ..............................
........................................................................

 iter      E             dE          RMSdq      gap      omega  full diag
   1   -232.4802523 -0.232480E+03  0.489E-02    0.01       0.0  T
   2   -232.3112483  0.169004E+00  0.696E-01    0.18       1.0  T
   3   -232.4805674 -0.169319E+00  0.252E-02    0.00       1.0  T
   4   -232.4805829 -0.155333E-04  0.139E-02    0.00       1.0  T
   5   -232.4804827  0.100216E-03  0.215E-02    0.00       1.0  T
   6   -232.4806457 -0.162985E-03  0.625E-04    0.00      13.5  T
   7   -232.4806425  0.317017E-05  0.303E-03    0.00       2.8  T
   8   -232.4806442 -0.171232E-05  0.208E-03    0.00       4.1  T
   9   -232.4806457 -0.142215E-05  0.537E-04    0.00      15.8  T
  10   -232.4806458 -0.861334E-07  0.217E-04    0.00      39.0  T
  11   -232.4806458 -0.739610E-08  0.162E-04    0.00      52.0  T
     SCC iter.                  ...        0 min,  0.832 sec
     gradient                   ...        0 min,  0.068 sec
 * total energy  :  -228.3682845 Eh     change       -0.1017712E-03 Eh
   gradient norm :     0.0034154 Eh/α   predicted    -0.7172880E-04 ( -29.52%)
   displ. norm   :     0.3049468 α      lambda       -0.1184739E-03
   maximum displ.:     0.1460332 α      in ANC's #5, #4, #12, ...

........................................................................
.............................. CYCLE   37 ..............................
........................................................................

 iter      E             dE          RMSdq      gap      omega  full diag
   1   -232.4800006 -0.232480E+03  0.534E-02    0.01       0.0  T
   2   -232.2962971  0.183703E+00  0.727E-01    0.22       1.0  T
   3   -232.4805637 -0.184267E+00  0.222E-02    0.00       1.0  T
   4   -232.4800921  0.471625E-03  0.389E-02    0.01       1.0  T
   5   -232.4805841 -0.492078E-03  0.803E-03    0.00       1.1  T
   6   -232.4805403  0.437842E-04  0.134E-02    0.00       1.0  T
   7   -232.4806032 -0.628593E-04  0.723E-04    0.00      11.7  T
   8   -232.4806023  0.945715E-06  0.177E-03    0.00       4.8  T
   9   -232.4806031 -0.868732E-06  0.836E-04    0.00      10.1  T
  10   -232.4806034 -0.222315E-06  0.273E-04    0.00      31.0  T
     SCC iter.                  ...        0 min,  1.055 sec
     gradient                   ...        0 min,  0.069 sec
 * total energy  :  -228.3683780 Eh     change       -0.9346847E-04 Eh
   gradient norm :     0.0037375 Eh/α   predicted    -0.6474681E-04 ( -30.73%)
   displ. norm   :     0.3213771 α      lambda       -0.1160706E-03
   maximum displ.:     0.1532627 α      in ANC's #5, #4, #12, ...

........................................................................
.............................. CYCLE   38 ..............................
........................................................................

 iter      E             dE          RMSdq      gap      omega  full diag
   1   -232.4803105 -0.232480E+03  0.503E-02    0.01       0.0  T
   2   -232.3044574  0.175853E+00  0.709E-01    0.19       1.0  T
   3   -232.4807648 -0.176307E+00  0.205E-02    0.00       1.0  T
   4   -232.4807654 -0.609183E-06  0.671E-03    0.00       1.3  T
   5   -232.4806776  0.877927E-04  0.162E-02    0.00       1.0  T
   6   -232.4807564 -0.788103E-04  0.680E-03    0.00       1.2  T
   7   -232.4807710 -0.145310E-04  0.196E-03    0.00       4.3  T
   8   -232.4807695  0.145988E-05  0.281E-03    0.00       3.0  T
   9   -232.4807723 -0.278756E-05  0.300E-04    0.00      28.1  T
  10   -232.4807723 -0.252257E-07  0.128E-04    0.00      66.1  T
  11   -232.4807723  0.565817E-08  0.180E-04    0.00      47.1  T
     SCC iter.                  ...        0 min,  0.990 sec
     gradient                   ...        0 min,  0.071 sec
 * total energy  :  -228.3684694 Eh     change       -0.9140840E-04 Eh
   gradient norm :     0.0035006 Eh/α   predicted    -0.6403328E-04 ( -29.95%)
   displ. norm   :     0.3329463 α      lambda       -0.1081077E-03
   maximum displ.:     0.1581653 α      in ANC's #5, #4, #12, ...

........................................................................
.............................. CYCLE   39 ..............................
........................................................................

 iter      E             dE          RMSdq      gap      omega  full diag
   1   -232.4810044 -0.232481E+03  0.409E-02    0.00       0.0  T
   2   -232.3743484  0.106656E+00  0.549E-01    0.10       1.0  T
   3   -232.4805214 -0.106173E+00  0.463E-02    0.01       1.0  T
   4   -232.4809489 -0.427502E-03  0.228E-02    0.00       1.0  T
   5   -232.4811231 -0.174238E-03  0.477E-03    0.00       1.8  T
   6   -232.4811244 -0.123459E-05  0.406E-03    0.00       2.1  T
   7   -232.4811303 -0.589934E-05  0.207E-04    0.00      40.8  T
   8   -232.4811295  0.765126E-06  0.146E-03    0.00       5.8  T
   9   -232.4811303 -0.763887E-06  0.107E-04    0.00      78.9  T
  10   -232.4811302  0.164004E-07  0.238E-04    0.00      35.4  T
     SCC iter.                  ...        0 min,  1.609 sec
     gradient                   ...        0 min,  0.094 sec
 * total energy  :  -228.3685533 Eh     change       -0.8390354E-04 Eh
   gradient norm :     0.0028547 Eh/α   predicted    -0.6004859E-04 ( -28.43%)
   displ. norm   :     0.3290449 α      lambda       -0.9244197E-04
   maximum displ.:     0.1560462 α      in ANC's #5, #4, #12, ...

........................................................................
.............................. CYCLE   40 ..............................
........................................................................

 iter      E             dE          RMSdq      gap      omega  full diag
   1   -232.4815876 -0.232482E+03  0.368E-02    0.00       0.0  T
   2   -232.4715558  0.100318E-01  0.169E-01    0.02       1.0  T
   3   -232.4758468 -0.429108E-02  0.129E-01    0.02       1.0  T
   4   -232.4815915 -0.574467E-02  0.458E-03    0.00       1.8  T
   5   -232.4815953 -0.379613E-05  0.148E-03    0.00       5.7  T
   6   -232.4815959 -0.615365E-06  0.442E-04    0.00      19.1  T
   7   -232.4815959 -0.290603E-07  0.192E-04    0.00      44.0  T
     SCC iter.                  ...        0 min,  1.822 sec
     gradient                   ...        0 min,  0.078 sec
 * total energy  :  -228.3686251 Eh     change       -0.7180678E-04 Eh
   gradient norm :     0.0026321 Eh/α   predicted    -0.5122967E-04 ( -28.66%)
   displ. norm   :     0.3223585 α      lambda       -0.8197165E-04
   maximum displ.:     0.1514678 α      in ANC's #5, #4, #3, ...

........................................................................
.............................. CYCLE   41 ..............................
........................................................................

 iter      E             dE          RMSdq      gap      omega  full diag
   1   -232.4819838 -0.232482E+03  0.372E-02    0.00       0.0  T
   2   -232.4684304  0.135534E-01  0.196E-01    0.03       1.0  T
   3   -232.4789262 -0.104958E-01  0.949E-02    0.01       1.0  T
   4   -232.4819516 -0.302542E-02  0.113E-02    0.00       1.0  T
   5   -232.4819947 -0.430618E-04  0.115E-03    0.00       7.4  T
   6   -232.4819948 -0.119362E-06  0.770E-04    0.00      11.0  T
   7   -232.4819949 -0.170076E-06  0.198E-04    0.00      42.8  T
     SCC iter.                  ...        0 min,  0.713 sec
     gradient                   ...        0 min,  0.067 sec
 * total energy  :  -228.3686897 Eh     change       -0.6457400E-04 Eh
   gradient norm :     0.0028245 Eh/α   predicted    -0.4524972E-04 ( -29.93%)
   displ. norm   :     0.3348560 α      lambda       -0.8136021E-04
   maximum displ.:     0.1553769 α      in ANC's #5, #4, #3, ...

........................................................................
.............................. CYCLE   42 ..............................
........................................................................

 iter      E             dE          RMSdq      gap      omega  full diag
   1   -232.4821607 -0.232482E+03  0.391E-02    0.00       0.0  T
   2   -232.4810024  0.115828E-02  0.617E-02    0.01       1.0  T
   3   -232.4415193  0.394831E-01  0.338E-01    0.05       1.0  T
   4   -232.4821544 -0.406351E-01  0.568E-03    0.00       1.5  T
   5   -232.4821566 -0.216519E-05  0.417E-03    0.00       2.0  T
   6   -232.4821625 -0.588760E-05  0.782E-04    0.00      10.8  T
   7   -232.4821625 -0.582942E-07  0.599E-04    0.00      14.1  T
   8   -232.4821627 -0.111459E-06  0.128E-04    0.00      65.9  T
     SCC iter.                  ...        0 min,  0.573 sec
     gradient                   ...        0 min,  0.068 sec
 * total energy  :  -228.3687535 Eh     change       -0.6380301E-04 Eh
   gradient norm :     0.0029037 Eh/α   predicted    -0.4524663E-04 ( -29.08%)
   displ. norm   :     0.3215688 α      lambda       -0.7422631E-04
   maximum displ.:     0.1468783 α      in ANC's #4, #5, #3, ...
 * RMSD in coord.:     0.6519035 α      energy gain  -0.7597851E-02 Eh

generating ANC from model Hessian ...
Using Lindh-Hessian (1995)
 Shifting diagonal of input Hessian by    1.0012109566731903E-002
 Lowest  eigenvalues of input Hessian
    0.010000    0.000000    0.000000    0.000000    0.000000    0.000000
    0.000000    0.010042    0.010078    0.010098    0.010172    0.010196
    0.010283    0.010358    0.010467    0.010662    0.010736    0.010875
 Highest eigenvalues
    2.157921    2.161514    2.294205    2.296905    2.531053    2.534364


........................................................................
.............................. CYCLE   43 ..............................
........................................................................

 iter      E             dE          RMSdq      gap      omega  full diag
   1   -232.4820726 -0.232482E+03  0.392E-02    0.00       0.0  T
   2   -232.4397789  0.422937E-01  0.345E-01    0.05       1.0  T
   3   -232.4800220 -0.402431E-01  0.797E-02    0.01       1.0  T
   4   -232.4820955 -0.207341E-02  0.697E-03    0.00       1.2  T
   5   -232.4821022 -0.679082E-05  0.437E-03    0.00       1.9  T
   6   -232.4821086 -0.632359E-05  0.842E-04    0.00      10.0  T
   7   -232.4821088 -0.200279E-06  0.252E-04    0.00      33.5  T
   8   -232.4821087  0.218625E-07  0.300E-04    0.00      28.2  T
     SCC iter.                  ...        0 min,  0.703 sec
     gradient                   ...        0 min,  0.069 sec
 * total energy  :  -228.3688108 Eh     change       -0.5732204E-04 Eh
   gradient norm :     0.0026063 Eh/α   predicted     0.0000000E+00 (-100.00%)
   displ. norm   :     0.0351513 α      lambda       -0.1111945E-04
   maximum displ.:     0.0154609 α      in ANC's #9, #21, #19, ...

........................................................................
.............................. CYCLE   44 ..............................
........................................................................

 iter      E             dE          RMSdq      gap      omega  full diag
   1   -232.4820422 -0.232482E+03  0.129E-02    0.00       0.0  T
   2   -232.4334438  0.485984E-01  0.369E-01    0.06       1.0  T
   3   -232.4820696 -0.486258E-01  0.744E-03    0.00       1.1  T
   4   -232.4820808 -0.112442E-04  0.330E-03    0.00       2.6  T
   5   -232.4820723  0.854689E-05  0.561E-03    0.00       1.5  T
   6   -232.4820834 -0.111510E-04  0.867E-04    0.00       9.7  T
   7   -232.4820837 -0.259553E-06  0.227E-04    0.00      37.2  T
   8   -232.4820837 -0.121463E-07  0.129E-04    0.00      65.7  T
     SCC iter.                  ...        0 min,  0.750 sec
     gradient                   ...        0 min,  0.066 sec
 * total energy  :  -228.3688310 Eh     change       -0.2019097E-04 Eh
   gradient norm :     0.0014926 Eh/α   predicted    -0.1164972E-04 ( -42.30%)
   displ. norm   :     0.2002120 α      lambda       -0.6066819E-04
   maximum displ.:     0.0896712 α      in ANC's #9, #21, #19, ...

........................................................................
.............................. CYCLE   45 ..............................
........................................................................

 iter      E             dE          RMSdq      gap      omega  full diag
   1   -232.4808474 -0.232481E+03  0.617E-02    0.01       0.0  T
   2   -232.2872272  0.193620E+00  0.748E-01    0.27       1.0  T
   3   -232.4813382 -0.194111E+00  0.399E-02    0.00       1.0  T
   4   -232.4767652  0.457300E-02  0.120E-01    0.02       1.0  T
   5   -232.4807616 -0.399638E-02  0.534E-02    0.01       1.0  T
   6   -232.4817381 -0.976454E-03  0.667E-03    0.00       1.3  T
   7   -232.4817535 -0.154659E-04  0.696E-04    0.00      12.1  T
   8   -232.4817528  0.700340E-06  0.157E-03    0.00       5.4  T
   9   -232.4817536 -0.798031E-06  0.462E-04    0.00      18.3  T
  10   -232.4817537 -0.727233E-07  0.104E-04    0.00      81.3  T
     SCC iter.                  ...        0 min,  0.737 sec
     gradient                   ...        0 min,  0.068 sec
 * total energy  :  -228.3688697 Eh     change       -0.3867545E-04 Eh
   gradient norm :     0.0031096 Eh/α   predicted    -0.3087468E-04 ( -20.17%)
   displ. norm   :     0.0270882 α      lambda       -0.1415759E-04
   maximum displ.:     0.0126414 α      in ANC's #9, #6, #3, ...

........................................................................
.............................. CYCLE   46 ..............................
........................................................................

 iter      E             dE          RMSdq      gap      omega  full diag
   1   -232.4818788 -0.232482E+03  0.863E-03    0.00       0.0  T
   2   -232.4569231  0.249557E-01  0.265E-01    0.04       1.0  T
   3   -232.4818964 -0.249733E-01  0.346E-03    0.00       2.4  T
   4   -232.4818958  0.581709E-06  0.288E-03    0.00       2.9  T
   5   -232.4818947  0.109445E-05  0.319E-03    0.00       2.7  T
   6   -232.4818982 -0.353295E-05  0.645E-04    0.00      13.1  T
   7   -232.4818984 -0.151395E-06  0.465E-05    0.00     181.9  T
   8   -232.4818984  0.150175E-08  0.771E-05    0.00     109.7  T
     SCC iter.                  ...        0 min,  0.760 sec
     gradient                   ...        0 min,  0.068 sec
 * total energy  :  -228.3688826 Eh     change       -0.1289049E-04 Eh
   gradient norm :     0.0022555 Eh/α   predicted    -0.7084305E-05 ( -45.04%)
   displ. norm   :     0.1674046 α      lambda       -0.5987692E-04
   maximum displ.:     0.0776677 α      in ANC's #9, #6, #3, ...

........................................................................
.............................. CYCLE   47 ..............................
........................................................................

 iter      E             dE          RMSdq      gap      omega  full diag
   1   -232.4818382 -0.232482E+03  0.367E-02    0.00       0.0  T
   2   -232.3336143  0.148224E+00  0.649E-01    0.15       1.0  T
   3   -232.4821095 -0.148495E+00  0.140E-02    0.00       1.0  T
   4   -232.4821075  0.194712E-05  0.484E-03    0.00       1.7  T
   5   -232.4820094  0.980787E-04  0.166E-02    0.00       1.0  T
   6   -232.4821078 -0.983325E-04  0.261E-03    0.00       3.2  T
   7   -232.4821091 -0.131930E-05  0.166E-03    0.00       5.1  T
   8   -232.4821095 -0.375421E-06  0.130E-03    0.00       6.5  T
   9   -232.4821100 -0.564556E-06  0.321E-04    0.00      26.3  T
  10   -232.4821101 -0.286328E-07  0.154E-04    0.00      54.8  T
     SCC iter.                  ...        0 min,  1.039 sec
     gradient                   ...        0 min,  0.066 sec
 * total energy  :  -228.3689227 Eh     change       -0.4012069E-04 Eh
   gradient norm :     0.0013665 Eh/α   predicted    -0.3079301E-04 ( -23.25%)
   displ. norm   :     0.2364201 α      lambda       -0.2587024E-04
   maximum displ.:     0.1123668 α      in ANC's #9, #6, #3, ...

........................................................................
.............................. CYCLE   48 ..............................
........................................................................

 iter      E             dE          RMSdq      gap      omega  full diag
   1   -232.4817339 -0.232482E+03  0.362E-02    0.00       0.0  T
   2   -232.3727293  0.109005E+00  0.556E-01    0.11       1.0  T
   3   -232.4817900 -0.109061E+00  0.230E-02    0.00       1.0  T
   4   -232.4818307 -0.406936E-04  0.109E-02    0.00       1.0  T
   5   -232.4818368 -0.612919E-05  0.969E-03    0.00       1.0  T
   6   -232.4818687 -0.319441E-04  0.196E-03    0.00       4.3  T
   7   -232.4818700 -0.129629E-05  0.494E-04    0.00      17.1  T
   8   -232.4818701 -0.360910E-07  0.354E-04    0.00      23.9  T
   9   -232.4818701 -0.347333E-07  0.169E-04    0.00      49.9  T
     SCC iter.                  ...        0 min,  0.655 sec
     gradient                   ...        0 min,  0.066 sec
 * total energy  :  -228.3689500 Eh     change       -0.2733741E-04 Eh
   gradient norm :     0.0026579 Eh/α   predicted    -0.1325675E-04 ( -51.51%)
   displ. norm   :     0.1473511 α      lambda       -0.2473996E-04
   maximum displ.:     0.0700998 α      in ANC's #9, #6, #3, ...

........................................................................
.............................. CYCLE   49 ..............................
........................................................................

 iter      E             dE          RMSdq      gap      omega  full diag
[...]
                            55 C    0.106
    59   6 C    3.959 --    58 C    1.450    54 C    1.372    64 H    0.964
                            56 C    0.105
    60   1 H    0.996 --    55 C    0.964
    61   1 H    0.998 --    56 C    0.970
    62   1 H    0.998 --    57 C    0.971
    63   1 H    0.997 --    58 C    0.970
    64   1 H    0.996 --    59 C    0.964
    65   1 H    0.996 --    49 C    0.965
    66   1 H    0.998 --    50 C    0.969
    67   1 H    0.998 --    51 C    0.970
    68   1 H    0.998 --    52 C    0.970
    69   1 H    0.997 --    53 C    0.965
    70   1 H    0.996 --    25 C    0.965
    71   6 C    3.987 --    74 C    1.299    72 C    1.220    73 C    1.214
    72   6 C    3.983 --    75 C    1.325    71 C    1.220    77 C    1.175
    73   6 C    3.985 --    76 C    1.327    71 C    1.214    78 C    1.175
    74   6 C    3.981 --    71 C    1.299    81 C    1.248    82 C    1.245
    75   6 C    3.987 --    72 C    1.325    83 C    1.247    85 C    1.223
    76   6 C    3.987 --    73 C    1.327    84 C    1.246    86 C    1.222
    77   6 C    3.988 --    89 C    1.329    79 C    1.272    72 C    1.175
    78   6 C    3.988 --    90 C    1.315    80 C    1.277    73 C    1.175
    79   6 C    3.982 --    91 C    1.294    77 C    1.272    87 C    1.225
    80   6 C    3.987 --    92 C    1.306    78 C    1.277    88 C    1.219
    81   6 C    3.981 --    83 C    1.594    74 C    1.248    97 H    0.967
    82   6 C    3.980 --    84 C    1.593    74 C    1.245    98 H    0.966
    83   6 C    3.976 --    81 C    1.594    75 C    1.247    99 H    0.967
    84   6 C    3.975 --    82 C    1.593    76 C    1.246   100 H    0.967
    85   6 C    3.979 --    87 C    1.621    75 C    1.223   101 H    0.967
    86   6 C    3.988 --    88 C    1.625    76 C    1.222   102 H    0.966
    87   6 C    3.980 --    85 C    1.621    79 C    1.225   103 H    0.967
    88   6 C    3.982 --    86 C    1.625    80 C    1.219   104 H    0.968
    89   6 C    3.982 --    93 C    1.450    77 C    1.329   105 H    0.952
                            91 C    0.102
    90   6 C    3.991 --    94 C    1.520    78 C    1.315   106 H    0.964
                            92 C    0.112
    91   6 C    3.983 --    95 C    1.545    79 C    1.294   107 H    0.967
                            89 C    0.102
    92   6 C    3.985 --    96 C    1.526    80 C    1.306   108 H    0.968
                            90 C    0.112
    93   6 C    3.980 --    89 C    1.450    95 C    1.297   111 C    1.047
    94   6 C    3.987 --    90 C    1.520    96 C    1.349   109 H    0.971
    95   6 C    3.978 --    91 C    1.545    93 C    1.297   140 H    0.966
    96   6 C    3.983 --    92 C    1.526    94 C    1.349   110 H    0.971
    97   1 H    0.998 --    81 C    0.967
    98   1 H    0.998 --    82 C    0.966
    99   1 H    0.998 --    83 C    0.967
   100   1 H    0.998 --    84 C    0.967
   101   1 H    0.998 --    85 C    0.967
   102   1 H    0.998 --    86 C    0.966
   103   1 H    0.997 --    87 C    0.967
   104   1 H    0.998 --    88 C    0.968
   105   1 H    0.996 --    89 C    0.952
   106   1 H    0.999 --    90 C    0.964
   107   1 H    0.998 --    91 C    0.967
   108   1 H    0.999 --    92 C    0.968
   109   1 H    0.999 --    94 C    0.971
   110   1 H    0.998 --    96 C    0.971
   111   6 C    3.966 --   112 N    1.387   116 N    1.379    93 C    1.047
   112   7 N    2.715 --   111 C    1.387   113 N    1.117
   113   7 N    3.496 --   112 N    1.117   114 C    1.099   124 C    1.033
                           117 O    0.127
   114   6 C    3.959 --   117 O    1.632   113 N    1.099   115 N    1.091
   115   7 N    3.500 --   116 N    1.120   114 C    1.091   118 C    1.043
                           117 O    0.123
   116   7 N    2.715 --   111 C    1.379   115 N    1.120
   117   8 O    1.997 --   114 C    1.632   113 N    0.127   115 N    0.123
   118   6 C    3.951 --   119 C    1.370   123 C    1.358   115 N    1.043
   119   6 C    3.957 --   120 C    1.451   118 C    1.370   135 H    0.963
                           122 C    0.104
   120   6 C    3.990 --   119 C    1.451   121 C    1.432   136 H    0.970
                           123 C    0.106
   121   6 C    3.960 --   120 C    1.432   122 C    1.425   137 H    0.971
   122   6 C    3.991 --   123 C    1.461   121 C    1.425   138 H    0.970
                           119 C    0.104
   123   6 C    3.957 --   122 C    1.461   118 C    1.358   139 H    0.958
                           120 C    0.106
   124   6 C    3.951 --   129 C    1.375   125 C    1.365   113 N    1.033
   125   6 C    3.961 --   126 C    1.461   124 C    1.365   130 H    0.964
                           128 C    0.107
   126   6 C    3.991 --   125 C    1.461   127 C    1.425   131 H    0.970
                           129 C    0.106
   127   6 C    3.964 --   128 C    1.435   126 C    1.425   132 H    0.971
   128   6 C    3.990 --   129 C    1.449   127 C    1.435   133 H    0.970
                           125 C    0.107
   129   6 C    3.960 --   128 C    1.449   124 C    1.375   134 H    0.964
                           126 C    0.106
   130   1 H    0.997 --   125 C    0.964
   131   1 H    0.998 --   126 C    0.970
   132   1 H    0.998 --   127 C    0.971
   133   1 H    0.997 --   128 C    0.970
   134   1 H    0.996 --   129 C    0.964
   135   1 H    0.995 --   119 C    0.963
   136   1 H    0.998 --   120 C    0.970
   137   1 H    0.998 --   121 C    0.971
   138   1 H    0.998 --   122 C    0.970
   139   1 H    0.996 --   123 C    0.958
   140   1 H    0.996 --    95 C    0.966
 ---------------------------------------------------------------------------

Topologies differ in bond orders
Writing corrected topology to xtbtopo.mol

molecular dipole:
                 x           y           z       tot (Debye)
 q only:       -0.848       1.080      -0.431
   full:       -0.696       0.879      -0.339       2.978
molecular quadrupole (traceless):
                xx          xy          yy          xz          yz          zz
 q only:       18.328      15.450      -4.701      -8.556       0.729     -13.627
  q+dip:       26.709      20.145      -0.614       1.920     -16.708     -26.095
   full:       15.748      16.006      -3.909      -4.436      -1.071     -11.839

           -------------------------------------------------
          |                Geometry Summary                 |
           -------------------------------------------------

      molecular mass/u    :     1155.3083450
   center of mass at/Å    :       -0.1548623       0.2130054       2.7465614
  moments of inertia/u·Å² :        0.1841848E+05   0.2034316E+05   0.2972219E+05
rotational constants/cm⁻¹ :        0.9152566E-03   0.8286634E-03   0.5671732E-03

 * 148 selected distances

     #   Z          #   Z                                           value/Å
     1   6 C        3   6 C                                       1.4339854 (max)
     1   6 C        4   6 C                                       1.4152920
     2   6 C        5   6 C                                       1.4087391
     3   6 C        6   6 C                                       1.4070036
     7   6 C        9   6 C                                       1.4170643
     8   6 C       10   6 C                                       1.4144781
     4   6 C       11   6 C                                       1.4148904
     4   6 C       12   6 C                                       1.4139506
     5   6 C       13   6 C                                       1.4155591
    11   6 C       13   6 C                                       1.3572277
     6   6 C       14   6 C                                       1.4141729
    12   6 C       14   6 C                                       1.3574167
     5   6 C       15   6 C                                       1.4203877
     6   6 C       16   6 C                                       1.4197125
     9   6 C       17   6 C                                       1.4187948
    15   6 C       17   6 C                                       1.3549341
    10   6 C       18   6 C                                       1.4196879
    16   6 C       18   6 C                                       1.3536705
     7   6 C       19   6 C                                       1.4026151
     8   6 C       20   6 C                                       1.4049428
     9   6 C       21   6 C                                       1.4075619
    10   6 C       22   6 C                                       1.4044612
    19   6 C       23   6 C                                       1.3788426
    20   6 C       24   6 C                                       1.3702859
    21   6 C       25   6 C                                       1.3661830
    23   6 C       25   6 C                                       1.4052815
    22   6 C       26   6 C                                       1.3688534
    24   6 C       26   6 C                                       1.3972443
    11   6 C       27   1 H                                       1.0807272
    12   6 C       28   1 H                                       1.0807042
    13   6 C       29   1 H                                       1.0803823
    14   6 C       30   1 H                                       1.0799424
    15   6 C       31   1 H                                       1.0807984
    16   6 C       32   1 H                                       1.0805955
    17   6 C       33   1 H                                       1.0804418
    18   6 C       34   1 H                                       1.0796297
    19   6 C       35   1 H                                       1.0762822
    20   6 C       36   1 H                                       1.0791746
    21   6 C       37   1 H                                       1.0808187
    22   6 C       38   1 H                                       1.0811944
    24   6 C       39   1 H                                       1.0799077
    26   6 C       40   1 H                                       1.0802253
    41   6 C       42   7 N                                       1.3194255
    42   7 N       43   7 N                                       1.3506732
    43   7 N       44   6 C                                       1.3885202
    44   6 C       45   7 N                                       1.3891817
    41   6 C       46   7 N                                       1.3216908
    45   7 N       46   7 N                                       1.3514589
    44   6 C       47   8 O                                       1.2094959
    45   7 N       48   6 C                                       1.4089570
    48   6 C       49   6 C                                       1.3930048
    49   6 C       50   6 C                                       1.3831826
    50   6 C       51   6 C                                       1.3853145
    51   6 C       52   6 C                                       1.3858226
    48   6 C       53   6 C                                       1.3935728
    52   6 C       53   6 C                                       1.3804347
    43   7 N       54   6 C                                       1.4084094
    54   6 C       55   6 C                                       1.3945896
    55   6 C       56   6 C                                       1.3797218
    56   6 C       57   6 C                                       1.3861082
    57   6 C       58   6 C                                       1.3848059
    54   6 C       59   6 C                                       1.3918725
    58   6 C       59   6 C                                       1.3829157
    55   6 C       60   1 H                                       1.0783397
    56   6 C       61   1 H                                       1.0798313
    57   6 C       62   1 H                                       1.0796153
    58   6 C       63   1 H                                       1.0796311
    59   6 C       64   1 H                                       1.0766768
    49   6 C       65   1 H                                       1.0773729
    50   6 C       66   1 H                                       1.0801516
    51   6 C       67   1 H                                       1.0794775
    52   6 C       68   1 H                                       1.0795115
    53   6 C       69   1 H                                       1.0783044
    25   6 C       70   1 H                                       1.0779266
    71   6 C       72   6 C                                       1.4333308
    71   6 C       74   6 C                                       1.4143597
    72   6 C       75   6 C                                       1.4075867
    73   6 C       76   6 C                                       1.4076393
    77   6 C       79   6 C                                       1.4151955
    78   6 C       80   6 C                                       1.4156580
    74   6 C       81   6 C                                       1.4145675
    74   6 C       82   6 C                                       1.4150032
    75   6 C       83   6 C                                       1.4145281
    81   6 C       83   6 C                                       1.3574229
    76   6 C       84   6 C                                       1.4147413
    82   6 C       84   6 C                                       1.3576246
    75   6 C       85   6 C                                       1.4209054
    76   6 C       86   6 C                                       1.4210628
    79   6 C       87   6 C                                       1.4188041
    85   6 C       87   6 C                                       1.3550984
    80   6 C       88   6 C                                       1.4203315
    86   6 C       88   6 C                                       1.3541237
    77   6 C       89   6 C                                       1.3988945
    78   6 C       90   6 C                                       1.4056613
    79   6 C       91   6 C                                       1.4075956
    80   6 C       92   6 C                                       1.4049263
    89   6 C       93   6 C                                       1.3776283
    90   6 C       94   6 C                                       1.3708054
    91   6 C       95   6 C                                       1.3669403
    93   6 C       95   6 C                                       1.4045805
    92   6 C       96   6 C                                       1.3696766
    94   6 C       96   6 C                                       1.3974095
    81   6 C       97   1 H                                       1.0802163
    82   6 C       98   1 H                                       1.0798748
    83   6 C       99   1 H                                       1.0805389
    84   6 C      100   1 H                                       1.0808678
    85   6 C      101   1 H                                       1.0808573
    86   6 C      102   1 H                                       1.0806746
    87   6 C      103   1 H                                       1.0804411
    88   6 C      104   1 H                                       1.0804985
    89   6 C      105   1 H                                       1.0753335 (min)
    90   6 C      106   1 H                                       1.0792733
    91   6 C      107   1 H                                       1.0809142
    92   6 C      108   1 H                                       1.0812985
    94   6 C      109   1 H                                       1.0800796
    96   6 C      110   1 H                                       1.0802741
   111   6 C      112   7 N                                       1.3192946
   112   7 N      113   7 N                                       1.3526779
   113   7 N      114   6 C                                       1.3876675
   114   6 C      115   7 N                                       1.3901124
   111   6 C      116   7 N                                       1.3205527
   115   7 N      116   7 N                                       1.3509889
   114   6 C      117   8 O                                       1.2103686
Note: The following floating-point exceptions are signalling: IEEE_UNDERFLOW_FLAG
normal termination of xtb
   115   7 N      118   6 C                                       1.4074565
   118   6 C      119   6 C                                       1.3926065
   119   6 C      120   6 C                                       1.3830353
   120   6 C      121   6 C                                       1.3849684
   121   6 C      122   6 C                                       1.3856365
   118   6 C      123   6 C                                       1.3949962
   122   6 C      123   6 C                                       1.3791977
   113   7 N      124   6 C                                       1.4097798
   124   6 C      125   6 C                                       1.3940234
   125   6 C      126   6 C                                       1.3798700
   126   6 C      127   6 C                                       1.3860889
   127   6 C      128   6 C                                       1.3847089
   124   6 C      129   6 C                                       1.3913745
   128   6 C      129   6 C                                       1.3829139
   125   6 C      130   1 H                                       1.0785494
   126   6 C      131   1 H                                       1.0798278
   127   6 C      132   1 H                                       1.0795524
   128   6 C      133   1 H                                       1.0795336
   129   6 C      134   1 H                                       1.0766368
   119   6 C      135   1 H                                       1.0764287
   120   6 C      136   1 H                                       1.0797120
   121   6 C      137   1 H                                       1.0797365
   122   6 C      138   1 H                                       1.0798662
   123   6 C      139   1 H                                       1.0763053
    95   6 C      140   1 H                                       1.0783292

 * 5 distinct bonds (by element types)

   Z      Z             #   av. dist./Å        max./Å        min./Å
   1 H    6 C          50     1.0794657     1.0812985     1.0753335
   6 C    6 C          80     1.3950763     1.4339854     1.3536705
   6 C    7 N          12     1.3725873     1.4097798     1.3192946
   7 N    7 N           4     1.3514498     1.3526779     1.3506732
   6 C    8 O           2     1.2099323     1.2103686     1.2094959


optimized geometry written to: xtbopt.mol


           -------------------------------------------------
          | TOTAL ENERGY             -228.373412869079 Eh   |
          | GRADIENT NORM               0.000306733583 Eh/α |
          | HOMO-LUMO GAP               0.009838613689 eV   |
           -------------------------------------------------
########################################################################
[WARNING] Runtime exception occurred
-1- restart_readRestart: Number of electron missmatch in restart file.
########################################################################

------------------------------------------------------------------------
 * finished run on 2024/11/14 at 15:45:01.335     
------------------------------------------------------------------------
 total:
 * wall-time:     0 d,  0 h,  2 min, 32.703 sec
 *  cpu-time:     0 d,  0 h,  9 min, 28.149 sec
 * ratio c/w:     3.721 speedup
 SCF:
 * wall-time:     0 d,  0 h,  0 min,  1.995 sec
 *  cpu-time:     0 d,  0 h,  0 min,  7.372 sec
 * ratio c/w:     3.694 speedup
 ANC optimizer:
 * wall-time:     0 d,  0 h,  2 min, 30.657 sec
 *  cpu-time:     0 d,  0 h,  9 min, 20.722 sec
 * ratio c/w:     3.722 speedup

