      -----------------------------------------------------------      
     |                   =====================                   |     
     |                           x T B                           |     
     |                   =====================                   |     
     |                         S. Grimme                         |     
     |          Mulliken Center for Theoretical Chemistry        |     
     |                    University of Bonn                     |     
      -----------------------------------------------------------      

   * xtb version 6.6.1 (8d0f1dd) compiled by 'runner@Mac-1690902418499.local' on 2023-08-01

   xtb is free software: you can redistribute it and/or modify it under
   the terms of the GNU Lesser General Public License as published by
   the Free Software Foundation, either version 3 of the License, or
   (at your option) any later version.
   
   xtb is distributed in the hope that it will be useful,
   but WITHOUT ANY WARRANTY; without even the implied warranty of
   MERCHANTABILITY or FITNESS FOR A PARTICULAR PURPOSE.  See the
   GNU Lesser General Public License for more details.
   
   Cite this work as:
   * C. Bannwarth, E. Caldeweyher, S. Ehlert, A. Hansen, P. Pracht,
     J. Seibert, S. Spicher, S. Grimme, WIREs Comput. Mol. Sci., 2020, 11,
     e01493. DOI: 10.1002/wcms.1493
   
   for GFN2-xTB:
   * C. Bannwarth, S. Ehlert and S. Grimme., J. Chem. Theory Comput., 2019,
     15, 1652-1671. DOI: 10.1021/acs.jctc.8b01176
   for GFN1-xTB:
   * S. Grimme, C. Bannwarth, P. Shushkov, J. Chem. Theory Comput., 2017,
     13, 1989-2009. DOI: 10.1021/acs.jctc.7b00118
   for GFN0-xTB:
   * P. Pracht, E. Caldeweyher, S. Ehlert, S. Grimme, ChemRxiv, 2019, preprint.
     DOI: 10.26434/chemrxiv.8326202.v1
   for GFN-FF:
   * S. Spicher and S. Grimme, Angew. Chem. Int. Ed., 2020, 59, 15665-15673.
     DOI: 10.1002/anie.202004239
   
   for ALPB and GBSA implicit solvation:
   * S. Ehlert, M. Stahn, S. Spicher, S. Grimme, J. Chem. Theory Comput.,
     2021, 17, 4250-4261. DOI: 10.1021/acs.jctc.1c00471
   
   for DFT-D4:
   * E. Caldeweyher, C. Bannwarth and S. Grimme, J. Chem. Phys., 2017,
     147, 034112. DOI: 10.1063/1.4993215
   * E. Caldeweyher, S. Ehlert, A. Hansen, H. Neugebauer, S. Spicher,
     C. Bannwarth and S. Grimme, J. Chem. Phys., 2019, 150, 154122.
     DOI: 10.1063/1.5090222
   * E. Caldeweyher, J.-M. Mewes, S. Ehlert and S. Grimme, Phys. Chem. Chem. Phys.
     2020, 22, 8499-8512. DOI: 10.1039/D0CP00502A
   
   for sTDA-xTB:
   * S. Grimme and C. Bannwarth, J. Chem. Phys., 2016, 145, 054103.
     DOI: 10.1063/1.4959605
   
   in the mass-spec context:
   * V. Asgeirsson, C. Bauer and S. Grimme, Chem. Sci., 2017, 8, 4879.
     DOI: 10.1039/c7sc00601b
   * J. Koopman and S. Grimme, ACS Omega 2019, 4, 12, 15120-15133.
     DOI: 10.1021/acsomega.9b02011
   
   for metadynamics refer to:
   * S. Grimme, J. Chem. Theory Comput., 2019, 155, 2847-2862
     DOI: 10.1021/acs.jctc.9b00143
   
   for SPH calculations refer to:
   * S. Spicher and S. Grimme, J. Chem. Theory Comput., 2021, 17, 1701-1714
     DOI: 10.1021/acs.jctc.0c01306
   
   with help from (in alphabetical order)
   P. Atkinson, C. Bannwarth, F. Bohle, G. Brandenburg, E. Caldeweyher
   M. Checinski, S. Dohm, S. Ehlert, S. Ehrlich, I. Gerasimov, C. Hölzer
   A. Katbashev, J. Koopman, C. Lavigne, S. Lehtola, F. März, M. Müller,
   F. Musil, H. Neugebauer, J. Pisarek, C. Plett, P. Pracht, F. Pultar,
   J. Seibert, P. Shushkov, S. Spicher, M. Stahn, M. Steiner, T. Strunk,
   J. Stückrath, T. Rose, and J. Unsleber
   
 * started run on 2024/11/14 at 15:17:34.658     

           -------------------------------------------------
          |                Calculation Setup                |
           -------------------------------------------------

          program call               : xtb Verdazyl2.mol --opt --gfn2 --chrg 0 --uhf 1 --tight
          coordinate file            : Verdazyl2.mol
          omp threads                :                     8

   ID    Z sym.   atoms
    1    6 C      1-26, 41, 44, 48-59
    2    1 H      27-40, 60-70
    3    7 N      42, 43, 45, 46
    4    8 O      47
########################################################################
[WARNING] Please study the warnings concerning your input carefully
-1- prog_main_parseArguments: Unknown option '--tight' provided
########################################################################

           -------------------------------------------------
          |                 G F N 2 - x T B                 |
           -------------------------------------------------

        Reference                      10.1021/acs.jctc.8b01176
      * Hamiltonian:
        H0-scaling (s, p, d)           1.850000    2.230000    2.230000
        zeta-weighting                 0.500000
      * Dispersion:
        s8                             2.700000
        a1                             0.520000
        a2                             5.000000
        s9                             5.000000
      * Repulsion:
        kExp                           1.500000    1.000000
        rExp                           1.000000
      * Coulomb:
        alpha                          2.000000
        third order                    shell-resolved
        anisotropic                    true
        a3                             3.000000
        a5                             4.000000
        cn-shift                       1.200000
        cn-exp                         4.000000
        max-rad                        5.000000


          ...................................................
          :                      SETUP                      :
          :.................................................:
          :  # basis functions                 205          :
          :  # atomic orbitals                 205          :
          :  # shells                          115          :
          :  # electrons                       211          :
          :  max. iterations                   250          :
          :  Hamiltonian                  GFN2-xTB          :
          :  restarted?                      false          :
          :  GBSA solvation                  false          :
          :  PC potential                    false          :
          :  electronic temp.          300.0000000     K    :
          :  accuracy                    1.0000000          :
          :  -> integral cutoff          0.2500000E+02      :
          :  -> integral neglect         0.1000000E-07      :
          :  -> SCF convergence          0.1000000E-05 Eh   :
          :  -> wf. convergence          0.1000000E-03 e    :
          :  Broyden damping             0.4000000          :
          ...................................................

 iter      E             dE          RMSdq      gap      omega  full diag
   1   -115.8950347 -0.115895E+03  0.431E+00    0.11       0.0  T
   2   -116.0122566 -0.117222E+00  0.270E+00    1.69       1.0  T
   3   -115.9653246  0.469321E-01  0.129E+00    0.87       1.0  T
   4   -116.0186123 -0.532878E-01  0.504E-01    1.37       1.0  T
   5   -116.0401536 -0.215413E-01  0.175E-01    1.31       1.0  T
   6   -116.0424257 -0.227207E-02  0.672E-02    1.35       1.0  T
   7   -116.0426888 -0.263089E-03  0.244E-02    1.33       1.0  T
   8   -116.0426969 -0.808374E-05  0.137E-02    1.33       1.0  T
   9   -116.0427011 -0.423663E-05  0.541E-03    1.33       2.2  T
  10   -116.0427023 -0.122618E-05  0.194E-03    1.33       6.2  T
  11   -116.0427025 -0.140729E-06  0.782E-04    1.33      15.3  T
  12   -116.0427025 -0.156863E-07  0.379E-04    1.33      31.5  T

   *** convergence criteria satisfied after 12 iterations ***

         #    Occupation            Energy/Eh            Energy/eV
      -------------------------------------------------------------
         1        2.0000           -0.7237957             -19.6955
       ...           ...                  ...                  ...
       100        2.0000           -0.3950119             -10.7488
       101        2.0000           -0.3837339             -10.4419
       102        2.0000           -0.3786824             -10.3045
       103        2.0000           -0.3675178             -10.0007
       104        2.0000           -0.3636981              -9.8967
       105        2.0000           -0.3626468              -9.8681
       106        1.0000           -0.3271084              -8.9011 (HOMO)
       107                         -0.2782336              -7.5711 (LUMO)
       108                         -0.2729099              -7.4263
       109                         -0.2590740              -7.0498
       110                         -0.2492710              -6.7830
       111                         -0.2469913              -6.7210
       ...                                ...                  ...
       205                          0.7166128              19.5000
      -------------------------------------------------------------
                  HL-Gap            0.0488748 Eh            1.3300 eV
             Fermi-level           -0.3237064 Eh           -8.8085 eV

 SCC (total)                   0 d,  0 h,  0 min,  0.581 sec
 SCC setup                      ...        0 min,  0.001 sec (  0.150%)
 Dispersion                     ...        0 min,  0.001 sec (  0.161%)
 classical contributions        ...        0 min,  0.000 sec (  0.046%)
 integral evaluation            ...        0 min,  0.004 sec (  0.617%)
 iterations                     ...        0 min,  0.504 sec ( 86.787%)
 molecular gradient             ...        0 min,  0.026 sec (  4.553%)
 printout                       ...        0 min,  0.045 sec (  7.683%)

         :::::::::::::::::::::::::::::::::::::::::::::::::::::
         ::                     SUMMARY                     ::
         :::::::::::::::::::::::::::::::::::::::::::::::::::::
         :: total energy            -114.109631793547 Eh    ::
         :: gradient norm              0.177665334724 Eh/a0 ::
         :: HOMO-LUMO gap              1.329950516227 eV    ::
         ::.................................................::
         :: SCC energy              -116.042702484368 Eh    ::
         :: -> isotropic ES            0.056543366831 Eh    ::
         :: -> anisotropic ES          0.005896630705 Eh    ::
         :: -> anisotropic XC          0.073653967435 Eh    ::
         :: -> dispersion             -0.105494529029 Eh    ::
         :: repulsion energy           1.931275716621 Eh    ::
         :: add. restraining           0.000000000000 Eh    ::
         :: total charge               0.000000000017 e     ::
         :::::::::::::::::::::::::::::::::::::::::::::::::::::

      ----------------------------------------------------------- 
     |                   =====================                   |
     |                        A N C O P T                        |
     |                   =====================                   |
     |               Approximate Normal Coordinate               |
     |                Rational Function Optimizer                |
      ----------------------------------------------------------- 

          ...................................................
          :                      SETUP                      :
          :.................................................:
          :   optimization level            normal          :
          :   max. optcycles                   210          :
          :   ANC micro-cycles                  20          :
          :   degrees of freedom               204          :
          :.................................................:
          :   RF solver                   davidson          :
          :   write xtbopt.log                true          :
          :   linear?                        false          :
          :   energy convergence         0.5000000E-05 Eh   :
          :   grad. convergence          0.1000000E-02 Eh/α :
          :   maxmium RF displ.          1.0000000          :
          :   Hlow (freq-cutoff)         0.1000000E-01      :
          :   Hmax (freq-cutoff)         5.0000000          :
          :   S6 in model hess.         20.0000000          :
          ...................................................

generating ANC from model Hessian ...
Using Lindh-Hessian (1995)
 Shifting diagonal of input Hessian by    9.9317828338655028E-003
 Lowest  eigenvalues of input Hessian
    0.000000    0.000000    0.000000    0.000000    0.000000    0.000000
    0.010000    0.010123    0.010315    0.010560    0.010718    0.010856
    0.010902    0.011010    0.011201    0.011803    0.012094    0.012910
 Highest eigenvalues
    2.052478    2.070074    2.083934    2.087543    2.197300    2.496594


........................................................................
.............................. CYCLE    1 ..............................
........................................................................

 iter      E             dE          RMSdq      gap      omega  full diag
   1   -116.0427025 -0.116043E+03  0.168E-04    1.33       0.0  T
   2   -116.0427025 -0.339966E-09  0.106E-04    1.33     112.6  T
   3   -116.0427025 -0.338503E-09  0.695E-05    1.33     172.0  T
     SCC iter.                  ...        0 min,  0.169 sec
     gradient                   ...        0 min,  0.023 sec
 * total energy  :  -114.1096318 Eh     change       -0.3207504E-08 Eh
   gradient norm :     0.1776649 Eh/α   predicted     0.0000000E+00 (-100.00%)
   displ. norm   :     0.4277167 α      lambda       -0.3594166E-01
   maximum displ.:     0.1587452 α      in ANC's #27, #18, #23, ...

........................................................................
.............................. CYCLE    2 ..............................
........................................................................

 iter      E             dE          RMSdq      gap      omega  full diag
   1   -116.1139410 -0.116114E+03  0.215E-01    1.49       0.0  T
   2   -116.1141843 -0.243292E-03  0.128E-01    1.48       1.0  T
   3   -116.1141129  0.714179E-04  0.580E-02    1.49       1.0  T
   4   -116.1142500 -0.137095E-03  0.140E-02    1.49       1.0  T
   5   -116.1142620 -0.119936E-04  0.571E-03    1.49       2.1  T
   6   -116.1142628 -0.832039E-06  0.276E-03    1.49       4.3  T
   7   -116.1142629 -0.120376E-06  0.128E-03    1.49       9.3  T
   8   -116.1142631 -0.128695E-06  0.410E-04    1.49      29.1  T
   9   -116.1142631 -0.105409E-08  0.254E-04    1.49      47.1  T
     SCC iter.                  ...        0 min,  0.271 sec
     gradient                   ...        0 min,  0.016 sec
 * total energy  :  -114.1358099 Eh     change       -0.2617813E-01 Eh
   gradient norm :     0.0720474 Eh/α   predicted    -0.2129250E-01 ( -18.66%)
   displ. norm   :     0.5239318 α      lambda       -0.1563907E-01
   maximum displ.:     0.2192418 α      in ANC's #27, #18, #23, ...

........................................................................
.............................. CYCLE    3 ..............................
........................................................................

 iter      E             dE          RMSdq      gap      omega  full diag
   1   -116.1657363 -0.116166E+03  0.184E-01    1.60       0.0  T
   2   -116.1658846 -0.148255E-03  0.108E-01    1.60       1.0  T
   3   -116.1658128  0.717466E-04  0.481E-02    1.60       1.0  T
   4   -116.1659253 -0.112432E-03  0.124E-02    1.60       1.0  T
   5   -116.1659347 -0.943180E-05  0.486E-03    1.60       2.5  T
   6   -116.1659353 -0.558617E-06  0.225E-03    1.60       5.3  T
   7   -116.1659354 -0.126409E-06  0.776E-04    1.60      15.4  T
   8   -116.1659354 -0.315475E-07  0.317E-04    1.60      37.7  T
     SCC iter.                  ...        0 min,  0.281 sec
     gradient                   ...        0 min,  0.018 sec
 * total energy  :  -114.1462143 Eh     change       -0.1040434E-01 Eh
   gradient norm :     0.0208129 Eh/α   predicted    -0.9966035E-02 (  -4.21%)
   displ. norm   :     0.5143789 α      lambda       -0.5659953E-02
   maximum displ.:     0.2133381 α      in ANC's #18, #27, #19, ...

........................................................................
.............................. CYCLE    4 ..............................
........................................................................

 iter      E             dE          RMSdq      gap      omega  full diag
   1   -116.1845211 -0.116185E+03  0.123E-01    1.61       0.0  T
   2   -116.1845505 -0.294730E-04  0.748E-02    1.62       1.0  T
   3   -116.1844732  0.773042E-04  0.366E-02    1.62       1.0  T
   4   -116.1845724 -0.992153E-04  0.610E-03    1.62       2.0  T
   5   -116.1845746 -0.212094E-05  0.300E-03    1.62       4.0  T
   6   -116.1845748 -0.256097E-06  0.122E-03    1.62       9.8  T
   7   -116.1845749 -0.675503E-07  0.497E-04    1.62      24.0  T
   8   -116.1845749 -0.153678E-07  0.211E-04    1.62      56.7  T
     SCC iter.                  ...        0 min,  0.238 sec
     gradient                   ...        0 min,  0.015 sec
 * total energy  :  -114.1505567 Eh     change       -0.4342477E-02 Eh
   gradient norm :     0.0198713 Eh/α   predicted    -0.3578752E-02 ( -17.59%)
   displ. norm   :     0.5709715 α      lambda       -0.3896134E-02
   maximum displ.:     0.2258083 α      in ANC's #6, #19, #18, ...

........................................................................
.............................. CYCLE    5 ..............................
........................................................................

 iter      E             dE          RMSdq      gap      omega  full diag
   1   -116.1953753 -0.116195E+03  0.121E-01    1.59       0.0  T
   2   -116.1954080 -0.326644E-04  0.733E-02    1.60       1.0  T
   3   -116.1953345  0.734397E-04  0.369E-02    1.60       1.0  T
   4   -116.1954289 -0.943682E-04  0.677E-03    1.60       1.8  T
   5   -116.1954321 -0.323244E-05  0.273E-03    1.60       4.4  T
   6   -116.1954324 -0.283501E-06  0.136E-03    1.60       8.8  T
   7   -116.1954325 -0.667111E-07  0.540E-04    1.60      22.1  T
   8   -116.1954325 -0.214864E-07  0.207E-04    1.60      57.9  T
     SCC iter.                  ...        0 min,  0.275 sec
     gradient                   ...        0 min,  0.021 sec
 * total energy  :  -114.1534805 Eh     change       -0.2923786E-02 Eh
   gradient norm :     0.0123687 Eh/α   predicted    -0.2583163E-02 ( -11.65%)
   displ. norm   :     0.5620161 α      lambda       -0.2298040E-02
   maximum displ.:     0.2886605 α      in ANC's #6, #3, #8, ...

........................................................................
.............................. CYCLE    6 ..............................
........................................................................

 iter      E             dE          RMSdq      gap      omega  full diag
   1   -116.2013946 -0.116201E+03  0.109E-01    1.57       0.0  T
   2   -116.2014133 -0.186946E-04  0.645E-02    1.57       1.0  T
   3   -116.2013635  0.497644E-04  0.286E-02    1.57       1.0  T
   4   -116.2014235 -0.599482E-04  0.482E-03    1.57       2.5  T
   5   -116.2014250 -0.151377E-05  0.192E-03    1.57       6.2  T
   6   -116.2014251 -0.128882E-06  0.101E-03    1.57      11.8  T
   7   -116.2014252 -0.376049E-07  0.404E-04    1.57      29.6  T
   8   -116.2014252 -0.108619E-07  0.177E-04    1.57      67.5  T
     SCC iter.                  ...        0 min,  0.169 sec
     gradient                   ...        0 min,  0.013 sec
 * total energy  :  -114.1552866 Eh     change       -0.1806076E-02 Eh
   gradient norm :     0.0090449 Eh/α   predicted    -0.1511968E-02 ( -16.28%)
   displ. norm   :     0.5813019 α      lambda       -0.1736419E-02
   maximum displ.:     0.3261348 α      in ANC's #6, #3, #8, ...

........................................................................
.............................. CYCLE    7 ..............................
........................................................................

 iter      E             dE          RMSdq      gap      omega  full diag
   1   -116.2038041 -0.116204E+03  0.107E-01    1.54       0.0  T
   2   -116.2038115 -0.742443E-05  0.628E-02    1.55       1.0  T
   3   -116.2037831  0.284187E-04  0.197E-02    1.54       1.0  T
   4   -116.2038162 -0.331280E-04  0.278E-03    1.54       4.3  T
   5   -116.2038165 -0.296316E-06  0.138E-03    1.54       8.7  T
   6   -116.2038166 -0.497990E-07  0.620E-04    1.54      19.3  T
   7   -116.2038166 -0.126630E-07  0.232E-04    1.54      51.5  T
     SCC iter.                  ...        0 min,  0.152 sec
     gradient                   ...        0 min,  0.013 sec
 * total energy  :  -114.1567425 Eh     change       -0.1455852E-02 Eh
   gradient norm :     0.0088474 Eh/α   predicted    -0.1161590E-02 ( -20.21%)
   displ. norm   :     0.6179234 α      lambda       -0.1580601E-02
   maximum displ.:     0.3542408 α      in ANC's #6, #3, #8, ...

........................................................................
.............................. CYCLE    8 ..............................
........................................................................

 iter      E             dE          RMSdq      gap      omega  full diag
   1   -116.2038494 -0.116204E+03  0.112E-01    1.54       0.0  T
   2   -116.2038543 -0.497009E-05  0.659E-02    1.53       1.0  T
   3   -116.2038367  0.176484E-04  0.144E-02    1.53       1.0  T
   4   -116.2038570 -0.202795E-04  0.263E-03    1.53       4.5  T
   5   -116.2038573 -0.338635E-06  0.141E-03    1.53       8.5  T
   6   -116.2038574 -0.759694E-07  0.629E-04    1.53      19.0  T
   7   -116.2038574 -0.182738E-07  0.233E-04    1.53      51.3  T
     SCC iter.                  ...        0 min,  0.155 sec
     gradient                   ...        0 min,  0.013 sec
 * total energy  :  -114.1580999 Eh     change       -0.1357409E-02 Eh
   gradient norm :     0.0090671 Eh/α   predicted    -0.1092066E-02 ( -19.55%)
   displ. norm   :     0.6430116 α      lambda       -0.1435736E-02
   maximum displ.:     0.3738935 α      in ANC's #6, #3, #8, ...

........................................................................
.............................. CYCLE    9 ..............................
........................................................................

 iter      E             dE          RMSdq      gap      omega  full diag
   1   -116.2032726 -0.116203E+03  0.115E-01    1.54       0.0  T
   2   -116.2032793 -0.670010E-05  0.677E-02    1.53       1.0  T
   3   -116.2032626  0.166855E-04  0.135E-02    1.54       1.0  T
   4   -116.2032806 -0.179763E-04  0.385E-03    1.54       3.1  T
   5   -116.2032820 -0.137225E-05  0.137E-03    1.54       8.7  T
   6   -116.2032820 -0.608468E-07  0.712E-04    1.54      16.8  T
   7   -116.2032820 -0.167897E-07  0.208E-04    1.54      57.4  T
     SCC iter.                  ...        0 min,  0.155 sec
     gradient                   ...        0 min,  0.015 sec
 * total energy  :  -114.1593228 Eh     change       -0.1222890E-02 Eh
   gradient norm :     0.0085386 Eh/α   predicted    -0.1014687E-02 ( -17.03%)
   displ. norm   :     0.6464817 α      lambda       -0.1215225E-02
   maximum displ.:     0.3824164 α      in ANC's #6, #3, #10, ...

........................................................................
.............................. CYCLE   10 ..............................
........................................................................

 iter      E             dE          RMSdq      gap      omega  full diag
   1   -116.2029209 -0.116203E+03  0.113E-01    1.55       0.0  T
   2   -116.2029264 -0.551484E-05  0.663E-02    1.54       1.0  T
   3   -116.2029114  0.149777E-04  0.127E-02    1.55       1.0  T
   4   -116.2029276 -0.162014E-04  0.350E-03    1.55       3.4  T
   5   -116.2029287 -0.109145E-05  0.129E-03    1.55       9.3  T
   6   -116.2029287 -0.482508E-07  0.663E-04    1.55      18.0  T
   7   -116.2029288 -0.161370E-07  0.196E-04    1.55      60.8  T
     SCC iter.                  ...        0 min,  0.151 sec
     gradient                   ...        0 min,  0.013 sec
 * total energy  :  -114.1603523 Eh     change       -0.1029535E-02 Eh
   gradient norm :     0.0076892 Eh/α   predicted    -0.8615642E-03 ( -16.32%)
   displ. norm   :     0.6395147 α      lambda       -0.1028336E-02
   maximum displ.:     0.3831819 α      in ANC's #3, #6, #9, ...

........................................................................
.............................. CYCLE   11 ..............................
........................................................................

 iter      E             dE          RMSdq      gap      omega  full diag
   1   -116.2038588 -0.116204E+03  0.108E-01    1.56       0.0  T
   2   -116.2038633 -0.449265E-05  0.634E-02    1.56       1.0  T
   3   -116.2038479  0.153395E-04  0.130E-02    1.55       1.0  T
   4   -116.2038650 -0.170444E-04  0.276E-03    1.56       4.3  T
   5   -116.2038655 -0.532284E-06  0.125E-03    1.56       9.5  T
   6   -116.2038656 -0.613551E-07  0.615E-04    1.56      19.4  T
   7   -116.2038656 -0.152576E-07  0.202E-04    1.56      59.3  T
     SCC iter.                  ...        0 min,  0.185 sec
     gradient                   ...        0 min,  0.013 sec
 * total energy  :  -114.1612309 Eh     change       -0.8785774E-03 Eh
   gradient norm :     0.0085530 Eh/α   predicted    -0.7244526E-03 ( -17.54%)
   displ. norm   :     0.6474426 α      lambda       -0.9422334E-03
   maximum displ.:     0.4015945 α      in ANC's #3, #6, #9, ...

........................................................................
.............................. CYCLE   12 ..............................
........................................................................

 iter      E             dE          RMSdq      gap      omega  full diag
   1   -116.2050898 -0.116205E+03  0.108E-01    1.56       0.0  T
   2   -116.2050944 -0.463631E-05  0.633E-02    1.56       1.0  T
   3   -116.2050764  0.180531E-04  0.145E-02    1.56       1.0  T
   4   -116.2050967 -0.203633E-04  0.249E-03    1.56       4.8  T
   5   -116.2050971 -0.364170E-06  0.119E-03    1.56      10.1  T
   6   -116.2050971 -0.479985E-07  0.610E-04    1.56      19.6  T
   7   -116.2050972 -0.168548E-07  0.221E-04    1.56      54.0  T
     SCC iter.                  ...        0 min,  0.259 sec
     gradient                   ...        0 min,  0.014 sec
 * total energy  :  -114.1620454 Eh     change       -0.8144999E-03 Eh
   gradient norm :     0.0074810 Eh/α   predicted    -0.6686018E-03 ( -17.91%)
   displ. norm   :     0.6782480 α      lambda       -0.9358446E-03
   maximum displ.:     0.4283693 α      in ANC's #3, #6, #9, ...

........................................................................
.............................. CYCLE   13 ..............................
........................................................................

 iter      E             dE          RMSdq      gap      omega  full diag
   1   -116.2076804 -0.116208E+03  0.115E-01    1.56       0.0  T
   2   -116.2076864 -0.595824E-05  0.678E-02    1.57       1.0  T
   3   -116.2076653  0.211016E-04  0.158E-02    1.56       1.0  T
   4   -116.2076892 -0.238929E-04  0.258E-03    1.56       4.6  T
   5   -116.2076895 -0.359974E-06  0.126E-03    1.56       9.5  T
   6   -116.2076896 -0.579925E-07  0.712E-04    1.56      16.8  T
   7   -116.2076896 -0.211668E-07  0.267E-04    1.56      44.7  T
     SCC iter.                  ...        0 min,  0.186 sec
     gradient                   ...        0 min,  0.013 sec
 * total energy  :  -114.1628527 Eh     change       -0.8073144E-03 Eh
   gradient norm :     0.0091267 Eh/α   predicted    -0.6831783E-03 ( -15.38%)
   displ. norm   :     0.7023016 α      lambda       -0.9135425E-03
   maximum displ.:     0.4495749 α      in ANC's #3, #6, #7, ...

........................................................................
.............................. CYCLE   14 ..............................
........................................................................

 iter      E             dE          RMSdq      gap      omega  full diag
   1   -116.2080014 -0.116208E+03  0.123E-01    1.56       0.0  T
   2   -116.2080192 -0.178334E-04  0.721E-02    1.56       1.0  T
   3   -116.2080011  0.181308E-04  0.164E-02    1.56       1.0  T
   4   -116.2080210 -0.198981E-04  0.475E-03    1.56       2.5  T
   5   -116.2080230 -0.200504E-05  0.125E-03    1.56       9.6  T
   6   -116.2080230 -0.235590E-07  0.780E-04    1.56      15.3  T
   7   -116.2080230 -0.262743E-07  0.278E-04    1.56      42.9  T
     SCC iter.                  ...        0 min,  0.264 sec
     gradient                   ...        0 min,  0.015 sec
 * total energy  :  -114.1636208 Eh     change       -0.7681164E-03 Eh
   gradient norm :     0.0084515 Eh/α   predicted    -0.6820643E-03 ( -11.20%)
   displ. norm   :     0.6882602 α      lambda       -0.8153782E-03
   maximum displ.:     0.4396468 α      in ANC's #3, #6, #7, ...

........................................................................
.............................. CYCLE   15 ..............................
........................................................................

 iter      E             dE          RMSdq      gap      omega  full diag
   1   -116.2089452 -0.116209E+03  0.124E-01    1.55       0.0  T
   2   -116.2089539 -0.874558E-05  0.730E-02    1.55       1.0  T
   3   -116.2089417  0.121755E-04  0.127E-02    1.55       1.0  T
   4   -116.2089553 -0.135493E-04  0.366E-03    1.55       3.3  T
   5   -116.2089564 -0.108955E-05  0.129E-03    1.55       9.3  T
   6   -116.2089564 -0.986229E-08  0.861E-04    1.55      13.9  T
   7   -116.2089564 -0.454714E-07  0.253E-04    1.55      47.3  T
     SCC iter.                  ...        0 min,  0.188 sec
     gradient                   ...        0 min,  0.015 sec
 * total energy  :  -114.1642870 Eh     change       -0.6662473E-03 Eh
   gradient norm :     0.0084700 Eh/α   predicted    -0.6008140E-03 (  -9.82%)
   displ. norm   :     0.6543346 α      lambda       -0.6848386E-03
   maximum displ.:     0.4185350 α      in ANC's #3, #6, #7, ...

........................................................................
.............................. CYCLE   16 ..............................
........................................................................

 iter      E             dE          RMSdq      gap      omega  full diag
   1   -116.2078669 -0.116208E+03  0.119E-01    1.54       0.0  T
   2   -116.2078732 -0.634443E-05  0.697E-02    1.55       1.0  T
   3   -116.2078632  0.100855E-04  0.111E-02    1.54       1.1  T
   4   -116.2078744 -0.112274E-04  0.324E-03    1.54       3.7  T
   5   -116.2078752 -0.828447E-06  0.129E-03    1.54       9.3  T
   6   -116.2078752 -0.406847E-07  0.785E-04    1.54      15.2  T
   7   -116.2078753 -0.322455E-07  0.242E-04    1.54      49.4  T
     SCC iter.                  ...        0 min,  0.166 sec
     gradient                   ...        0 min,  0.013 sec
 * total energy  :  -114.1648116 Eh     change       -0.5245495E-03 Eh
   gradient norm :     0.0095620 Eh/α   predicted    -0.4890293E-03 (  -6.77%)
   displ. norm   :     0.5963565 α      lambda       -0.6348571E-03
   maximum displ.:     0.3739456 α      in ANC's #3, #7, #6, ...

........................................................................
.............................. CYCLE   17 ..............................
........................................................................

 iter      E             dE          RMSdq      gap      omega  full diag
   1   -116.2096689 -0.116210E+03  0.109E-01    1.54       0.0  T
   2   -116.2096721 -0.320012E-05  0.638E-02    1.54       1.0  T
   3   -116.2096642  0.792485E-05  0.972E-03    1.54       1.2  T
   4   -116.2096734 -0.913239E-05  0.266E-03    1.54       4.5  T
   5   -116.2096738 -0.398695E-06  0.127E-03    1.54       9.4  T
   6   -116.2096738 -0.382043E-07  0.621E-04    1.54      19.3  T
   7   -116.2096738 -0.233571E-07  0.205E-04    1.54      58.2  T
     SCC iter.                  ...        0 min,  0.179 sec
     gradient                   ...        0 min,  0.013 sec
 * total energy  :  -114.1652662 Eh     change       -0.4545911E-03 Eh
   gradient norm :     0.0085565 Eh/α   predicted    -0.4303231E-03 (  -5.34%)
   displ. norm   :     0.5524986 α      lambda       -0.4573961E-03
   maximum displ.:     0.3484086 α      in ANC's #3, #7, #6, ...

........................................................................
.............................. CYCLE   18 ..............................
........................................................................

 iter      E             dE          RMSdq      gap      omega  full diag
   1   -116.2066015 -0.116207E+03  0.988E-02    1.54       0.0  T
   2   -116.2066066 -0.502259E-05  0.578E-02    1.54       1.0  T
   3   -116.2065925  0.140507E-04  0.130E-02    1.54       1.0  T
   4   -116.2066080 -0.154712E-04  0.287E-03    1.54       4.2  T
   5   -116.2066086 -0.642787E-06  0.120E-03    1.54      10.0  T
   6   -116.2066087 -0.660118E-07  0.581E-04    1.54      20.6  T
   7   -116.2066087 -0.889345E-08  0.244E-04    1.54      49.0  T
     SCC iter.                  ...        0 min,  0.219 sec
     gradient                   ...        0 min,  0.014 sec
 * total energy  :  -114.1655980 Eh     change       -0.3317623E-03 Eh
   gradient norm :     0.0064305 Eh/α   predicted    -0.2985098E-03 ( -10.02%)
   displ. norm   :     0.4820211 α      lambda       -0.4819113E-03
   maximum displ.:     0.2488667 α      in ANC's #3, #7, #8, ...

........................................................................
.............................. CYCLE   19 ..............................
........................................................................

 iter      E             dE          RMSdq      gap      omega  full diag
   1   -116.2151364 -0.116215E+03  0.100E-01    1.55       0.0  T
   2   -116.2151468 -0.104135E-04  0.584E-02    1.55       1.0  T
   3   -116.2151338  0.130426E-04  0.141E-02    1.55       1.0  T
   4   -116.2151483 -0.145357E-04  0.402E-03    1.55       3.0  T
   5   -116.2151496 -0.129842E-05  0.129E-03    1.55       9.3  T
   6   -116.2151496 -0.270732E-07  0.746E-04    1.55      16.0  T
   7   -116.2151497 -0.282828E-07  0.249E-04    1.55      48.0  T
     SCC iter.                  ...        0 min,  0.204 sec
     gradient                   ...        0 min,  0.014 sec
 * total energy  :  -114.1657789 Eh     change       -0.1809364E-03 Eh
   gradient norm :     0.0106946 Eh/α   predicted    -0.2969418E-03 (  64.11%)
   displ. norm   :     0.3825249 α      lambda       -0.3899512E-03
   maximum displ.:     0.2359646 α      in ANC's #3, #7, #6, ...

........................................................................
.............................. CYCLE   20 ..............................
........................................................................

 iter      E             dE          RMSdq      gap      omega  full diag
   1   -116.2091567 -0.116209E+03  0.759E-02    1.55       0.0  T
   2   -116.2091583 -0.162023E-05  0.446E-02    1.56       1.0  T
   3   -116.2091546  0.372109E-05  0.722E-03    1.55       1.7  T
   4   -116.2091589 -0.437106E-05  0.152E-03    1.55       7.8  T
   5   -116.2091590 -0.897700E-07  0.847E-04    1.55      14.1  T
   6   -116.2091591 -0.208071E-07  0.367E-04    1.55      32.5  T
     SCC iter.                  ...        0 min,  0.209 sec
     gradient                   ...        0 min,  0.012 sec
 * total energy  :  -114.1660041 Eh     change       -0.2252000E-03 Eh
   gradient norm :     0.0072847 Eh/α   predicted    -0.2235054E-03 (  -0.75%)
   displ. norm   :     0.1691073 α      lambda       -0.1646764E-03
   maximum displ.:     0.0848194 α      in ANC's #3, #7, #8, ...
 * RMSD in coord.:     1.0898898 α      energy gain  -0.5637229E-01 Eh

generating ANC from model Hessian ...
Using Lindh-Hessian (1995)
 Shifting diagonal of input Hessian by    9.9410886387699838E-003
 Lowest  eigenvalues of input Hessian
    0.000000    0.000000    0.000000    0.000000    0.000000    0.000000
    0.010000    0.010196    0.010622    0.010639    0.010776    0.010983
    0.011142    0.011209    0.011286    0.011913    0.012203    0.013136
 Highest eigenvalues
    2.108286    2.122185    2.131773    2.152653    2.290729    2.527312


........................................................................
.............................. CYCLE   21 ..............................
........................................................................

 iter      E             dE          RMSdq      gap      omega  full diag
   1   -116.2089487 -0.116209E+03  0.395E-02    1.56       0.0  T
   2   -116.2089500 -0.126030E-05  0.233E-02    1.56       1.0  T
   3   -116.2089487  0.127196E-05  0.422E-03    1.56       2.8  T
   4   -116.2089502 -0.144007E-05  0.123E-03    1.56       9.7  T
   5   -116.2089503 -0.120226E-06  0.401E-04    1.56      29.8  T
   6   -116.2089503 -0.255658E-08  0.225E-04    1.56      53.1  T
     SCC iter.                  ...        0 min,  0.136 sec
     gradient                   ...        0 min,  0.013 sec
 * total energy  :  -114.1661107 Eh     change       -0.1066602E-03 Eh
   gradient norm :     0.0058658 Eh/α   predicted     0.0000000E+00 (-100.00%)
   displ. norm   :     0.0653031 α      lambda       -0.1057072E-03
   maximum displ.:     0.0228739 α      in ANC's #1, #4, #7, ...

........................................................................
.............................. CYCLE   22 ..............................
........................................................................

 iter      E             dE          RMSdq      gap      omega  full diag
   1   -116.2115038 -0.116212E+03  0.191E-02    1.55       0.0  T
   2   -116.2115041 -0.288975E-06  0.113E-02    1.55       1.1  T
   3   -116.2115038  0.327603E-06  0.251E-03    1.55       4.8  T
   4   -116.2115041 -0.379061E-06  0.575E-04    1.55      20.8  T
   5   -116.2115042 -0.217703E-07  0.270E-04    1.55      44.3  T
     SCC iter.                  ...        0 min,  0.112 sec
     gradient                   ...        0 min,  0.018 sec
 * total energy  :  -114.1661942 Eh     change       -0.8348102E-04 Eh
   gradient norm :     0.0023831 Eh/α   predicted    -0.5461142E-04 ( -34.58%)
   displ. norm   :     0.1614614 α      lambda       -0.1331046E-03
   maximum displ.:     0.0591880 α      in ANC's #7, #1, #4, ...

........................................................................
.............................. CYCLE   23 ..............................
........................................................................

 iter      E             dE          RMSdq      gap      omega  full diag
   1   -116.2139693 -0.116214E+03  0.426E-02    1.55       0.0  T
   2   -116.2139702 -0.940263E-06  0.250E-02    1.55       1.0  T
   3   -116.2139692  0.105551E-05  0.424E-03    1.55       2.8  T
   4   -116.2139704 -0.121702E-05  0.104E-03    1.55      11.5  T
   5   -116.2139704 -0.722594E-07  0.414E-04    1.55      28.8  T
   6   -116.2139704 -0.403840E-08  0.242E-04    1.55      49.3  T
     SCC iter.                  ...        0 min,  0.233 sec
     gradient                   ...        0 min,  0.032 sec
 * total energy  :  -114.1662919 Eh     change       -0.9763565E-04 Eh
   gradient norm :     0.0031053 Eh/α   predicted    -0.6828983E-04 ( -30.06%)
   displ. norm   :     0.2461896 α      lambda       -0.1330907E-03
   maximum displ.:     0.0948353 α      in ANC's #7, #1, #9, ...

........................................................................
.............................. CYCLE   24 ..............................
........................................................................

 iter      E             dE          RMSdq      gap      omega  full diag
   1   -116.2146331 -0.116215E+03  0.638E-02    1.55       0.0  T
   2   -116.2146343 -0.115945E-05  0.374E-02    1.55       1.0  T
   3   -116.2146326  0.165094E-05  0.491E-03    1.55       2.4  T
   4   -116.2146346 -0.193734E-05  0.120E-03    1.55      10.0  T
   5   -116.2146346 -0.812543E-07  0.521E-04    1.55      22.9  T
   6   -116.2146346 -0.400837E-08  0.310E-04    1.55      38.6  T
     SCC iter.                  ...        0 min,  0.185 sec
     gradient                   ...        0 min,  0.015 sec
 * total energy  :  -114.1664013 Eh     change       -0.1094131E-03 Eh
   gradient norm :     0.0054737 Eh/α   predicted    -0.7060172E-04 ( -35.47%)
   displ. norm   :     0.4214914 α      lambda       -0.2046135E-03
   maximum displ.:     0.1653585 α      in ANC's #7, #1, #9, ...

........................................................................
.............................. CYCLE   25 ..............................
........................................................................

 iter      E             dE          RMSdq      gap      omega  full diag
   1   -116.2129333 -0.116213E+03  0.108E-01    1.55       0.0  T
   2   -116.2129358 -0.245996E-05  0.635E-02    1.55       1.0  T
   3   -116.2129316  0.420417E-05  0.795E-03    1.55       1.5  T
   4   -116.2129367 -0.513731E-05  0.153E-03    1.55       7.8  T
   5   -116.2129368 -0.540559E-07  0.777E-04    1.55      15.4  T
   6   -116.2129368 -0.902646E-08  0.371E-04    1.55      32.3  T
     SCC iter.                  ...        0 min,  0.129 sec
     gradient                   ...        0 min,  0.016 sec
 * total energy  :  -114.1665643 Eh     change       -0.1630061E-03 Eh
   gradient norm :     0.0062778 Eh/α   predicted    -0.1204840E-03 ( -26.09%)
   displ. norm   :     0.4245268 α      lambda       -0.1784773E-03
   maximum displ.:     0.1739984 α      in ANC's #9, #1, #7, ...

........................................................................
.............................. CYCLE   26 ..............................
........................................................................

 iter      E             dE          RMSdq      gap      omega  full diag
   1   -116.2103380 -0.116210E+03  0.106E-01    1.55       0.0  T
   2   -116.2103407 -0.265985E-05  0.623E-02    1.55       1.0  T
   3   -116.2103349  0.579947E-05  0.927E-03    1.55       1.3  T
   4   -116.2103418 -0.690270E-05  0.156E-03    1.55       7.7  T
   5   -116.2103419 -0.561464E-07  0.844E-04    1.55      14.2  T
   6   -116.2103419 -0.129003E-07  0.384E-04    1.55      31.1  T
     SCC iter.                  ...        0 min,  0.127 sec
     gradient                   ...        0 min,  0.012 sec
 * total energy  :  -114.1666970 Eh     change       -0.1327143E-03 Eh
   gradient norm :     0.0056031 Eh/α   predicted    -0.1053222E-03 ( -20.64%)
   displ. norm   :     0.2938928 α      lambda       -0.1311607E-03
   maximum displ.:     0.1308275 α      in ANC's #1, #9, #7, ...

........................................................................
.............................. CYCLE   27 ..............................
........................................................................

 iter      E             dE          RMSdq      gap      omega  full diag
   1   -116.2099702 -0.116210E+03  0.694E-02    1.56       0.0  T
   2   -116.2099722 -0.201884E-05  0.406E-02    1.56       1.0  T
   3   -116.2099672  0.505539E-05  0.837E-03    1.56       1.4  T
   4   -116.2099728 -0.567442E-05  0.158E-03    1.56       7.6  T
   5   -116.2099730 -0.164950E-06  0.697E-04    1.56      17.2  T
   6   -116.2099730 -0.155216E-07  0.376E-04    1.56      31.8  T
     SCC iter.                  ...        0 min,  0.191 sec
     gradient                   ...        0 min,  0.015 sec
 * total energy  :  -114.1668006 Eh     change       -0.1036180E-03 Eh
   gradient norm :     0.0041457 Eh/α   predicted    -0.7124644E-04 ( -31.24%)
   displ. norm   :     0.2856709 α      lambda       -0.1483703E-03
   maximum displ.:     0.1370716 α      in ANC's #9, #1, #7, ...

........................................................................
.............................. CYCLE   28 ..............................
........................................................................

 iter      E             dE          RMSdq      gap      omega  full diag
   1   -116.2114351 -0.116211E+03  0.637E-02    1.56       0.0  T
   2   -116.2114376 -0.244292E-05  0.373E-02    1.56       1.0  T
   3   -116.2114307  0.689462E-05  0.961E-03    1.56       1.2  T
   4   -116.2114383 -0.757366E-05  0.191E-03    1.56       6.3  T
   5   -116.2114386 -0.303574E-06  0.690E-04    1.56      17.3  T
   6   -116.2114386 -0.223628E-07  0.360E-04    1.56      33.2  T
     SCC iter.                  ...        0 min,  0.270 sec
     gradient                   ...        0 min,  0.038 sec
 * total energy  :  -114.1669103 Eh     change       -0.1096937E-03 Eh
   gradient norm :     0.0037882 Eh/α   predicted    -0.8023970E-04 ( -26.85%)
   displ. norm   :     0.3003787 α      lambda       -0.1062224E-03
   maximum displ.:     0.1526950 α      in ANC's #9, #1, #7, ...

........................................................................
.............................. CYCLE   29 ..............................
........................................................................

 iter      E             dE          RMSdq      gap      omega  full diag
   1   -116.2116360 -0.116212E+03  0.659E-02    1.56       0.0  T
   2   -116.2116373 -0.125161E-05  0.386E-02    1.56       1.0  T
   3   -116.2116306  0.665417E-05  0.921E-03    1.56       1.3  T
   4   -116.2116380 -0.742151E-05  0.123E-03    1.56       9.7  T
   5   -116.2116381 -0.894810E-07  0.630E-04    1.56      19.0  T
   6   -116.2116381 -0.171888E-07  0.314E-04    1.56      38.1  T
     SCC iter.                  ...        0 min,  0.252 sec
     gradient                   ...        0 min,  0.017 sec
 * total energy  :  -114.1669934 Eh     change       -0.8307166E-04 Eh
   gradient norm :     0.0042919 Eh/α   predicted    -0.5790425E-04 ( -30.30%)
   displ. norm   :     0.2805052 α      lambda       -0.1026478E-03
   maximum displ.:     0.1496289 α      in ANC's #9, #1, #7, ...

........................................................................
.............................. CYCLE   30 ..............................
........................................................................

 iter      E             dE          RMSdq      gap      omega  full diag
   1   -116.2127613 -0.116213E+03  0.597E-02    1.56       0.0  T
   2   -116.2127622 -0.880361E-06  0.350E-02    1.56       1.0  T
   3   -116.2127565  0.569782E-05  0.838E-03    1.56       1.4  T
   4   -116.2127629 -0.633878E-05  0.113E-03    1.56      10.6  T
   5   -116.2127629 -0.765982E-07  0.572E-04    1.56      20.9  T
   6   -116.2127630 -0.122914E-07  0.274E-04    1.56      43.7  T
     SCC iter.                  ...        0 min,  0.224 sec
     gradient                   ...        0 min,  0.027 sec
 * total energy  :  -114.1670754 Eh     change       -0.8198110E-04 Eh
   gradient norm :     0.0038598 Eh/α   predicted    -0.5536403E-04 ( -32.47%)
   displ. norm   :     0.3295420 α      lambda       -0.1037019E-03
   maximum displ.:     0.1811205 α      in ANC's #9, #1, #2, ...

........................................................................
.............................. CYCLE   31 ..............................
........................................................................

 iter      E             dE          RMSdq      gap      omega  full diag
   1   -116.2124426 -0.116212E+03  0.717E-02    1.56       0.0  T
   2   -116.2124441 -0.148931E-05  0.420E-02    1.56       1.0  T
   3   -116.2124380  0.608057E-05  0.872E-03    1.56       1.4  T
   4   -116.2124448 -0.675939E-05  0.152E-03    1.56       7.8  T
   5   -116.2124450 -0.156514E-06  0.696E-04    1.56      17.2  T
   6   -116.2124450 -0.166645E-07  0.357E-04    1.56      33.5  T
     SCC iter.                  ...        0 min,  0.170 sec
     gradient                   ...        0 min,  0.015 sec
 * total energy  :  -114.1671573 Eh     change       -0.8193746E-04 Eh
   gradient norm :     0.0030645 Eh/α   predicted    -0.5748351E-04 ( -29.84%)
   displ. norm   :     0.2959144 α      lambda       -0.9015969E-04
   maximum displ.:     0.1729443 α      in ANC's #1, #9, #2, ...

........................................................................
.............................. CYCLE   32 ..............................
........................................................................

 iter      E             dE          RMSdq      gap      omega  full diag
   1   -116.2134818 -0.116213E+03  0.635E-02    1.56       0.0  T
   2   -116.2134832 -0.134682E-05  0.371E-02    1.56       1.0  T
   3   -116.2134786  0.456084E-05  0.736E-03    1.56       1.6  T
   4   -116.2134836 -0.504795E-05  0.163E-03    1.56       7.3  T
   5   -116.2134838 -0.195165E-06  0.683E-04    1.56      17.5  T
   6   -116.2134839 -0.113987E-07  0.339E-04    1.56      35.3  T
     SCC iter.                  ...        0 min,  0.141 sec
     gradient                   ...        0 min,  0.014 sec
 * total energy  :  -114.1672244 Eh     change       -0.6709500E-04 Eh
   gradient norm :     0.0026440 Eh/α   predicted    -0.4902852E-04 ( -26.93%)
   displ. norm   :     0.2939964 α      lambda       -0.6439577E-04
   maximum displ.:     0.1753632 α      in ANC's #1, #9, #2, ...

........................................................................
.............................. CYCLE   33 ..............................
........................................................................

 iter      E             dE          RMSdq      gap      omega  full diag
   1   -116.2120493 -0.116212E+03  0.656E-02    1.56       0.0  T
   2   -116.2120504 -0.103784E-05  0.384E-02    1.56       1.0  T
   3   -116.2120466  0.380235E-05  0.672E-03    1.55       1.8  T
   4   -116.2120509 -0.430418E-05  0.126E-03    1.56       9.5  T
   5   -116.2120509 -0.784321E-07  0.657E-04    1.56      18.2  T
   6   -116.2120510 -0.138635E-07  0.291E-04    1.56      41.1  T
     SCC iter.                  ...        0 min,  0.227 sec
     gradient                   ...        0 min,  0.015 sec
 * total energy  :  -114.1672730 Eh     change       -0.4862431E-04 Eh
   gradient norm :     0.0030842 Eh/α   predicted    -0.3498646E-04 ( -28.05%)
   displ. norm   :     0.2268224 α      lambda       -0.6317812E-04
   maximum displ.:     0.1470992 α      in ANC's #1, #9, #8, ...

........................................................................
.............................. CYCLE   34 ..............................
........................................................................

 iter      E             dE          RMSdq      gap      omega  full diag
   1   -116.2134116 -0.116213E+03  0.478E-02    1.56       0.0  T
   2   -116.2134122 -0.627956E-06  0.280E-02    1.56       1.0  T
   3   -116.2134098  0.237403E-05  0.505E-03    1.56       2.4  T
   4   -116.2134125 -0.271044E-05  0.105E-03    1.56      11.4  T
   5   -116.2134126 -0.440268E-07  0.549E-04    1.56      21.8  T
   6   -116.2134126 -0.103022E-07  0.175E-04    1.56      68.4  T
     SCC iter.                  ...        0 min,  0.194 sec
     gradient                   ...        0 min,  0.027 sec
 * total energy  :  -114.1673199 Eh     change       -0.4686108E-04 Eh
   gradient norm :     0.0025951 Eh/α   predicted    -0.3321476E-04 ( -29.12%)
   displ. norm   :     0.2675131 α      lambda       -0.5909747E-04
   maximum displ.:     0.1744279 α      in ANC's #1, #9, #8, ...

........................................................................
.............................. CYCLE   35 ..............................
........................................................................

 iter      E             dE          RMSdq      gap      omega  full diag
   1   -116.2126510 -0.116213E+03  0.578E-02    1.56       0.0  T
   2   -116.2126519 -0.829088E-06  0.338E-02    1.56       1.0  T
   3   -116.2126492  0.260799E-05  0.544E-03    1.56       2.2  T
   4   -116.2126522 -0.295084E-05  0.118E-03    1.56      10.1  T
   5   -116.2126523 -0.781692E-07  0.568E-04    1.56      21.1  T
   6   -116.2126523 -0.973787E-08  0.245E-04    1.56      48.8  T
     SCC iter.                  ...        0 min,  0.122 sec
     gradient                   ...        0 min,  0.013 sec
 * total energy  :  -114.1673672 Eh     change       -0.4730329E-04 Eh
   gradient norm :     0.0024628 Eh/α   predicted    -0.3166863E-04 ( -33.05%)
   displ. norm   :     0.2331326 α      lambda       -0.5783735E-04
   maximum displ.:     0.1582908 α      in ANC's #1, #9, #8, ...

........................................................................
.............................. CYCLE   36 ..............................
........................................................................

 iter      E             dE          RMSdq      gap      omega  full diag
   1   -116.2130893 -0.116213E+03  0.471E-02    1.56       0.0  T
   2   -116.2130900 -0.661178E-06  0.275E-02    1.56       1.0  T
   3   -116.2130884  0.159734E-05  0.427E-03    1.56       2.8  T
   4   -116.2130901 -0.173386E-05  0.123E-03    1.56       9.7  T
   5   -116.2130903 -0.129991E-06  0.436E-04    1.56      27.4  T
   6   -116.2130903 -0.415267E-08  0.220E-04    1.56      54.4  T
     SCC iter.                  ...        0 min,  0.152 sec
     gradient                   ...        0 min,  0.015 sec
 * total energy  :  -114.1674143 Eh     change       -0.4711142E-04 Eh
   gradient norm :     0.0025461 Eh/α   predicted    -0.3049060E-04 ( -35.28%)
   displ. norm   :     0.2698428 α      lambda       -0.6177271E-04
   maximum displ.:     0.1854767 α      in ANC's #1, #9, #8, ...

........................................................................
.............................. CYCLE   37 ..............................
........................................................................

 iter      E             dE          RMSdq      gap      omega  full diag
   1   -116.2133568 -0.116213E+03  0.532E-02    1.56       0.0  T
   2   -116.2133575 -0.706136E-06  0.312E-02    1.56       1.0  T
   3   -116.2133559  0.154946E-05  0.429E-03    1.56       2.8  T
   4   -116.2133576 -0.168103E-05  0.124E-03    1.56       9.6  T
   5   -116.2133577 -0.134694E-06  0.430E-04    1.56      27.8  T
   6   -116.2133577 -0.494764E-08  0.220E-04    1.56      54.4  T
     SCC iter.                  ...        0 min,  0.132 sec
     gradient                   ...        0 min,  0.023 sec
 * total energy  :  -114.1674636 Eh     change       -0.4928637E-04 Eh
   gradient norm :     0.0028443 Eh/α   predicted    -0.3313571E-04 ( -32.77%)
   displ. norm   :     0.2624232 α      lambda       -0.5714904E-04
   maximum displ.:     0.1836294 α      in ANC's #1, #9, #8, ...

........................................................................
.............................. CYCLE   38 ..............................
........................................................................

 iter      E             dE          RMSdq      gap      omega  full diag
   1   -116.2138626 -0.116214E+03  0.499E-02    1.56       0.0  T
   2   -116.2138631 -0.449103E-06  0.292E-02    1.56       1.0  T
   3   -116.2138617  0.134672E-05  0.410E-03    1.56       2.9  T
   4   -116.2138632 -0.149981E-05  0.926E-04    1.56      12.9  T
   5   -116.2138633 -0.648728E-07  0.387E-04    1.56      30.9  T
   6   -116.2138633 -0.507742E-08  0.201E-04    1.56      59.4  T
     SCC iter.                  ...        0 min,  0.129 sec
     gradient                   ...        0 min,  0.021 sec
 * total energy  :  -114.1675083 Eh     change       -0.4469598E-04 Eh
   gradient norm :     0.0028214 Eh/α   predicted    -0.3054526E-04 ( -31.66%)
   displ. norm   :     0.2361647 α      lambda       -0.5005478E-04
   maximum displ.:     0.1693191 α      in ANC's #1, #9, #3, ...

........................................................................
.............................. CYCLE   39 ..............................
........................................................................

 iter      E             dE          RMSdq      gap      omega  full diag
   1   -116.2143462 -0.116214E+03  0.444E-02    1.55       0.0  T
   2   -116.2143466 -0.419820E-06  0.261E-02    1.55       1.0  T
   3   -116.2143459  0.772276E-06  0.322E-03    1.55       3.7  T
   4   -116.2143467 -0.864619E-06  0.847E-04    1.55      14.1  T
   5   -116.2143468 -0.562170E-07  0.332E-04    1.55      36.0  T
     SCC iter.                  ...        0 min,  0.105 sec
     gradient                   ...        0 min,  0.013 sec
 * total energy  :  -114.1675474 Eh     change       -0.3909059E-04 Eh
   gradient norm :     0.0022989 Eh/α   predicted    -0.2642828E-04 ( -32.39%)
   displ. norm   :     0.1846127 α      lambda       -0.3790812E-04
   maximum displ.:     0.1373120 α      in ANC's #1, #9, #4, ...

........................................................................
.............................. CYCLE   40 ..............................
........................................................................

 iter      E             dE          RMSdq      gap      omega  full diag
   1   -116.2144768 -0.116214E+03  0.353E-02    1.55       0.0  T
   2   -116.2144772 -0.387711E-06  0.207E-02    1.55       1.0  T
   3   -116.2144767  0.503653E-06  0.284E-03    1.55       4.2  T
   4   -116.2144772 -0.583796E-06  0.721E-04    1.55      16.6  T
   5   -116.2144773 -0.334050E-07  0.285E-04    1.55      41.9  T
     SCC iter.                  ...        0 min,  0.112 sec
     gradient                   ...        0 min,  0.013 sec
 * total energy  :  -114.1675782 Eh     change       -0.3081985E-04 Eh
   gradient norm :     0.0016271 Eh/α   predicted    -0.1960183E-04 ( -36.40%)
   displ. norm   :     0.1941904 α      lambda       -0.2820616E-04
   maximum displ.:     0.1515614 α      in ANC's #1, #9, #4, ...

........................................................................
.............................. CYCLE   41 ..............................
........................................................................

 iter      E             dE          RMSdq      gap      omega  full diag
   1   -116.2146231 -0.116215E+03  0.379E-02    1.55       0.0  T
   2   -116.2146237 -0.584301E-06  0.222E-02    1.55       1.0  T
   3   -116.2146231  0.588227E-06  0.326E-03    1.55       3.7  T
   4   -116.2146238 -0.731714E-06  0.767E-04    1.55      15.6  T
   5   -116.2146238 -0.271805E-07  0.328E-04    1.55      36.5  T
     SCC iter.                  ...        0 min,  0.158 sec
     gradient                   ...        0 min,  0.013 sec
 * total energy  :  -114.1676086 Eh     change       -0.3045224E-04 Eh
   gradient norm :     0.0021450 Eh/α   predicted    -0.1434241E-04 ( -52.90%)
   displ. norm   :     0.0822910 α      lambda       -0.2095724E-04
   maximum displ.:     0.0673765 α      in ANC's #1, #2, #9, ...

........................................................................
.............................. CYCLE   42 ..............................
........................................................................

 iter      E             dE          RMSdq      gap      omega  full diag
   1   -116.2144184 -0.116214E+03  0.168E-02    1.55       0.0  T
   2   -116.2144185 -0.117208E-06  0.982E-03    1.55       1.2  T
   3   -116.2144184  0.121422E-06  0.150E-03    1.55       8.0  T
   4   -116.2144186 -0.152993E-06  0.327E-04    1.55      36.5  T
   5   -116.2144186 -0.383184E-08  0.166E-04    1.55      72.0  T
     SCC iter.                  ...        0 min,  0.101 sec
     gradient                   ...        0 min,  0.012 sec
 * total energy  :  -114.1676241 Eh     change       -0.1546809E-04 Eh
   gradient norm :     0.0019564 Eh/α   predicted    -0.1055167E-04 ( -31.78%)
   displ. norm   :     0.0998747 α      lambda       -0.1772609E-04
   maximum displ.:     0.0793666 α      in ANC's #1, #2, #7, ...
 * RMSD in coord.:     0.5613126 α      energy gain  -0.1620021E-02 Eh

generating ANC from model Hessian ...
Using Lindh-Hessian (1995)
 Shifting diagonal of input Hessian by    9.9366887991401524E-003
 Lowest  eigenvalues of input Hessian
    0.000000    0.000000    0.000000    0.000000    0.000000    0.000000
    0.010000    0.010175    0.010574    0.010665    0.010815    0.011008
    0.011109    0.011232    0.011275    0.011930    0.012250    0.013159
 Highest eigenvalues
    2.111607    2.121876    2.131770    2.156450    2.292303    2.532021


........................................................................
.............................. CYCLE   43 ..............................
........................................................................

 iter      E             dE          RMSdq      gap      omega  full diag
   1   -116.2139362 -0.116214E+03  0.194E-02    1.55       0.0  T
   2   -116.2139364 -0.147660E-06  0.113E-02    1.55       1.1  T
   3   -116.2139362  0.238042E-06  0.191E-03    1.55       6.3  T
   4   -116.2139364 -0.269663E-06  0.479E-04    1.55      25.0  T
   5   -116.2139364 -0.165855E-07  0.203E-04    1.55      58.9  T
     SCC iter.                  ...        0 min,  0.147 sec
     gradient                   ...        0 min,  0.026 sec
 * total energy  :  -114.1676463 Eh     change       -0.2218593E-04 Eh
   gradient norm :     0.0014834 Eh/α   predicted     0.0000000E+00 (-100.00%)
   displ. norm   :     0.0408146 α      lambda       -0.1000230E-04
   maximum displ.:     0.0306800 α      in ANC's #1, #2, #8, ...

........................................................................
.............................. CYCLE   44 ..............................
........................................................................

 iter      E             dE          RMSdq      gap      omega  full diag
   1   -116.2141189 -0.116214E+03  0.852E-03    1.55       0.0  T
   2   -116.2141190 -0.647080E-07  0.501E-03    1.55       2.4  T
   3   -116.2141189  0.918595E-07  0.119E-03    1.55      10.1  T
   4   -116.2141190 -0.105345E-06  0.302E-04    1.55      39.5  T
   5   -116.2141190 -0.620895E-08  0.126E-04    1.55      95.2  T
     SCC iter.                  ...        0 min,  0.178 sec
     gradient                   ...        0 min,  0.013 sec
 * total energy  :  -114.1676601 Eh     change       -0.1382929E-04 Eh
   gradient norm :     0.0005863 Eh/α   predicted    -0.5598993E-05 ( -59.51%)
   displ. norm   :     0.0979496 α      lambda       -0.1889104E-04
   maximum displ.:     0.0670045 α      in ANC's #1, #2, #8, ...

........................................................................
.............................. CYCLE   45 ..............................
........................................................................

 iter      E             dE          RMSdq      gap      omega  full diag
   1   -116.2142118 -0.116214E+03  0.191E-02    1.55       0.0  T
   2   -116.2142120 -0.188265E-06  0.111E-02    1.55       1.1  T
   3   -116.2142116  0.392276E-06  0.231E-03    1.55       5.2  T
   4   -116.2142121 -0.449458E-06  0.552E-04    1.55      21.7  T
   5   -116.2142121 -0.189323E-07  0.265E-04    1.55      45.1  T
     SCC iter.                  ...        0 min,  0.149 sec
     gradient                   ...        0 min,  0.013 sec
 * total energy  :  -114.1676830 Eh     change       -0.2287766E-04 Eh
   gradient norm :     0.0012601 Eh/α   predicted    -0.9486231E-05 ( -58.53%)
   displ. norm   :     0.1343486 α      lambda       -0.1939688E-04
   maximum displ.:     0.0907838 α      in ANC's #1, #2, #8, ...

........................................................................
.............................. CYCLE   46 ..............................
........................................................................

 iter      E             dE          RMSdq      gap      omega  full diag
   1   -116.2141600 -0.116214E+03  0.244E-02    1.55       0.0  T
   2   -116.2141602 -0.165333E-06  0.143E-02    1.55       1.0  T
   3   -116.2141598  0.383939E-06  0.223E-03    1.55       5.4  T
   4   -116.2141603 -0.458257E-06  0.512E-04    1.55      23.3  T
   5   -116.2141603 -0.814934E-08  0.298E-04    1.55      40.1  T
     SCC iter.                  ...        0 min,  0.095 sec
     gradient                   ...        0 min,  0.013 sec
 * total energy  :  -114.1677075 Eh     change       -0.2446532E-04 Eh
   gradient norm :     0.0016250 Eh/α   predicted    -0.9828147E-05 ( -59.83%)
   displ. norm   :     0.1457713 α      lambda       -0.1873899E-04
   maximum displ.:     0.0991527 α      in ANC's #1, #2, #8, ...

........................................................................
.............................. CYCLE   47 ..............................
........................................................................

 iter      E             dE          RMSdq      gap      omega  full diag
   1   -116.2142154 -0.116214E+03  0.252E-02    1.55       0.0  T
   2   -116.2142156 -0.143101E-06  0.147E-02    1.55       1.0  T
   3   -116.2142152  0.389850E-06  0.213E-03    1.55       5.6  T
   4   -116.2142156 -0.455867E-06  0.487E-04    1.55      24.5  T
   5   -116.2142156 -0.100309E-07  0.270E-04    1.55      44.3  T
     SCC iter.                  ...        0 min,  0.161 sec
     gradient                   ...        0 min,  0.047 sec
 * total energy  :  -114.1677321 Eh     change       -0.2460582E-04 Eh
   gradient norm :     0.0014790 Eh/α   predicted    -0.9474100E-05 ( -61.50%)
   displ. norm   :     0.1498342 α      lambda       -0.1876078E-04
   maximum displ.:     0.1042325 α      in ANC's #1, #2, #8, ...

........................................................................
.............................. CYCLE   48 ..............................
........................................................................

 iter      E             dE          RMSdq      gap      omega  full diag
   1   -116.2141931 -0.116214E+03  0.251E-02    1.55       0.0  T
   2   -116.2141933 -0.135701E-06  0.147E-02    1.55       1.0  T
   3   -116.2141928  0.495892E-06  0.236E-03    1.55       5.1  T
   4   -116.2141933 -0.560060E-06  0.476E-04    1.55      25.1  T
   5   -116.2141933 -0.145450E-07  0.232E-04    1.55      51.5  T
     SCC iter.                  ...        0 min,  0.379 sec
     gradient                   ...        0 min,  0.015 sec
 * total energy  :  -114.1677570 Eh     change       -0.2489046E-04 Eh
   gradient norm :     0.0008655 Eh/α   predicted    -0.9478047E-05 ( -61.92%)
   displ. norm   :     0.1512486 α      lambda       -0.1816857E-04
   maximum displ.:     0.1078214 α      in ANC's #1, #2, #8, ...

........................................................................
.............................. CYCLE   49 ..............................
........................................................................

 iter      E             dE          RMSdq      gap      omega  full diag
   1   -116.2141950 -0.116214E+03  0.253E-02    1.55       0.0  T
   2   -116.2141951 -0.101339E-06  0.148E-02    1.55       1.0  T
   3   -116.2141947  0.427066E-06  0.216E-03    1.55       5.5  T
   4   -116.2141952 -0.480187E-06  0.405E-04    1.55      29.5  T
   5   -116.2141952 -0.109749E-07  0.199E-04    1.55      60.0  T
     SCC iter.                  ...        0 min,  0.155 sec
     gradient                   ...        0 min,  0.013 sec
 * total energy  :  -114.1677813 Eh     change       -0.2437576E-04 Eh
   gradient norm :     0.0004790 Eh/α   predicted    -0.9179213E-05 ( -62.34%)
   displ. norm   :     0.1493889 α      lambda       -0.1741458E-04
   maximum displ.:     0.1084157 α      in ANC's #1, #2, #8, ...

........................................................................
.............................. CYCLE   50 ..............................
........................................................................

 iter      E             dE          RMSdq      gap      omega  full diag
   1   -116.2141756 -0.116214E+03  0.252E-02    1.55       0.0  T
   2   -116.2141757 -0.784739E-07  0.148E-02    1.55       1.0  T
   3   -116.2141754  0.341762E-06  0.191E-03    1.55       6.3  T
   4   -116.2141758 -0.386865E-06  0.351E-04    1.55      34.1  T
   5   -116.2141758 -0.748362E-08  0.184E-04    1.55      65.1  T
     SCC iter.                  ...        0 min,  0.176 sec
     gradient                   ...        0 min,  0.013 sec
 * total energy  :  -114.1678052 Eh     change       -0.2383567E-04 Eh
   gradient norm :     0.0007746 Eh/α   predicted    -0.8793965E-05 ( -63.11%)
   displ. norm   :     0.1526620 α      lambda       -0.1780708E-04
   maximum displ.:     0.1115034 α      in ANC's #1, #2, #9, ...

........................................................................
.............................. CYCLE   51 ..............................
........................................................................

 iter      E             dE          RMSdq      gap      omega  full diag
   1   -116.2141584 -0.116214E+03  0.258E-02    1.55       0.0  T
   2   -116.2141585 -0.677660E-07  0.151E-02    1.55       1.0  T
   3   -116.2141582  0.307405E-06  0.182E-03    1.55       6.6  T
   4   -116.2141585 -0.352723E-06  0.328E-04    1.55      36.5  T
   5   -116.2141585 -0.463029E-08  0.187E-04    1.55      64.0  T
     SCC iter.                  ...        0 min,  0.328 sec
     gradient                   ...        0 min,  0.013 sec
 * total energy  :  -114.1678299 Eh     change       -0.2474025E-04 Eh
   gradient norm :     0.0010118 Eh/α   predicted    -0.8996586E-05 ( -63.64%)
   displ. norm   :     0.1662346 α      lambda       -0.1952741E-04
   maximum displ.:     0.1214432 α      in ANC's #1, #2, #9, ...

........................................................................
.............................. CYCLE   52 ..............................
........................................................................

 iter      E             dE          RMSdq      gap      omega  full diag
   1   -116.2141512 -0.116214E+03  0.277E-02    1.55       0.0  T
   2   -116.2141513 -0.858000E-07  0.162E-02    1.55       1.0  T
   3   -116.2141509  0.399625E-06  0.218E-03    1.55       5.5  T
   4   -116.2141513 -0.459180E-06  0.364E-04    1.55      32.9  T
   5   -116.2141513 -0.551012E-08  0.208E-04    1.55      57.4  T
     SCC iter.                  ...        0 min,  0.308 sec
     gradient                   ...        0 min,  0.014 sec
 * total energy  :  -114.1678571 Eh     change       -0.2720443E-04 Eh
   gradient norm :     0.0010070 Eh/α   predicted    -0.9884534E-05 ( -63.67%)
   displ. norm   :     0.1864700 α      lambda       -0.2168779E-04
   maximum displ.:     0.1361355 α      in ANC's #1, #2, #9, ...

........................................................................
.............................. CYCLE   53 ..............................
........................................................................

 iter      E             dE          RMSdq      gap      omega  full diag
   1   -116.2141225 -0.116214E+03  0.304E-02    1.55       0.0  T
   2   -116.2141226 -0.110035E-06  0.178E-02    1.55       1.0  T
   3   -116.2141220  0.545867E-06  0.264E-03    1.55       4.5  T
   4   -116.2141227 -0.628705E-06  0.378E-04    1.55      31.7  T
   5   -116.2141227 -0.503945E-08  0.215E-04    1.55      55.5  T
     SCC iter.                  ...        0 min,  0.163 sec
     gradient                   ...        0 min,  0.014 sec
 * total energy  :  -114.1678873 Eh     change       -0.3015083E-04 Eh
   gradient norm :     0.0008005 Eh/α   predicted    -0.1101217E-04 ( -63.48%)
   displ. norm   :     0.2028555 α      lambda       -0.2307174E-04
   maximum displ.:     0.1483302 α      in ANC's #1, #2, #9, ...

........................................................................
.............................. CYCLE   54 ..............................
........................................................................

 iter      E             dE          RMSdq      gap      omega  full diag
   1   -116.2141266 -0.116214E+03  0.322E-02    1.55       0.0  T
   2   -116.2141267 -0.131210E-06  0.189E-02    1.55       1.0  T
   3   -116.2141261  0.624636E-06  0.287E-03    1.55       4.2  T
   4   -116.2141268 -0.723823E-06  0.387E-04    1.55      30.9  T
   5   -116.2141268 -0.441261E-08  0.214E-04    1.55      55.9  T
     SCC iter.                  ...        0 min,  0.208 sec
     gradient                   ...        0 min,  0.015 sec
 * total energy  :  -114.1679194 Eh     change       -0.3215362E-04 Eh
   gradient norm :     0.0005273 Eh/α   predicted    -0.1174732E-04 ( -63.47%)
   displ. norm   :     0.2109802 α      lambda       -0.2361603E-04
   maximum displ.:     0.1548184 α      in ANC's #1, #2, #9, ...

........................................................................
.............................. CYCLE   55 ..............................
........................................................................

 iter      E             dE          RMSdq      gap      omega  full diag
   1   -116.2141473 -0.116214E+03  0.328E-02    1.55       0.0  T
   2   -116.2141475 -0.131811E-06  0.192E-02    1.55       1.0  T
   3   -116.2141469  0.540237E-06  0.267E-03    1.55       4.5  T
   4   -116.2141476 -0.634025E-06  0.389E-04    1.55      30.8  T
   5   -116.2141476 -0.332952E-08  0.223E-04    1.55      53.6  T
     SCC iter.                  ...        0 min,  0.143 sec
     gradient                   ...        0 min,  0.014 sec
 * total energy  :  -114.1679526 Eh     change       -0.3317147E-04 Eh
   gradient norm :     0.0004634 Eh/α   predicted    -0.1204226E-04 ( -63.70%)
   displ. norm   :     0.2125240 α      lambda       -0.2380119E-04
   maximum displ.:     0.1566615 α      in ANC's #1, #2, #6, ...

........................................................................
.............................. CYCLE   56 ..............................
........................................................................

 iter      E             dE          RMSdq      gap      omega  full diag
   1   -116.2141878 -0.116214E+03  0.323E-02    1.55       0.0  T
   2   -116.2141879 -0.138553E-06  0.189E-02    1.55       1.0  T
   3   -116.2141874  0.517148E-06  0.255E-03    1.55       4.7  T
   4   -116.2141880 -0.610191E-06  0.420E-04    1.55      28.4  T
   5   -116.2141880 -0.286757E-08  0.252E-04    1.55      47.5  T
     SCC iter.                  ...        0 min,  0.223 sec
     gradient                   ...        0 min,  0.014 sec
 * total energy  :  -114.1679862 Eh     change       -0.3363826E-04 Eh
   gradient norm :     0.0005908 Eh/α   predicted    -0.1214041E-04 ( -63.91%)
   displ. norm   :     0.2129912 α      lambda       -0.2384449E-04
   maximum displ.:     0.1580184 α      in ANC's #1, #2, #6, ...

........................................................................
.............................. CYCLE   57 ..............................
........................................................................

 iter      E             dE          RMSdq      gap      omega  full diag
   1   -116.2142436 -0.116214E+03  0.321E-02    1.55       0.0  T
   2   -116.2142438 -0.145434E-06  0.188E-02    1.55       1.0  T
   3   -116.2142431  0.637561E-06  0.265E-03    1.55       4.5  T
   4   -116.2142439 -0.739969E-06  0.471E-04    1.55      25.4  T
   5   -116.2142439 -0.313038E-08  0.287E-04    1.55      41.6  T
     SCC iter.                  ...        0 min,  0.194 sec
     gradient                   ...        0 min,  0.013 sec
 * total energy  :  -114.1680198 Eh     change       -0.3361512E-04 Eh
   gradient norm :     0.0006622 Eh/α   predicted    -0.1216329E-04 ( -63.82%)
   displ. norm   :     0.2037177 α      lambda       -0.2233863E-04
   maximum displ.:     0.1528361 α      in ANC's #1, #2, #6, ...

........................................................................
.............................. CYCLE   58 ..............................
........................................................................

 iter      E             dE          RMSdq      gap      omega  full diag
   1   -116.2142689 -0.116214E+03  0.307E-02    1.55       0.0  T
   2   -116.2142690 -0.147370E-06  0.179E-02    1.55       1.0  T
   3   -116.2142683  0.766197E-06  0.278E-03    1.55       4.3  T
   4   -116.2142691 -0.876484E-06  0.492E-04    1.55      24.3  T
   5   -116.2142691 -0.406095E-08  0.290E-04    1.55      41.2  T
     SCC iter.                  ...        0 min,  0.138 sec
     gradient                   ...        0 min,  0.015 sec
 * total energy  :  -114.1680511 Eh     change       -0.3126705E-04 Eh
   gradient norm :     0.0006164 Eh/α   predicted    -0.1137554E-04 ( -63.62%)
   displ. norm   :     0.1780460 α      lambda       -0.1879484E-04
   maximum displ.:     0.1360364 α      in ANC's #1, #2, #6, ...

........................................................................
.............................. CYCLE   59 ..............................
........................................................................

 iter      E             dE          RMSdq      gap      omega  full diag
   1   -116.2143382 -0.116214E+03  0.270E-02    1.55       0.0  T
   2   -116.2143383 -0.119423E-06  0.158E-02    1.55       1.0  T
   3   -116.2143376  0.706583E-06  0.265E-03    1.55       4.5  T
   4   -116.2143384 -0.803234E-06  0.448E-04    1.55      26.7  T
   5   -116.2143384 -0.279174E-08  0.261E-04    1.55      45.9  T
     SCC iter.                  ...        0 min,  0.125 sec
     gradient                   ...        0 min,  0.021 sec
 * total energy  :  -114.1680774 Eh     change       -0.2627918E-04 Eh
   gradient norm :     0.0004944 Eh/α   predicted    -0.9529925E-05 ( -63.74%)
   displ. norm   :     0.1413395 α      lambda       -0.1456639E-04
   maximum displ.:     0.1107182 α      in ANC's #1, #2, #11, ...

........................................................................
.............................. CYCLE   60 ..............................
........................................................................

 iter      E             dE          RMSdq      gap      omega  full diag
   1   -116.2143983 -0.116214E+03  0.219E-02    1.55       0.0  T
   2   -116.2143984 -0.810591E-07  0.128E-02    1.55       1.0  T
   3   -116.2143979  0.481286E-06  0.219E-03    1.55       5.5  T
   4   -116.2143984 -0.546189E-06  0.375E-04    1.55      31.9  T
   5   -116.2143984 -0.281685E-08  0.213E-04    1.55      56.0  T
     SCC iter.                  ...        0 min,  0.149 sec
     gradient                   ...        0 min,  0.014 sec
 * total energy  :  -114.1680980 Eh     change       -0.2063080E-04 Eh
   gradient norm :     0.0003652 Eh/α   predicted    -0.7348230E-05 ( -64.38%)
   displ. norm   :     0.1077305 α      lambda       -0.1136755E-04
   maximum displ.:     0.0866236 α      in ANC's #1, #2, #11, ...

........................................................................
.............................. CYCLE   61 ..............................
........................................................................

 iter      E             dE          RMSdq      gap      omega  full diag
   1   -116.2144413 -0.116214E+03  0.175E-02    1.55       0.0  T
[...]
        96        2.0000           -0.4111002             -11.1866
        97        2.0000           -0.4102162             -11.1626
        98        2.0000           -0.4086241             -11.1192
        99        2.0000           -0.4068676             -11.0714
       100        2.0000           -0.3975006             -10.8165
       101        2.0000           -0.3868548             -10.5269
       102        2.0000           -0.3825927             -10.4109
       103        2.0000           -0.3732947             -10.1579
       104        2.0000           -0.3708108             -10.0903
       105        2.0000           -0.3680597             -10.0154
       106        1.0000           -0.3327466              -9.0545 (HOMO)
       107                         -0.2758186              -7.5054 (LUMO)
       108                         -0.2698586              -7.3432
       109                         -0.2559097              -6.9637
       110                         -0.2451845              -6.6718
       111                         -0.2440137              -6.6400
       112                         -0.2296001              -6.2477
       113                         -0.2294552              -6.2438
       114                         -0.2272118              -6.1827
       115                         -0.2224649              -6.0536
       116                         -0.2039629              -5.5501
       117                         -0.2000736              -5.4443
       ...                                ...                  ...
       205                          0.7192198              19.5710
      -------------------------------------------------------------
                  HL-Gap            0.0569279 Eh            1.5491 eV
             Fermi-level           -0.3273292 Eh           -8.9071 eV

     #   Z          covCN         q      C6AA      α(0)
     1   6 C        2.977     0.004    27.930     8.669
     2   6 C        2.980     0.004    27.925     8.668
     3   6 C        2.978     0.004    27.930     8.669
     4   6 C        2.990     0.010    27.783     8.646
     5   6 C        2.988     0.010    27.797     8.648
     6   6 C        2.989     0.011    27.771     8.644
     7   6 C        2.984     0.011    27.754     8.642
     8   6 C        2.983     0.012    27.746     8.641
     9   6 C        2.989     0.013    27.726     8.637
    10   6 C        2.989     0.014    27.703     8.634
    11   6 C        2.919    -0.037    28.923     8.819
    12   6 C        2.918    -0.038    28.942     8.822
    13   6 C        2.917    -0.038    28.936     8.821
    14   6 C        2.918    -0.037    28.918     8.818
    15   6 C        2.917    -0.036    28.895     8.815
    16   6 C        2.918    -0.037    28.911     8.817
    17   6 C        2.914    -0.037    28.917     8.818
    18   6 C        2.915    -0.034    28.848     8.807
    19   6 C        2.930    -0.033    28.813     8.803
    20   6 C        2.919    -0.032    28.798     8.800
    21   6 C        2.921    -0.036    28.892     8.815
    22   6 C        2.922    -0.035    28.875     8.812
    23   6 C        2.987    -0.001    28.045     8.687
    24   6 C        2.918    -0.032    28.787     8.798
    25   6 C        2.918    -0.031    28.780     8.797
    26   6 C        2.916    -0.030    28.760     8.794
    27   1 H        0.926     0.033     2.548     2.496
    28   1 H        0.926     0.032     2.553     2.498
    29   1 H        0.926     0.032     2.557     2.501
    30   1 H        0.926     0.032     2.557     2.501
    31   1 H        0.926     0.033     2.543     2.494
    32   1 H        0.926     0.030     2.579     2.511
    33   1 H        0.926     0.033     2.545     2.495
    34   1 H        0.926     0.028     2.609     2.526
    35   1 H        0.926     0.059     2.208     2.324
    36   1 H        0.926     0.033     2.543     2.494
    37   1 H        0.926     0.036     2.496     2.471
    38   1 H        0.925     0.025     2.653     2.547
    39   1 H        0.926     0.029     2.597     2.520
    40   1 H        0.926     0.028     2.614     2.528
    41   6 C        2.877     0.165    24.449     8.106
    42   7 N        1.928    -0.245    27.238     7.738
    43   7 N        2.849     0.031    20.701     6.758
    44   6 C        2.701     0.304    21.835     7.648
    45   7 N        2.846     0.035    20.635     6.747
    46   7 N        1.932    -0.250    27.344     7.754
    47   8 O        0.858    -0.440    22.489     6.358
    48   6 C        2.930     0.067    26.499     8.442
    49   6 C        2.919    -0.039    28.970     8.826
    50   6 C        2.921    -0.027    28.675     8.781
    51   6 C        2.919    -0.030    28.750     8.793
    52   6 C        2.920    -0.026    28.644     8.777
    53   6 C        2.925    -0.035    28.868     8.811
    54   6 C        2.931     0.067    26.509     8.444
    55   6 C        2.924    -0.035    28.876     8.812
    56   6 C        2.920    -0.027    28.671     8.781
    57   6 C        2.919    -0.030    28.746     8.792
    58   6 C        2.922    -0.026    28.652     8.778
    59   6 C        2.919    -0.035    28.882     8.813
    60   1 H        0.926     0.059     2.213     2.326
    61   1 H        0.926     0.040     2.445     2.445
    62   1 H        0.926     0.039     2.465     2.455
    63   1 H        0.926     0.042     2.417     2.431
    64   1 H        0.926     0.065     2.137     2.286
    65   1 H        0.926     0.070     2.088     2.260
    66   1 H        0.926     0.041     2.434     2.440
    67   1 H        0.926     0.038     2.481     2.463
    68   1 H        0.926     0.039     2.461     2.453
    69   1 H        0.926     0.058     2.218     2.329
    70   1 H        0.926     0.051     2.313     2.378

 Mol. C6AA /au·bohr⁶  :      75836.840794
 Mol. C8AA /au·bohr⁸  :    1930177.790066
 Mol. α(0) /au        :        444.474182


Wiberg/Mayer (AO) data.
largest (>0.10) Wiberg bond orders for each atom

 ---------------------------------------------------------------------------
     #   Z sym  total        # sym  WBO       # sym  WBO       # sym  WBO
 ---------------------------------------------------------------------------
     1   6 C    3.987 --     4 C    1.298     2 C    1.218     3 C    1.213
     2   6 C    3.983 --     5 C    1.326     1 C    1.218     7 C    1.177
     3   6 C    3.985 --     6 C    1.328     1 C    1.213     8 C    1.176
     4   6 C    3.981 --     1 C    1.298    11 C    1.247    12 C    1.247
     5   6 C    3.987 --     2 C    1.326    13 C    1.245    15 C    1.224
     6   6 C    3.987 --     3 C    1.328    14 C    1.246    16 C    1.222
     7   6 C    3.988 --    19 C    1.328     9 C    1.270     2 C    1.177
     8   6 C    3.988 --    20 C    1.314    10 C    1.277     3 C    1.176
     9   6 C    3.983 --    21 C    1.296     7 C    1.270    17 C    1.227
    10   6 C    3.987 --    22 C    1.306     8 C    1.277    18 C    1.220
    11   6 C    3.981 --    13 C    1.595     4 C    1.247    27 H    0.967
    12   6 C    3.980 --    14 C    1.595     4 C    1.247    28 H    0.967
    13   6 C    3.976 --    11 C    1.595     5 C    1.245    29 H    0.967
    14   6 C    3.976 --    12 C    1.595     6 C    1.246    30 H    0.967
    15   6 C    3.979 --    17 C    1.620     5 C    1.224    31 H    0.967
    16   6 C    3.988 --    18 C    1.626     6 C    1.222    32 H    0.967
    17   6 C    3.981 --    15 C    1.620     9 C    1.227    33 H    0.967
    18   6 C    3.982 --    16 C    1.626    10 C    1.220    34 H    0.966
    19   6 C    3.982 --    23 C    1.450     7 C    1.328    35 H    0.955
                            21 C    0.104
    20   6 C    3.992 --    24 C    1.521     8 C    1.314    36 H    0.964
                            22 C    0.111
    21   6 C    3.984 --    25 C    1.541     9 C    1.296    37 H    0.968
                            19 C    0.104
    22   6 C    3.985 --    26 C    1.526    10 C    1.306    38 H    0.968
                            20 C    0.111
    23   6 C    3.980 --    19 C    1.450    25 C    1.302    41 C    1.044
    24   6 C    3.987 --    20 C    1.521    26 C    1.348    39 H    0.971
    25   6 C    3.978 --    21 C    1.541    23 C    1.302    70 H    0.967
    26   6 C    3.984 --    22 C    1.526    24 C    1.348    40 H    0.971
    27   1 H    0.998 --    11 C    0.967
    28   1 H    0.998 --    12 C    0.967
    29   1 H    0.997 --    13 C    0.967
    30   1 H    0.998 --    14 C    0.967
    31   1 H    0.998 --    15 C    0.967
    32   1 H    0.998 --    16 C    0.967
    33   1 H    0.997 --    17 C    0.967
    34   1 H    0.998 --    18 C    0.966
    35   1 H    0.996 --    19 C    0.955
    36   1 H    0.998 --    20 C    0.964
    37   1 H    0.998 --    21 C    0.968
    38   1 H    0.999 --    22 C    0.968
    39   1 H    0.999 --    24 C    0.971
    40   1 H    0.998 --    26 C    0.971
    41   6 C    3.966 --    42 N    1.388    46 N    1.380    23 C    1.044
    42   7 N    2.902 --    41 C    1.388    43 N    1.156    46 N    0.124
    43   7 N    3.618 --    42 N    1.156    44 C    1.096    54 C    1.036
                            47 O    0.126
    44   6 C    3.960 --    47 O    1.634    43 N    1.096    45 N    1.093
    45   7 N    3.624 --    46 N    1.160    44 C    1.093    48 C    1.043
                            47 O    0.123
    46   7 N    2.903 --    41 C    1.380    45 N    1.160    42 N    0.124
    47   8 O    2.000 --    44 C    1.634    43 N    0.126    45 N    0.123
    48   6 C    3.951 --    49 C    1.369    53 C    1.358    45 N    1.043
    49   6 C    3.983 --    50 C    1.450    48 C    1.369    65 H    0.962
                            52 C    0.104
    50   6 C    3.990 --    49 C    1.450    51 C    1.433    66 H    0.970
                            53 C    0.106
    51   6 C    3.975 --    50 C    1.433    52 C    1.423    67 H    0.971
    52   6 C    3.991 --    53 C    1.464    51 C    1.423    68 H    0.970
                            49 C    0.104
    53   6 C    3.985 --    52 C    1.464    48 C    1.358    69 H    0.963
                            50 C    0.106
    54   6 C    3.952 --    59 C    1.374    55 C    1.363    43 N    1.036
    55   6 C    3.984 --    56 C    1.461    54 C    1.363    60 H    0.964
                            58 C    0.107
    56   6 C    3.991 --    55 C    1.461    57 C    1.425    61 H    0.970
                            59 C    0.105
    57   6 C    3.976 --    58 C    1.434    56 C    1.425    62 H    0.971
    58   6 C    3.990 --    59 C    1.449    57 C    1.434    63 H    0.970
                            55 C    0.107
    59   6 C    3.984 --    58 C    1.449    54 C    1.374    64 H    0.964
                            56 C    0.105
    60   1 H    0.996 --    55 C    0.964
    61   1 H    0.998 --    56 C    0.970
    62   1 H    0.998 --    57 C    0.971
    63   1 H    0.997 --    58 C    0.970
    64   1 H    0.996 --    59 C    0.964
    65   1 H    0.995 --    49 C    0.962
    66   1 H    0.998 --    50 C    0.970
    67   1 H    0.998 --    51 C    0.971
    68   1 H    0.998 --    52 C    0.970
    69   1 H    0.997 --    53 C    0.963
    70   1 H    0.996 --    25 C    0.967
 ---------------------------------------------------------------------------

Topologies differ in bond orders
Writing corrected topology to xtbtopo.mol

molecular dipole:
                 x           y           z       tot (Debye)
 q only:       -0.479       0.586      -0.199
   full:       -0.431       0.469      -0.149       1.661
molecular quadrupole (traceless):
                xx          xy          yy          xz          yz          zz
 q only:       10.636       9.305      -1.507       0.305      -3.850      -9.129
  q+dip:       16.687      10.422       2.484       3.997     -10.858     -19.172
   full:        9.896       8.511      -0.998       0.714      -3.544      -8.898

           -------------------------------------------------
          |                Geometry Summary                 |
           -------------------------------------------------

      molecular mass/u    :      577.6541725
   center of mass at/Å    :       -0.1554826       0.2134556      -0.2689223
  moments of inertia/u·Å² :        0.4053051E+04   0.7750466E+04   0.1046190E+05
rotational constants/cm⁻¹ :        0.4159245E-02   0.2175048E-02   0.1611336E-02

 * 73 selected distances

     #   Z          #   Z                                           value/Å
     1   6 C        4   6 C                                       1.4153121
     2   6 C        5   6 C                                       1.4081432
     3   6 C        6   6 C                                       1.4081099
     7   6 C        9   6 C                                       1.4165205
     8   6 C       10   6 C                                       1.4160755
     4   6 C       11   6 C                                       1.4153694
     4   6 C       12   6 C                                       1.4152544
     5   6 C       13   6 C                                       1.4151723
    11   6 C       13   6 C                                       1.3576322
     6   6 C       14   6 C                                       1.4152137
    12   6 C       14   6 C                                       1.3576441
     5   6 C       15   6 C                                       1.4211503 (max)
     6   6 C       16   6 C                                       1.4210191
     9   6 C       17   6 C                                       1.4190543
    15   6 C       17   6 C                                       1.3556466
    10   6 C       18   6 C                                       1.4201236
    16   6 C       18   6 C                                       1.3535704
     7   6 C       19   6 C                                       1.3995260
     8   6 C       20   6 C                                       1.4060753
     9   6 C       21   6 C                                       1.4079752
    10   6 C       22   6 C                                       1.4054948
    19   6 C       23   6 C                                       1.3784228
    20   6 C       24   6 C                                       1.3709068
    21   6 C       25   6 C                                       1.3679690
    23   6 C       25   6 C                                       1.4038389
    22   6 C       26   6 C                                       1.3696571
    24   6 C       26   6 C                                       1.3976374
    11   6 C       27   1 H                                       1.0804773
    12   6 C       28   1 H                                       1.0804217
    13   6 C       29   1 H                                       1.0803253
    14   6 C       30   1 H                                       1.0803424
    15   6 C       31   1 H                                       1.0807915
    16   6 C       32   1 H                                       1.0804858
    17   6 C       33   1 H                                       1.0804628
    18   6 C       34   1 H                                       1.0802146
    19   6 C       35   1 H                                       1.0762611 (min)
    20   6 C       36   1 H                                       1.0792783
    21   6 C       37   1 H                                       1.0808399
    22   6 C       38   1 H                                       1.0818852
    24   6 C       39   1 H                                       1.0799768
    26   6 C       40   1 H                                       1.0804924
    41   6 C       42   7 N                                       1.3181656
    42   7 N       43   7 N                                       1.3523068
    43   7 N       44   6 C                                       1.3891265
    44   6 C       45   7 N                                       1.3897765
    41   6 C       46   7 N                                       1.3195857
    45   7 N       46   7 N                                       1.3503082
    44   6 C       47   8 O                                       1.2099997
    45   7 N       48   6 C                                       1.4078219
    48   6 C       49   6 C                                       1.3927152
    49   6 C       50   6 C                                       1.3830679
    50   6 C       51   6 C                                       1.3846335
    51   6 C       52   6 C                                       1.3858693
    48   6 C       53   6 C                                       1.3958004
    52   6 C       53   6 C                                       1.3790639
    43   7 N       54   6 C                                       1.4090250
    54   6 C       55   6 C                                       1.3945116
    55   6 C       56   6 C                                       1.3797939
    56   6 C       57   6 C                                       1.3861845
    57   6 C       58   6 C                                       1.3847560
    54   6 C       59   6 C                                       1.3915321
    58   6 C       59   6 C                                       1.3830286
    55   6 C       60   1 H                                       1.0785839
    56   6 C       61   1 H                                       1.0798408
    57   6 C       62   1 H                                       1.0796044
    58   6 C       63   1 H                                       1.0796100
Note: The following floating-point exceptions are signalling: IEEE_UNDERFLOW_FLAG
normal termination of xtb
    59   6 C       64   1 H                                       1.0767013
    49   6 C       65   1 H                                       1.0764589
    50   6 C       66   1 H                                       1.0799410
    51   6 C       67   1 H                                       1.0796949
    52   6 C       68   1 H                                       1.0797443
    53   6 C       69   1 H                                       1.0777997
    25   6 C       70   1 H                                       1.0782696

 * 5 distinct bonds (by element types)

   Z      Z             #   av. dist./Å        max./Å        min./Å
   1 H    6 C          25     1.0795402     1.0818852     1.0762611
   6 C    6 C          39     1.3943454     1.4211503     1.3535704
   6 C    7 N           6     1.3722502     1.4090250     1.3181656
   7 N    7 N           2     1.3513075     1.3523068     1.3503082
   6 C    8 O           1     1.2099997     1.2099997     1.2099997


optimized geometry written to: xtbopt.mol


           -------------------------------------------------
          | TOTAL ENERGY             -114.171178143186 Eh   |
          | GRADIENT NORM               0.000488397086 Eh/α |
          | HOMO-LUMO GAP               1.549088023114 eV   |
           -------------------------------------------------
########################################################################
[WARNING] Runtime exception occurred
-2- restart_readRestart: Dimension missmatch in restart file.
-1- restart_readRestart: Number of electron missmatch in restart file.
########################################################################

------------------------------------------------------------------------
 * finished run on 2024/11/14 at 15:18:05.506     
------------------------------------------------------------------------
 total:
 * wall-time:     0 d,  0 h,  0 min, 30.846 sec
 *  cpu-time:     0 d,  0 h,  1 min, 42.136 sec
 * ratio c/w:     3.311 speedup
 SCF:
 * wall-time:     0 d,  0 h,  0 min,  0.581 sec
 *  cpu-time:     0 d,  0 h,  0 min,  2.229 sec
 * ratio c/w:     3.835 speedup
 ANC optimizer:
 * wall-time:     0 d,  0 h,  0 min, 30.235 sec
 *  cpu-time:     0 d,  0 h,  1 min, 39.886 sec
 * ratio c/w:     3.304 speedup

