140
 energy: -227.818428832982 gnorm: 0.166636292614 xtb: 6.6.1 (8d0f1dd)
C           -3.51400000000000        1.88950000000000       -0.64010000000000
C           -2.76430000000000        2.76280000000000       -1.49780000000000
C           -2.95390000000000        0.99910000000000        0.33880000000000
C           -4.92170000000000        1.89300000000000       -0.78640000000000
C           -3.42050000000000        3.85470000000000       -2.09770000000000
C           -3.71530000000000       -0.11560000000000        0.73970000000000
C           -1.38020000000000        2.55660000000000       -1.83340000000000
C           -1.68110000000000        1.19900000000000        0.98450000000000
C           -0.63910000000000        3.59990000000000       -2.44060000000000
C           -1.08130000000000        0.12100000000000        1.67970000000000
C           -5.55840000000000        2.94370000000000       -1.48910000000000
C           -5.69230000000000        0.83920000000000       -0.23980000000000
C           -4.83160000000000        3.94730000000000       -2.04390000000000
C           -5.08910000000000       -0.19010000000000        0.40820000000000
C           -2.66640000000000        4.85270000000000       -2.77220000000000
C           -3.11020000000000       -1.15570000000000        1.49540000000000
C           -1.31790000000000        4.76600000000000       -2.88010000000000
C           -1.81630000000000       -1.07670000000000        1.88510000000000
C           -0.72330000000000        1.34420000000000       -1.59420000000000
C           -1.02070000000000        2.44020000000000        1.00720000000000
C            0.74960000000000        3.44800000000000       -2.61650000000000
C            0.21610000000000        0.26870000000000        2.19950000000000
C            0.64570000000000        1.23540000000000       -1.71300000000000
C            0.23020000000000        2.57000000000000        1.55270000000000
C            1.39600000000000        2.31380000000000       -2.20780000000000
C            0.87890000000000        1.46380000000000        2.10850000000000
H           -6.63750000000000        2.94390000000000       -1.54310000000000
H           -6.76160000000000        0.85060000000000       -0.39360000000000
H           -5.31430000000000        4.79430000000000       -2.50950000000000
H           -5.65500000000000       -1.04810000000000        0.74110000000000
H           -3.19930000000000        5.70100000000000       -3.17780000000000
H           -3.70500000000000       -2.02660000000000        1.73020000000000
H           -0.74420000000000        5.55760000000000       -3.34020000000000
H           -1.34290000000000       -1.89400000000000        2.40930000000000
H           -1.27660000000000        0.47380000000000       -1.28660000000000
H           -1.51640000000000        3.30980000000000        0.60360000000000
H            1.30230000000000        4.25950000000000       -3.06830000000000
H            0.67530000000000       -0.57990000000000        2.68890000000000
H            0.72060000000000        3.53220000000000        1.55260000000000
H            1.88180000000000        1.56620000000000        2.49740000000000
C            1.29240000000000        0.03150000000000       -1.19290000000000
N            2.59220000000000        0.07650000000000       -0.97840000000000
N            3.15220000000000       -1.00970000000000       -0.39940000000000
C            2.42450000000000       -2.11100000000000        0.03320000000000
N            1.06690000000000       -2.03830000000000       -0.25510000000000
N            0.50800000000000       -0.98530000000000       -0.88910000000000
O            2.93340000000000       -3.04590000000000        0.60870000000000
C            0.14770000000000       -3.04540000000000        0.09560000000000
C            0.35680000000000       -3.92160000000000        1.15770000000000
C           -0.61460000000000       -4.85440000000000        1.47260000000000
C           -1.79340000000000       -4.92410000000000        0.74960000000000
C           -2.00140000000000       -4.04870000000000       -0.30450000000000
C           -1.04140000000000       -3.11440000000000       -0.63210000000000
C            4.53430000000000       -0.88880000000000       -0.15340000000000
C            5.04720000000000        0.39140000000000        0.05310000000000
C            6.39670000000000        0.56480000000000        0.28200000000000
C            7.24660000000000       -0.53000000000000        0.30600000000000
C            6.73660000000000       -1.79910000000000        0.08960000000000
C            5.38690000000000       -1.98850000000000       -0.14560000000000
H            4.37060000000000        1.23120000000000        0.03240000000000
H            6.78710000000000        1.55790000000000        0.44780000000000
H            8.30160000000000       -0.39330000000000        0.49020000000000
H            7.39550000000000       -2.65430000000000        0.09650000000000
H            5.00340000000000       -2.97940000000000       -0.31940000000000
H            1.26450000000000       -3.87700000000000        1.73470000000000
H           -0.44780000000000       -5.52810000000000        2.29990000000000
H           -2.54530000000000       -5.65520000000000        1.00630000000000
H           -2.91630000000000       -4.09440000000000       -0.87610000000000
H           -1.19340000000000       -2.42590000000000       -1.44730000000000
H            2.46690000000000        2.21400000000000       -2.28540000000000
C           -3.51400000000000        1.88950000000000        5.35990000000000
C           -2.76430000000000        2.76280000000000        4.50220000000000
C           -2.95390000000000        0.99910000000000        6.33880000000000
C           -4.92170000000000        1.89300000000000        5.21360000000000
C           -3.42050000000000        3.85470000000000        3.90230000000000
C           -3.71530000000000       -0.11560000000000        6.73970000000000
C           -1.38020000000000        2.55660000000000        4.16660000000000
C           -1.68110000000000        1.19900000000000        6.98450000000000
C           -0.63910000000000        3.59990000000000        3.55940000000000
C           -1.08130000000000        0.12100000000000        7.67970000000000
C           -5.55840000000000        2.94370000000000        4.51090000000000
C           -5.69230000000000        0.83920000000000        5.76020000000000
C           -4.83160000000000        3.94730000000000        3.95610000000000
C           -5.08910000000000       -0.19010000000000        6.40820000000000
C           -2.66640000000000        4.85270000000000        3.22780000000000
C           -3.11020000000000       -1.15570000000000        7.49540000000000
C           -1.31790000000000        4.76600000000000        3.11990000000000
C           -1.81630000000000       -1.07670000000000        7.88510000000000
C           -0.72330000000000        1.34420000000000        4.40580000000000
C           -1.02070000000000        2.44020000000000        7.00720000000000
C            0.74960000000000        3.44800000000000        3.38350000000000
C            0.21610000000000        0.26870000000000        8.19950000000000
C            0.64570000000000        1.23540000000000        4.28700000000000
C            0.23020000000000        2.57000000000000        7.55270000000000
C            1.39600000000000        2.31380000000000        3.79220000000000
C            0.87890000000000        1.46380000000000        8.10850000000000
H           -6.63750000000000        2.94390000000000        4.45690000000000
H           -6.76160000000000        0.85060000000000        5.60640000000000
H           -5.31430000000000        4.79430000000000        3.49050000000000
H           -5.65500000000000       -1.04810000000000        6.74110000000000
H           -3.19930000000000        5.70100000000000        2.82220000000000
H           -3.70500000000000       -2.02660000000000        7.73020000000000
H           -0.74420000000000        5.55760000000000        2.65980000000000
H           -1.34290000000000       -1.89400000000000        8.40930000000000
H           -1.27660000000000        0.47380000000000        4.71340000000000
H           -1.51640000000000        3.30980000000000        6.60360000000000
H            1.30230000000000        4.25950000000000        2.93170000000000
H            0.67530000000000       -0.57990000000000        8.68890000000000
H            0.72060000000000        3.53220000000000        7.55260000000000
H            1.88180000000000        1.56620000000000        8.49740000000000
C            1.29240000000000        0.03150000000000        4.80710000000000
N            2.59220000000000        0.07650000000000        5.02160000000000
N            3.15220000000000       -1.00970000000000        5.60060000000000
C            2.42450000000000       -2.11100000000000        6.03320000000000
N            1.06690000000000       -2.03830000000000        5.74490000000000
N            0.50800000000000       -0.98530000000000        5.11090000000000
O            2.93340000000000       -3.04590000000000        6.60870000000000
C            0.14770000000000       -3.04540000000000        6.09560000000000
C            0.35680000000000       -3.92160000000000        7.15770000000000
C           -0.61460000000000       -4.85440000000000        7.47260000000000
C           -1.79340000000000       -4.92410000000000        6.74960000000000
C           -2.00140000000000       -4.04870000000000        5.69550000000000
C           -1.04140000000000       -3.11440000000000        5.36790000000000
C            4.53430000000000       -0.88880000000000        5.84660000000000
C            5.04720000000000        0.39140000000000        6.05310000000000
C            6.39670000000000        0.56480000000000        6.28200000000000
C            7.24660000000000       -0.53000000000000        6.30600000000000
C            6.73660000000000       -1.79910000000000        6.08960000000000
C            5.38690000000000       -1.98850000000000        5.85440000000000
H            4.37060000000000        1.23120000000000        6.03240000000000
H            6.78710000000000        1.55790000000000        6.44780000000000
H            8.30160000000000       -0.39330000000000        6.49020000000000
H            7.39550000000000       -2.65430000000000        6.09650000000000
H            5.00340000000000       -2.97940000000000        5.68060000000000
H            1.26450000000000       -3.87700000000000        7.73470000000000
H           -0.44780000000000       -5.52810000000000        8.29990000000000
H           -2.54530000000000       -5.65520000000000        7.00630000000000
H           -2.91630000000000       -4.09440000000000        5.12390000000000
H           -1.19340000000000       -2.42590000000000        4.55270000000000
H            2.46690000000000        2.21400000000000        3.71460000000000
140
 energy: -227.892924732562 gnorm: 0.096869550381 xtb: 6.6.1 (8d0f1dd)
C           -3.51690009818965        1.89044131453704       -0.64096103724444
C           -2.76524402873516        2.76180398390274       -1.49766094000941
C           -2.96265298703466        0.99690173412045        0.33772319368717
C           -4.92404834273850        1.89450711923167       -0.78583784879153
C           -3.42113422958056        3.85441875142198       -2.09827063489269
C           -3.72104397456626       -0.11954851766426        0.74034330650682
C           -1.38014586679695        2.55628670366975       -1.83174499182452
C           -1.69719125802093        1.19155714244271        0.97485547782558
C           -0.63891332025360        3.59971604079549       -2.43992310843141
C           -1.09089753219513        0.10736102694261        1.65657594069904
C           -5.55996343732558        2.94478236226652       -1.48939003338882
C           -5.69392038180704        0.84007615032487       -0.23972054458347
C           -4.83233292244564        3.94786769279072       -2.04435659065904
C           -5.09217114548904       -0.19137154157003        0.40931391255774
C           -2.66655987891260        4.85270839400098       -2.77186744591665
C           -3.11719918721663       -1.15880869675358        1.49823768370982
C           -1.31748916330046        4.76601829747943       -2.87973370577800
C           -1.82344135364563       -1.08179925049156        1.88434793894197
C           -0.72381117579809        1.34358667814791       -1.59405362040592
C           -1.02889266928977        2.42818288094759        0.96290177212308
C            0.75015716572581        3.44792063174241       -2.61624173708606
C            0.22272235533795        0.23200268373466        2.11585301049878
C            0.64618268856122        1.23470265376813       -1.71323722886735
C            0.23217576101731        2.53802526365446        1.45673560200107
C            1.39707252659916        2.31402050761115       -2.20751264749649
C            0.88975514737195        1.42359669985311        1.99751240784121
H           -6.63829129296158        2.94448862389578       -1.54414043032424
H           -6.76231293964611        0.85065875266359       -0.39489987396116
H           -5.31440888819520        4.79436063692667       -2.50995117267731
H           -5.65759456836620       -1.04880678130753        0.74144353126699
H           -3.19900668338478        5.70049473692685       -3.17789361526473
H           -3.70945157904984       -2.02976424408786        1.73159487941316
H           -0.74429632624948        5.55702616571624       -3.34045803666159
H           -1.34380330796540       -1.89672910317820        2.40581410612519
H           -1.27798396357647        0.47358064126080       -1.28778087109093
H           -1.52619250902367        3.30837375844806        0.59146601539923
H            1.30238049144495        4.25878519019670       -3.06863984609620
H            0.66944258762460       -0.59826300121585        2.64669676039608
H            0.71983896503852        3.49621779913613        1.45620104767109
H            1.88941924077346        1.52437087863899        2.37712502497756
C            1.29237463445900        0.03087627800629       -1.19414251356028
N            2.59324097418582        0.07216259926727       -0.97571306537643
N            3.15155761118465       -1.00650204740424       -0.39981638041965
C            2.42444138157935       -2.11126461923131        0.03123600642230
N            1.06454550022582       -2.03602510892497       -0.25655815503643
N            0.51049679159055       -0.98838023523928       -0.88573123860467
O            2.93163065223630       -3.04150172639347        0.61098135257532
C            0.14630424147214       -3.04511196008124        0.09546520929700
C            0.35691753309908       -3.92132400181907        1.15848841827669
C           -0.61463716697841       -4.85366707539172        1.47438523952162
C           -1.79339539282887       -4.92336865490437        0.75031572988168
C           -2.00238564983561       -4.04806889199232       -0.30462190784835
C           -1.04304939613987       -3.11350412490143       -0.63237503135745
C            4.53505681922558       -0.88814773521835       -0.15395832784632
C            5.04750474364605        0.39252538674369        0.05353527022278
C            6.39676294500914        0.56556415786353        0.28274048000161
C            7.24638773504889       -0.53017772245662        0.30626861642693
C            6.73655839333861       -1.79989601041964        0.08988557646816
C            5.38677313928184       -1.98942626932291       -0.14468712174913
H            4.37101513575972        1.23247534152519        0.03212735291493
H            6.78730292864019        1.55819432267009        0.44753723061693
H            8.30103254990582       -0.39351181771768        0.48965492204975
H            7.39528788923402       -2.65451147813321        0.09571301532012
H            5.00389833382174       -2.98012387881962       -0.32077753748837
H            1.26474869012644       -3.87776748528568        1.73529621227466
H           -0.44729789868978       -5.52786657132783        2.30069418313941
H           -2.54412246876340       -5.65550731836623        1.00581008113719
H           -2.91611125330245       -4.09487403679946       -0.87686813016770
H           -1.19397434301809       -2.42692818343737       -1.44918503740058
H            2.46760515407717        2.21443224926804       -2.28699234642268
C           -3.51517437851503        1.88746663974785        5.35954184686038
C           -2.76737549082267        2.76329290945991        4.50425761544276
C           -2.95393918963611        0.99865683064204        6.33835052504691
C           -4.92251123048873        1.89146941559617        5.21184818471016
C           -3.42207521733605        3.85489933017920        3.90016134164014
C           -3.71574422502995       -0.11599780299658        6.73969408736020
C           -1.38249257859342        2.56719022532816        4.18871622806657
C           -1.68037878395908        1.19883490909759        6.98308013004871
C           -0.63547768272074        3.62538867823833        3.61244359145565
C           -1.08091155827037        0.12064958690675        7.67903096963892
C           -5.55852804166617        2.94267557608040        4.50924128979712
C           -5.69316892202922        0.83834488954484        5.75943692735429
C           -4.83226205014194        3.94679531256464        3.95279125529515
C           -5.08962808430618       -0.19062000061678        6.40789388141049
C           -2.66729735432149        4.85118390987181        3.22554252915053
C           -3.11037618778967       -1.15634281962483        7.49471220802028
C           -1.31646907606690        4.77141927997624        3.13072499545275
C           -1.81601942754698       -1.07726942610173        7.88408347191967
C           -0.72200277240615        1.36174738356924        4.45790435494620
C           -1.02010028091094        2.44013835509810        7.00622868097040
C            0.76384458727594        3.49678946764817        3.48196364454912
C            0.21667895401542        0.26827821973128        8.19898812497905
C            0.64782801876372        1.26361030673144        4.37426223166649
C            0.23081045419560        2.57004999958434        7.55236990939297
C            1.41229745981821        2.34385782692186        3.87006450387733
C            0.87956965635621        1.46365328060623        8.10807644971424
H           -6.63721521781336        2.94427217189898        4.45730586717467
H           -6.76200316552224        0.85054897255079        5.60688464693505
H           -5.31465709727248        4.79461501313255        3.49015145809414
H           -5.65538062660506       -1.04775713050759        6.74163584362462
H           -3.19868397843956        5.69961975974942        2.82007557272304
H           -3.70545289530453       -2.02614380315003        7.73113055154735
H           -0.74389466673627        5.55958080646440        2.66385452893697
H           -1.34337768834701       -1.89344325551436        8.41049921477614
H           -1.27847828958658        0.47795537302080        4.72025393339820
H           -1.51659781188144        3.31019758550546        6.60480903082733
H            1.31845221261529        4.29835366356522        3.01445653766721
H            0.67495939619358       -0.57950255925578        8.69031923385528
H            0.72017164466550        3.53248022227257        7.55404042748558
H            1.88138757573859        1.56657742788525        8.49876745823256
C            1.29252406909043        0.04117152719393        4.83989880249850
N            2.59683700371209        0.07490075870323        5.02977516508423
N            3.15451947190189       -1.00780780577706        5.59932450716757
C            2.42466381957355       -2.11052473598201        6.03505863915098
N            1.06536566882308       -2.03803862566315        5.74415786619497
N            0.50906031338593       -0.98433815573458        5.12396011787201
O            2.93238479810514       -3.04390669587027        6.60580742344596
C            0.14711849868789       -3.04661833976432        6.09479435053982
C            0.35806832841943       -3.92292912446099        7.15737001035374
C           -0.61400625707222       -4.85466380935210        7.47313304896074
C           -1.79312229788915       -4.92411865507539        6.74953046883546
C           -2.00183345078740       -4.04897890520675        5.69452839968431
C           -1.04240701437790       -3.11464693451284        5.36734396609258
C            4.53667179281939       -0.88857631288352        5.84504677753627
C            5.04836173900033        0.39263606552887        6.05130319550741
C            6.39724682420046        0.56579756758285        6.28129872765481
C            7.24667994514662       -0.53014103940060        6.30548925337971
C            6.73703780863077       -1.80006221484628        6.08916844003962
C            5.38765338850750       -1.98995940017926        5.85445866158081
H            4.37110232396272        1.23222419850430        6.03492343488983
H            6.78705608079570        1.55821517301268        6.44868116242674
H            8.30098509814294       -0.39355980916474        6.49068257040148
H            7.39545268232740       -2.65478450971859        6.09661512240011
H            5.00424524122852       -2.98063138283910        5.67992675686583
H            1.26474940385456       -3.87739652313466        7.73569387204230
H           -0.44740010246075       -5.52784031800163        8.30005283412764
H           -2.54460033621129       -5.65501595198830        7.00616633724964
H           -2.91638283294181       -4.09432747525199        5.12313853746252
H           -1.19566460506677       -2.42561022789697        4.55316891420418
H            2.48998448159350        2.25809098809357        3.82053559884685
140
 energy: -227.929596333027 gnorm: 0.049733885489 xtb: 6.6.1 (8d0f1dd)
C           -3.52195997589065        1.88872901162416       -0.64311856863926
C           -2.76746467923685        2.75870455195108       -1.49851226318892
C           -2.97336210021683        0.99244449445136        0.33631816540856
C           -4.92855999798226        1.89480032574010       -0.78648970343178
C           -3.42232797363436        3.85344610334667       -2.09875649454073
C           -3.73162551322104       -0.12472929618456        0.74028052038600
C           -1.38163242517645        2.55346536604014       -1.83435059864019
C           -1.70754552213378        1.18372627243874        0.96278996485356
C           -0.63929686698230        3.59830503225443       -2.43957202025093
C           -1.09854491038805        0.09994070100428        1.63725159235565
C           -5.56271862254089        2.94563081189566       -1.49048225203176
C           -5.69929425568836        0.84045570836760       -0.24028381789541
C           -4.83324165702549        3.94801741176551       -2.04565123579567
C           -5.10143306596485       -0.19332763564183        0.40891320984191
C           -2.66672807694008        4.85190495278205       -2.77137067933370
C           -3.12869252958042       -1.16242061852677        1.49837094080469
C           -1.31728105455414        4.76524618760013       -2.87909186412256
C           -1.83231588179021       -1.08481058852219        1.87860107953442
C           -0.72511932661075        1.34060859538400       -1.59907640202163
C           -1.03488643944727        2.41727782787318        0.93668189669569
C            0.75024865497953        3.44684102436332       -2.61598872994049
C            0.22971894436858        0.21563326882896        2.05846238670275
C            0.64651879516516        1.23255387456187       -1.71593614432141
C            0.25016546005986        2.50871776617248        1.37609154165329
C            1.39812772032269        2.31314751271516       -2.20827569441548
C            0.91178831301008        1.38969615833343        1.89106492314336
H           -6.64063889483155        2.94652685575019       -1.54532188596707
H           -6.76673014590415        0.85121727167728       -0.39710908379654
H           -5.31433445599450        4.79479686583038       -2.51089358918084
H           -5.66751782191842       -1.04998809301525        0.74023873034755
H           -3.19841472798071        5.69973673125800       -3.17763367868915
H           -3.72081535757383       -2.03212561799488        1.73600100233531
H           -0.74448027180110        5.55589638691579       -3.34026537490541
H           -1.34742716664634       -1.89765406071270        2.39959839877302
H           -1.28062631108430        0.47213540754992       -1.29152503510939
H           -1.53740114546116        3.30399011483044        0.58725959168565
H            1.30222051441638        4.25786499514882       -3.06776672366458
H            0.67854391713163       -0.61047607259149        2.59354277629896
H            0.73886323903600        3.46672387758786        1.38179725264436
H            1.90802653475613        1.49131594657116        2.27344741959880
C            1.29140434703710        0.03204404974326       -1.19467891277434
N            2.59455451507215        0.06514328274198       -0.97404999113319
N            3.14989118920460       -1.00086009742324       -0.40014731048449
C            2.42376479018790       -2.10912196032983        0.03364799003286
N            1.06104793530757       -2.03148949426544       -0.25840595282114
N            0.51446340934589       -0.99220417148975       -0.88094623310851
O            2.92963167461237       -3.03627875998422        0.61549854584362
C            0.14460687177027       -3.04420829958289        0.09502102215419
C            0.35720724118034       -3.92001485141556        1.15891913020774
C           -0.61445454814801       -4.85204996533108        1.47599442066978
C           -1.79309094996123       -4.92209224578987        0.75100081645237
C           -2.00343926711752       -4.04754163204953       -0.30497051978027
C           -1.04492147018767       -3.11250153319228       -0.63312435547339
C            4.53547545946911       -0.88673684284716       -0.15476393804827
C            5.04757038264079        0.39464930137440        0.05252823029529
C            6.39660604487458        0.56666016776507        0.28285612683502
C            7.24542443563594       -0.53043555374666        0.30641447648806
C            6.73566666333896       -1.80067590161690        0.08991507837413
C            5.38564905439101       -1.99015230101893       -0.14378697249740
H            4.37093181685617        1.23444550037981        0.03349849315842
H            6.78754723314089        1.55860210304907        0.44776916087970
H            8.29998352405944       -0.39414479153405        0.48902396730047
H            7.39447787421958       -2.65484919924338        0.09454276263593
H            5.00397986310064       -2.98086577650350       -0.32279729887650
H            1.26493451285248       -3.87742796263034        1.73594371048522
H           -0.44676364235184       -5.52654254999877        2.30177831627048
H           -2.54247295725588       -5.65561411282624        1.00537521437015
H           -2.91624031626592       -4.09585464654153       -0.87767887705901
H           -1.19519020078203       -2.42810741035891       -1.45184767909331
H            2.46863233307413        2.21531551964198       -2.28826980952965
C           -3.51650340564902        1.88578593197872        5.35873279525555
C           -2.76873216925936        2.76372876587125        4.50579735821191
C           -2.95565048495534        0.99972180296637        6.34017720638140
C           -4.92374002652299        1.88949845871510        5.20959194826742
C           -3.42309424240809        3.85460866833766        3.89896150690976
C           -3.71699701514040       -0.11634076102100        6.74003868567273
C           -1.38024615041331        2.57665407752011        4.20856002034335
C           -1.68303573856451        1.20064457323015        6.98828112334115
C           -0.62991150108630        3.63848470771351        3.64685703888532
C           -1.08094346581402        0.12048974538181        7.67890895120803
C           -5.55910522337143        2.94096564907070        4.50740337869919
C           -5.69467577785004        0.83702223577399        5.75876039130921
C           -4.83307700085361        3.94558094718066        3.94987692225382
C           -5.09092608302478       -0.19133287053110        6.40806322004144
C           -2.66602990799043        4.84993061083986        3.22611843018496
C           -3.11093907839582       -1.15703065944532        7.49391261586913
C           -1.31301792211294        4.77554504727137        3.14553632491107
C           -1.81586681007826       -1.07810279686083        7.88255081204232
C           -0.71876630301420        1.37258858213565        4.47651171647467
C           -1.02261127972203        2.44200634433347        7.01383985893195
C            0.77585080966316        3.52728732691668        3.57129543866687
C            0.21715863196962        0.26786753479127        8.19843746220340
C            0.65449359626103        1.29306285330827        4.44044603552325
C            0.23035002679468        2.57086340871355        7.55552323112845
C            1.42010104993117        2.38613263893021        3.97272239774252
C            0.88010522075757        1.46363725861795        8.10806366610592
H           -6.63763227300443        2.94415574565757        4.45747227453040
H           -6.76328311525622        0.84947174832948        5.60694700821354
H           -5.31591032910053        4.79374723355646        3.48882620753784
H           -5.65651679930218       -1.04785179783376        6.74279434583198
H           -3.19764179350743        5.69378533008612        2.81091011237200