116
 energy: -213.847079169954 gnorm: 0.150928026549 xtb: 6.7.1 (edcfbbe)
C           -2.64720000000000        2.47990000000000       -1.98660000000000
C           -2.32050000000000        1.30140000000000       -1.32520000000000
C           -1.27560000000000        1.33810000000000       -0.33650000000000
C           -0.39030000000000        2.45550000000000       -0.33180000000000
C           -0.75290000000000        3.59980000000000       -1.05850000000000
C           -1.88510000000000        3.63140000000000       -1.83700000000000
C           -1.01130000000000        0.28450000000000        0.59680000000000
C            0.28720000000000        0.22440000000000        1.11460000000000
C            1.17460000000000        1.32190000000000        0.92470000000000
N            0.80770000000000        2.45470000000000        0.29470000000000
C           -1.92810000000000       -0.71060000000000        1.06140000000000
C           -1.38620000000000       -1.87700000000000        1.67210000000000
N           -0.08580000000000       -2.00290000000000        2.01930000000000
C            0.71200000000000       -0.93540000000000        1.82310000000000
C            2.02570000000000       -0.97120000000000        2.30050000000000
C            2.89010000000000        0.09230000000000        2.12160000000000
C            2.46610000000000        1.22460000000000        1.45150000000000
C           -3.35360000000000       -0.54510000000000        1.02350000000000
C           -4.15280000000000       -1.64030000000000        1.32570000000000
C           -3.60750000000000       -2.83680000000000        1.77270000000000
C           -2.25240000000000       -2.93710000000000        1.97490000000000
O           -3.87120000000000        0.71960000000000        0.77130000000000
O           -2.99170000000000        0.12910000000000       -1.72200000000000
C           -2.23580000000000        4.86840000000000       -2.56770000000000
C           -4.49450000000000       -3.97530000000000        2.09470000000000
H           -0.12790000000000        4.47360000000000       -1.01330000000000
H           -3.47060000000000        2.47970000000000       -2.67670000000000
H            3.14820000000000        2.04550000000000        1.32630000000000
H            2.37450000000000       -1.84230000000000        2.82470000000000
H           -1.84940000000000       -3.84280000000000        2.38980000000000
H           -5.22240000000000       -1.57640000000000        1.25970000000000
O           -1.52930000000000        5.85160000000000       -2.45390000000000
O           -3.35810000000000        4.82370000000000       -3.34320000000000
C           -3.54520000000000        6.05780000000000       -3.95530000000000
C            4.26930000000000        0.01060000000000        2.64820000000000
O            4.62750000000000       -0.98770000000000        3.24300000000000
O            5.07040000000000        1.09240000000000        2.42150000000000
C            6.32510000000000        0.86210000000000        2.97360000000000
O           -5.69410000000000       -3.87230000000000        1.92480000000000
O           -3.88570000000000       -5.09830000000000        2.57670000000000
C           -4.84500000000000       -6.07210000000000        2.83000000000000
C           -5.25300000000000        0.76310000000000        0.51760000000000
C           -2.13610000000000       -0.92900000000000       -2.10030000000000
H           -4.35270000000000       -6.96660000000000        3.21740000000000
H           -5.36840000000000       -6.30140000000000        1.89840000000000
H           -5.55600000000000       -5.68340000000000        3.56340000000000
H            6.96230000000000        1.72920000000000        2.78640000000000
H            6.75440000000000       -0.03060000000000        2.51150000000000
H            6.21180000000000        0.69980000000000        4.04860000000000
H           -2.74670000000000       -1.74750000000000       -2.48280000000000
H           -1.56050000000000       -1.27830000000000       -1.24480000000000
H           -1.46030000000000       -0.58190000000000       -2.88290000000000
H           -5.51120000000000        1.78040000000000        0.22070000000000
H           -5.80560000000000        0.50310000000000        1.42140000000000
H           -5.49260000000000        0.08150000000000       -0.30040000000000
H           -4.44360000000000        6.01790000000000       -4.57490000000000
H           -2.67000000000000        6.28150000000000       -4.57060000000000
H           -3.65270000000000        6.82170000000000       -3.18100000000000
C           -2.57910000000000        2.41160000000000        7.72810000000000
C           -2.25770000000000        1.22870000000000        8.38400000000000
C           -1.22470000000000        1.25970000000000        9.38530000000000
C           -0.34230000000000        2.37920000000000        9.41030000000000
C           -0.69900000000000        3.52830000000000        8.68850000000000
C           -1.82190000000000        3.56370000000000        7.89690000000000
C           -0.97120000000000        0.20050000000000       10.31510000000000
C            0.31980000000000        0.14060000000000       10.85160000000000
C            1.20670000000000        1.24200000000000       10.68290000000000
N            0.84620000000000        2.37770000000000       10.05440000000000
C           -1.89430000000000       -0.79530000000000       10.76610000000000
C           -1.36060000000000       -1.96170000000000       11.38400000000000
N           -0.06360000000000       -2.08970000000000       11.74330000000000
C            0.73600000000000       -1.02080000000000       11.56260000000000
C            2.04070000000000       -1.05400000000000       12.06430000000000
C            2.90390000000000        0.01400000000000       11.90740000000000
C            2.48830000000000        1.14720000000000       11.23350000000000
C           -3.31910000000000       -0.62540000000000       10.71780000000000
C           -4.12420000000000       -1.71630000000000       11.02040000000000
C           -3.58640000000000       -2.91220000000000       11.47810000000000
C           -2.23270000000000       -3.01680000000000       11.68740000000000
O           -3.83040000000000        0.64020000000000       10.45880000000000
O           -2.92200000000000        0.05780000000000        7.97150000000000
C           -2.16780000000000        4.80720000000000        7.17500000000000
C           -4.48070000000000       -4.04190000000000       11.81120000000000
H           -0.07740000000000        4.40360000000000        8.74940000000000
H           -3.39440000000000        2.41540000000000        7.02840000000000
H            3.16880000000000        1.97190000000000       11.12640000000000
H            2.38170000000000       -1.92500000000000       12.59400000000000
H           -1.83610000000000       -3.91970000000000       12.11450000000000
H           -5.19310000000000       -1.64830000000000       10.94930000000000
O           -1.46490000000000        5.79080000000000        7.30640000000000
O           -3.28210000000000        4.76810000000000        6.38770000000000
C           -3.46310000000000        6.00710000000000        5.78390000000000
C            4.27120000000000       -0.06110000000000       12.46560000000000
O            4.62570000000000       -1.06320000000000       13.05620000000000
O            5.06580000000000        1.03220000000000       12.27320000000000
C            6.30900000000000        0.80730000000000       12.85310000000000
O           -5.67920000000000       -3.93520000000000       11.63570000000000
O           -3.87940000000000       -5.16100000000000       12.31140000000000
C           -4.84540000000000       -6.12200000000000       12.58650000000000
C           -5.21490000000000        0.69240000000000       10.22190000000000
C           -2.05970000000000       -0.99390000000000        7.59060000000000
H           -4.35870000000000       -7.01350000000000       12.98770000000000
H           -5.37570000000000       -6.36360000000000       11.66200000000000
H           -5.54910000000000       -5.71440000000000       13.31660000000000
H            6.94160000000000        1.68320000000000       12.69370000000000
H            6.75890000000000       -0.07450000000000       12.38990000000000
H            6.17110000000000        0.62910000000000       13.92260000000000
H           -2.66460000000000       -1.81190000000000        7.19790000000000
H           -1.48840000000000       -1.34710000000000        8.44760000000000
H           -1.38060000000000       -0.63820000000000        6.81480000000000
H           -5.47010000000000        1.71140000000000        9.92820000000000
H           -5.75780000000000        0.43630000000000       11.13260000000000
H           -5.46920000000000        0.01230000000000        9.40720000000000
H           -4.35520000000000        5.97240000000000        5.15500000000000
H           -2.58180000000000        6.23550000000000        5.17920000000000
H           -3.57830000000000        6.76470000000000        6.56330000000000
116
 energy: -213.874635320541 gnorm: 0.066673800775 xtb: 6.7.1 (edcfbbe)
C           -2.64807228437977        2.46214853345727       -1.99342397386050
C           -2.31921481238521        1.29846800094085       -1.32594691323433
C           -1.28482611027183        1.32795807438157       -0.34833792466576
C           -0.39716565326535        2.44917773169640       -0.33464854315929
C           -0.75283459155448        3.60367161230375       -1.05425129149553
C           -1.88906304723931        3.62625799399074       -1.82883160206092
C           -1.01918254940725        0.28764656240564        0.59524063378743
C            0.28160973222974        0.22774118362330        1.11208627853795
C            1.17079087288670        1.32490886273179        0.91497526743733
N            0.78782248192730        2.44641457694537        0.29666217134418
C           -1.93903435998327       -0.69842039879566        1.06771469205366
C           -1.38592925925979       -1.86835995785654        1.67558830377348
N           -0.09065468278732       -1.98825440254317        2.00810327369960
C            0.70628724511148       -0.93044489445171        1.82736378780520
C            2.02636268256166       -0.97498828395780        2.30330460099190
C            2.88677913936920        0.09777133534966        2.11691233096260
C            2.46862847237666        1.23802438502620        1.44477732302829
C           -3.35492946920213       -0.54836213933378        1.02358905407327
C           -4.15121539707584       -1.63590215008001        1.32923585758540
C           -3.59292414437525       -2.83859780671813        1.77337525385049
C           -2.23833949922255       -2.94518459859926        1.97776873617661
O           -3.86240596886559        0.69715080632539        0.76284673384007
O           -2.98502720136928        0.13868169167437       -1.70528265366328
C           -2.21836838970996        4.87329425717994       -2.55236465599803
C           -4.50541512832343       -3.95900945638822        2.08484288949008
H           -0.11645595482686        4.47293976925445       -1.01382719599850
H           -3.47472792960052        2.46080798363841       -2.68422365834770
H            3.14740412648616        2.06419066186598        1.31981919615895
H            2.37415459758142       -1.85086299208554        2.82675244848761
H           -1.82710072712770       -3.84655291865040        2.39775964236115
H           -5.22427889235393       -1.58151884187735        1.26016069088107
O           -1.52936570776082        5.86177297072978       -2.45425210564936
O           -3.32812151194255        4.82718643990318       -3.32178597142741
C           -3.54910313898731        6.06197686500504       -3.95954542164370
C            4.26069251998872       -0.00904426855430        2.65457531536202
O            4.63456544111629       -0.99286213670693        3.24895479671195
O            5.05263362097161        1.06083005596635        2.42992393376836
C            6.33382432534468        0.86359607246692        2.97604779770863
O           -5.70107453775123       -3.87179011035777        1.92285226979265
O           -3.90635973316907       -5.07091596419771        2.56276434071313
C           -4.84921942663264       -6.07938936904597        2.83195289523740
C           -5.24839897833589        0.76147044257693        0.51694326015361
C           -2.13251314285808       -0.92044680836787       -2.09612084903298
H           -4.33041796829505       -6.95636719312872        3.21601403895303
H           -5.38500526012068       -6.32875967193247        1.91200605562219
H           -5.57101301106710       -5.71376440837805        3.56749428900030
H            6.94468004487483        1.74209383418482        2.77421038883456
H            6.78572913524155       -0.02466259214635        2.52597956551475
H            6.24621851837221        0.70150232402561        4.05387933805007
H           -2.76320870386288       -1.72405253849796       -2.47486726792672
H           -1.54846156879581       -1.29781593837549       -1.25479256970335
H           -1.45609332875078       -0.58885789032330       -2.88919237630927
H           -5.48070599259789        1.78505855565236        0.22416503705257
H           -5.81583979127407        0.51032996879674        1.41723269936022
H           -5.51203868467286        0.08744341677037       -0.30166731373460
H           -4.44876543152149        5.99243574576324       -4.56907215180164
H           -2.68575936336185        6.30673867111643       -4.58448833137598
H           -3.66275418343471        6.84429727290751       -3.20394170732259
C           -2.57973491014203        2.39401310328419        7.72107489938796
C           -2.25632461130516        1.22583053443271        8.38311294950112
C           -1.23383436222902        1.24969495769129        9.37333456369014
C           -0.34922762893927        2.37288915930697        9.40736253307558
C           -0.69908993643304        3.53224057374588        8.69288438484055
C           -1.82597686202924        3.55865469493013        7.90503291552322
C           -0.97912997763837        0.20375777132938       10.31359330952731
C            0.31411752043316        0.14387665821396       10.84914564783007
C            1.20287110210989        1.24493212195601       10.67328632648672
N            0.82628746758558        2.36921270122717       10.05602390202078
C           -1.90518219228834       -0.78305312272036       10.77234295649641
C           -1.36019908019835       -1.95309909072706       11.38733728116119
N           -0.06846151252860       -2.07492749849455       11.73245080824392
C            0.73009008958148       -1.01604742601543       11.56669983202735
C            2.04122840799471       -1.05804000849536       12.06705110325192
C            2.90038290311298        0.01941813296246       11.90304620003806
C            2.49068447775582        1.16056381241581       11.22719735867288
C           -3.32030803551598       -0.62877008136127       10.71770576994451
C           -4.12238895922710       -1.71202514867683       11.02382689559935
C           -3.57159378451220       -2.91409983834805       11.47888284499581
C           -2.21841773911803       -3.02512843697539       11.69010727708725
O           -3.82183505545541        0.61770939867644       10.45061242928361
O           -2.91570814673328        0.06745440134796        7.98804029299397
C           -2.15046314268774        4.81199809883891        7.19041474193875
C           -4.49114883187843       -4.02577130172996       11.80076655723667
H           -0.06613220100023        4.40312088681973        8.74912024195203
H           -3.39824009449375        2.39668872036103        7.02062259257122
H            3.16791557393239        1.99050751262411       11.12001606710647
H            2.38135828852058       -1.93382106637603       12.59566414623272
H           -1.81359218132373       -3.92392126632284       12.12162679092992
H           -5.19488365410119       -1.65352733190495       10.94977229900350
O           -1.46513528254614        5.80109639382423        7.30624233911057
O           -3.25208001196573        4.77137415200573        6.40892079920369
C           -3.46690629121884        6.01147988021835        5.77946225617583
C            4.26243931048044       -0.08117387088405       12.47127224011013
O            4.63263983253169       -1.06843946654773       13.06196715276577
O            5.04808590843030        1.00037288590397       12.28075927726706
C            6.31749952548060        0.80877127609401       12.85567165286706
O           -5.68596985891786       -3.93457505897652       11.63391068828614
O           -3.89980382934873       -5.13362642172857       12.29719860585583
C           -4.84962389391363       -6.12908894659959       12.58849893706833
C           -5.21004719452269        0.69077729135000       10.22099708341744
C           -2.05612751636486       -0.98534251353981        7.59505214975876
H           -4.33633809538380       -7.00337036770779       12.98594916492974
H           -5.39226109873039       -6.39039054176114       11.67588490556524
H           -5.56451361803084       -5.74438568171352       13.32105495583332
H            6.92399415303429        1.69613150278184       12.68113133731552
H            6.78971117863064       -0.06852285655343       12.40505562711327
H            6.20521042878471        0.63091959238732       13.92872038779511
H           -2.68082125873431       -1.78870470192530        7.20598304698699
H           -1.47634824160852       -1.36609908773377        8.43788912183877
H           -1.37600575162910       -0.64578091240745        6.80847912376937
H           -5.43924167022692        1.71593562269011        9.93119919266622
H           -5.76806958681979        0.44341296189727       11.12821862882113
H           -5.48820736718818        0.01842701582396        9.40579931732653
H           -4.36043545241872        5.94700868790579        5.16042702884757
H           -2.59749466058677        6.26116862196380        5.16500051724780
H           -3.58821002712557        6.78739399391031        6.54048783365557
116
 energy: -213.884916129035 gnorm: 0.016107494614 xtb: 6.7.1 (edcfbbe)
C           -2.64603521785393        2.45329837399141       -2.00239535103633
C           -2.31488235869083        1.29716889423816       -1.33019451699548
C           -1.29146336268978        1.32108076281958       -0.35557170365429
C           -0.40181276171003        2.44545572975548       -0.33363141047323
C           -0.75263248556640        3.60637852697989       -1.05079138244998
C           -1.89016103206954        3.62509637322458       -1.82383041520292
C           -1.02363133741191        0.28958007037756        0.59618132503254
C            0.27893246702028        0.23052657135485        1.11242076927841
C            1.17009627083419        1.32737375137397        0.91121503142217
N            0.77332399039148        2.43874487039278        0.29937428009303
C           -1.94865799523899       -0.68946331885170        1.07353157751574
C           -1.38781823169702       -1.86288412769486        1.67896502087235
N           -0.09733599269538       -1.97512134023986        2.00158114757250
C            0.70212804823906       -0.92701206630164        1.83092439497363
C            2.02688593463416       -0.97603886795667        2.30549725844391
C            2.88459108957050        0.10145809449781        2.11380778576269
C            2.47396220880899        1.24673153504147        1.44147171338025
C           -3.35921848837023       -0.55108037487399        1.02569579770470
C           -4.14987046192058       -1.63847064550963        1.33181871630144
C           -3.58169700891521       -2.84382787303870        1.77568505984704
C           -2.22909624893706       -2.95386334679688        1.98273923233340
O           -3.85838561500709        0.67665938354961        0.75393657635490
O           -2.97477454412211        0.14502430178083       -1.69243081160500
C           -2.19899389740065        4.88534515367318       -2.53762095773987
C           -4.52322333425577       -3.94568744960454        2.07662727353396
H           -0.10817798810330        4.47019482190145       -1.00994262281621
H           -3.46996752418922        2.44870359623572       -2.69826565679487
H            3.14766390768904        2.07763611923156        1.31462307246083
H            2.37268611325869       -1.85426013760773        2.82781231280636
H           -1.80481244831484       -3.84893634256530        2.40426172558621
H           -5.22435217380014       -1.59768922246992        1.26223406797091
O           -1.51946452113374        5.87787684617086       -2.44809683539280
O           -3.29947433468500        4.83925179617955       -3.30215743606812
C           -3.55667106670710        6.06832031003066       -3.96666033384116
C            4.25549594655993       -0.03330384168887        2.66410648363529
O            4.63662439864256       -1.01033852355281        3.25956282307153
O            5.04236883624884        1.02606083241626        2.44223369675886
C            6.34730116764037        0.86676489956938        2.97942898045113
O           -5.71709454449650       -3.86476510711502        1.91525321403924
O           -3.93480258629644       -5.05068022140417        2.55026310069465
C           -4.85574310943314       -6.09249588376006        2.83528933110680
C           -5.24609152345187        0.76805260353682        0.51463556340262
C           -2.13274182435411       -0.91818970390751       -2.09608124831306
H           -4.29475722075473       -6.94372554986897        3.21465422491724
H           -5.39775921210705       -6.36193626388834        1.92462065963521
H           -5.58213719108201       -5.74765126552393        3.57641260863993
H            6.91789847927077        1.76494335418077        2.75414494561580
H            6.82057098820656       -0.01365495790816        2.53574424413783
H            6.28189547500373        0.71096022519060        4.05978976556161
H           -2.78671854130845       -1.70429649380374       -2.47183076101243
H           -1.53929040921402       -1.31882696066795       -1.26910363529840
H           -1.45762413793446       -0.59504731481807       -2.89587532901991
H           -5.44391029253232        1.79976791294229        0.22651509656071
H           -5.82318381562941        0.52708364379129        1.41324111538966
H           -5.53465317918536        0.10110131994480       -0.30314288457840
H           -4.46011530842611        5.95098905089349       -4.56100150570450
H           -2.70607127189422        6.32625384353955       -4.60378341407730
H           -3.68084153308887        6.86495804473446       -3.22765425240162
C           -2.57739415147791        2.38536044779240        7.71195404373725
C           -2.25186958434704        1.22463190733718        8.37879206086058
C           -1.24049770103351        1.24295265064763        9.36607513070934
C           -0.35407099450048        2.36922446907002        9.40841280874991
C           -0.69902402628304        3.53509317261843        8.69650250238345
C           -1.82709352953313        3.55764971394569        7.90996394630459
C           -0.98368833365777        0.20580236774279       10.31466761648121
C            0.31127915779757        0.14664391031893       10.84968159829376
C            1.20198758682823        1.24739272547640       10.66987091899349
N            0.81157704519536        2.36140263117462       10.05868931237896
C           -1.91479091760114       -0.77407334441011       10.77809577045521
C           -1.36201116419091       -1.94775434872484       11.39047632103055
N           -0.07519907625073       -2.06171576330026       11.72611709940348
C            0.72575364981782       -1.01276441016621       11.57020104744289
C            2.04169107853561       -1.05942608987485       12.06901669707352
C            2.89804184380603        0.02296861760637       11.90008454645953
C            2.49580620830999        1.16924564849789       11.22438974479535
C           -3.32450403926910       -0.63163622922973       10.71966132687566
C           -4.12087931209537       -1.71480442835816       11.02624152881148
C           -3.56017996063219       -2.91954541227355       11.48100558612950
C           -2.20897510714918       -3.03422236023160       11.69450297556408
O           -3.81794624179450        0.59706986097168       10.44168793500203
O           -2.90557892931969        0.07389301309905        8.00064401042790
C           -2.13119924745591        4.82406231608674        7.20527589535498
C           -4.50860434161921       -4.01231947987831       11.79273524929005
H           -0.05811475821908        4.40062469616501        8.75329366733509
H           -3.39302595948953        2.38482088006729        7.00635466301613
H            3.16800097188266        2.00390986996394       11.11506685625563
H            2.38001626142127       -1.93772853795139       12.59595696729346
H           -1.79101664570724       -3.92710140978892       12.12670714820451
H           -5.19490250867901       -1.66984448655047       10.95194765721906
O           -1.45560371014457        5.81743375458308        7.31289024704785
O           -3.22318330273186        4.78322093728829        6.42810083384956
C           -3.47430234443556        6.01808595895718        5.77196914397306
C            4.25696803613187       -0.10584032255910       12.48030843253605
O            4.63477360539190       -1.08629297217638       13.07187429842506
O            5.03769457044942        0.96537830083022       12.29235853683533
C            6.33060985545446        0.81188277965795       12.85921916342662
O           -5.70167338159885       -3.92755874385849       11.62626753270307
O           -3.92804174872939       -5.11325937539188       12.28479671581269
C           -4.85619980414186       -6.14199608987530       12.59182271514897
C           -5.20737607731569        0.69728671915797       10.21811611380454
C           -2.05624133196822       -0.98318462587573        7.59530053251579
H           -4.30065821349193       -6.99100572939828       12.98395727563432
H           -5.40491763439161       -6.42298037759444       11.68863117440383
H           -5.57615239863891       -5.77796716671561       13.33011244636291
H            6.89721282563103        1.71890722098014       12.66052729783310
H            6.82396906868387       -0.05740127269506       12.41550470181045
H            6.24051524130760        0.64038487545889       13.93547908989084
H           -2.70406028170346       -1.76937394136333        7.20928289874425
H           -1.46710878659039       -1.38645709228165        8.42399012735752
H           -1.37709144325325       -0.65263100864887        6.80182177925584
H           -5.40189119179355        1.73042183921689        9.93275322961397
H           -5.77543107878731        0.45993039658655       11.12352135189057
H           -5.51024045468361        0.03236838888934        9.40377839799421
H           -4.37185579551642        5.90567589240284        5.16778554040463
H           -2.61770702046043        6.28139636074534        5.14516671705522
H           -3.60607366530591        6.80806828371425        6.51675354494800
116
 energy: -213.887526416290 gnorm: 0.013419042066 xtb: 6.7.1 (edcfbbe)
C           -2.63549473911059        2.45630322028325       -2.01010762293445
C           -2.30822836211962        1.29953083446089       -1.33424336576509
C           -1.28999684888921        1.32092304349244       -0.35437171990830
C           -0.39925156912003        2.44543397843321       -0.32871138005523
C           -0.74826839759832        3.60829127623166       -1.04480178635250
C           -1.88212224546354        3.62946303287271       -1.82289350567965
C           -1.02390494835129        0.28915895888613        0.59895876558751
C            0.27872046656429        0.23007951752880        1.11638580773853
C            1.17256017619898        1.32560170373213        0.91589741490871
N            0.77331343770511        2.43628433166262        0.30584192768470
C           -1.95186308250098       -0.68903844366135        1.07529105997922
C           -1.39231238390407       -1.86295546741910        1.68266646298137
N           -0.10300165342905       -1.97315891000846        2.00452071319349
C            0.69946494555181       -0.92786895838285        1.83537183200853
C            2.02500085047319       -0.97858878181411        2.30909184108077
C            2.88502007564755        0.09691408914832        2.11710715877303
C            2.47833381655611        1.24380362199030        1.44531124790427
C           -3.36292336023506       -0.55274020250675        1.02357289236621
C           -4.15130031655165       -1.64200149665093        1.33148945542818
C           -3.58317226613587       -2.84753298778630        1.77774977649137
C           -2.23122268921953       -2.95774295999251        1.98697768219720
O           -3.85698394813385        0.67186261612029        0.74455863944908
O           -2.97050669922733        0.14871678524562       -1.69049681581262
C           -2.18571120902097        4.89714371604647       -2.53028270861821
C           -4.53759384524595       -3.94361282738708        2.07099101250313
H           -0.10134086528261        4.46942765782191       -0.99903822849004
H           -3.45362064929474        2.44786169536102       -2.71290669949400
H            3.14913365411317        2.07695692910119        1.31591828028106
H            2.36889619027285       -1.85772690399269        2.83034283568507
H           -1.79738091129948       -3.84852678069814        2.40844339791674
H           -5.22568995458620       -1.60783880297807        1.26034003219868
O           -1.50888681385560        5.89174909412440       -2.43730411288655