116
 energy: -22.928061455056 gnorm: 0.329736929581 xtb: 6.6.1 (8d0f1dd)
C           -3.31122850772930        0.79849766164622       -0.92477639677520
C           -2.44380812530352       -0.12270372891954       -0.27661132624697
C           -1.41337090092821        0.39579727573559        0.56335275196199
C           -0.89266158675590        1.65801491088749        0.27377586709581
C           -1.72665675402493        2.51431363229076       -0.49448366572522
C           -2.95444148494349        2.13954154133227       -1.01494489940871
C           -0.74098268209890       -0.43411532818871        1.49825021926784
C            0.56872586496315        0.03782116815119        1.86248088067890
C            1.03782416582094        1.29402317993033        1.50887470833621
N            0.31238977034758        2.07067427098208        0.65193736800696
C           -1.29695700510141       -1.39996043042223        2.41574187746061
C           -0.38243517664656       -2.18060797534842        3.13232615520648
N            0.91308504082021       -1.90366887689689        3.30325166013478
C            1.37712470144904       -0.74872102533751        2.81811050966982
C            2.52149331701875       -0.17739833758153        3.39379298866852
C            2.95849061756259        1.02681208890480        2.95105897606587
C            2.24288949469137        1.78498308775960        2.03503020483770
C           -2.74860936222260       -1.74497937691422        2.38401158947411
C           -3.09416315450955       -2.91614440870436        3.00571134491758
C           -2.16786021984049       -3.77788778654213        3.63251872101904
C           -0.85708937311598       -3.40495313382985        3.68547234358092
O           -3.71994433332149       -0.94984598373544        1.67726658385724
O           -2.55702603277562       -1.47241711578389       -0.57241635275616
C           -3.84297843593025        3.13357444054366       -1.60938954875544
C           -2.68769581069131       -5.03867041417370        4.30484659386931
H           -1.39666850744143        3.51251503834900       -0.76806311868865
H           -4.27662633836220        0.55105838579656       -1.33106614114542
H            2.66329581305412        2.73912661909249        1.72562431984580
H            3.05775395548473       -0.69369546277216        4.16536137542516
H           -0.24710966264510       -4.12034095424229        4.22946223699121
H           -4.11477991332403       -3.04712728052358        3.03244694615357
O           -4.21824883374556        4.03433712717988       -0.87713382485991
O           -4.44510595673734        2.90643496899600       -2.81853501752979
C           -5.44216520282800        3.83300025693726       -3.02488532025093
C            4.23586651889298        1.50004220933226        3.59165660008449
O            5.05927614697201        0.66079890002952        3.91714215179376
O            4.47001334453535        2.86385149488593        3.72605651435371
C            5.79457498613219        3.08584475587818        4.15829123132174
O           -3.82227255313510       -5.27347675879771        4.16636005494405
O           -1.85023202017753       -5.79767454267276        5.06656077253571
C           -2.55119635829503       -6.86252441382958        5.62930343183426
C           -5.07197156564436       -1.42399175670916        1.58830531863830
C           -1.33089900128490       -2.23622472573986       -0.99264499351172
H           -2.54510546830388       -7.76426885143998        4.99136022291012
H           -3.57194749219491       -6.44405511486021        5.74196173723541
H           -2.09133598235598       -7.02043774843818        6.64022264233588
H            5.72707967266424        3.46798026205549        5.10135971236643
H            6.34060091246885        3.78468702308830        3.50069950143490
H            6.17933064298187        2.03010500085905        4.19342358084693
H           -0.91862729772622       -2.57650129080332       -0.01361370304871
H           -0.49769766914251       -1.60651221708571       -1.34094446550576
H           -1.52632419730509       -2.94569707152159       -1.75361447637286
H           -5.11788846557077       -2.41810833635233        1.17520213188926
H           -5.67929807973498       -0.69619639428435        1.04301666067831
H           -5.57598832326623       -1.42383358739762        2.57928294206544
H           -6.13050215934830        3.76035386975488       -2.23272855695873
H           -5.86615610071888        3.45938329385866       -4.02668959924245
H           -5.13479557532099        4.87790991548477       -2.98314551356402
C           -1.38192942069774        3.73616555005018        2.91232598411686
C           -1.84821468128685        2.59982427735607        3.49755545445181
C           -1.05946531454833        2.05730632010638        4.60922730982276
C            0.19893954712228        2.69376791964407        4.86302140881997
C            0.50425395911860        3.94630308659851        4.28768785650746
C           -0.26031777722226        4.46998310053134        3.25072669343212
C           -1.20488993561782        0.74454293276906        5.14851520323437
C           -0.06287609782692        0.02744069315890        5.60930570802864
C            1.19208754369866        0.71421540266195        5.78882868583885
N            1.19428660993148        2.06344359410476        5.62744624321596
C           -2.41361422770794        0.07928500213936        5.25249410304426
C           -2.45851584031083       -1.32662100968547        5.60237876023992
N           -1.29466212405906       -1.98318595734370        5.89916817085159
C           -0.14475655767527       -1.32117560077092        5.98824682881008
C            0.97209270935794       -1.98958449505532        6.53157704134458
C            2.21982707914082       -1.36973967291181        6.68703967237737
C            2.30561929262884       -0.09745313075593        6.26436900324455
C           -3.73018485967715        0.71367583494582        5.25810242262992
C           -4.89964478833448       -0.06184623426677        5.21204641615509
C           -4.82617965800088       -1.39228978090841        5.46901303780036
C           -3.67144193418464       -1.98914944386360        5.67265433266067
O           -3.75568638935321        2.07705011038914        5.52067969627343
O           -2.94192434743730        1.91263938797883        3.01658762327703
C            0.21273512614467        5.50086066357994        2.34765104514621
C           -6.06660304520411       -2.17604633098929        5.80641622556876
H            1.41756699010566        4.38133362238595        4.66974005703471
H           -1.82880610647429        4.11982501512100        2.06992133318584
H            3.26888037378556        0.32655662585251        6.31721410015598
H            0.87146188387207       -3.08471526305024        6.57830423410869
H           -3.67716811065157       -3.05999292755990        5.83019634570050
H           -5.77379677507622        0.43595144608221        4.71017130754348
O            1.34459852619901        5.82615848916894        2.44941456579099
O           -0.74718748219123        6.07961784856304        1.59848183464284
C           -0.21473095568964        7.24015934882472        1.05753806029483
C            3.53228080814219       -2.00967610361154        7.02506769044485
O            3.64093082622715       -3.14437803815732        7.50071391725347
O            4.56565258381079       -1.22937033368332        6.69086985080897
C            5.72579357310716       -1.80692399125161        7.22246151275881
O           -7.04801223588612       -1.95726935745904        5.14194115322235
O           -6.01514389321278       -2.93743591896022        6.94765316328794
C           -7.21292732384718       -3.62681918543340        7.15115816329978
C           -4.95459780685163        2.65960679932188        5.86868674392943
C           -3.68284113682406        2.59129188358641        2.05479246020704
H           -7.43119628931628       -4.22607794725959        6.20622607140901
H           -8.06548455146707       -2.91765848248592        7.29781126410398
H           -7.07314693247270       -4.33087306029711        7.91223421050944
H            6.57332189837178       -1.29353136199234        6.78341268688262
H            5.74663761932316       -2.84282155125561        6.88089468184451
H            5.69426191474290       -1.72781984964892        8.29460302186842
H           -4.10481209541493        3.44288266176275        2.60483747673152
H           -4.49244774344916        1.87419893016926        1.82433103764650
H           -3.18901540870812        2.85154642679373        1.06781919454921
H           -5.55414326821421        2.76698137191684        4.93950725322359
H           -4.78658370641210        3.62090640967288        6.25983200635257
H           -5.43485580473958        1.97242995129449        6.65265772412460
H            0.89164886030839        7.38838561720231        1.13776105146914
H           -0.62894889903848        8.04195665205089        1.64837664327952
H           -0.59282546386754        7.45699159724320        0.03719083132488
116
 energy: -22.703942809469 gnorm: 0.463391901714 xtb: 6.6.1 (8d0f1dd)
C           -2.86141963532098        0.33513120404054       -1.88536630160685
C           -1.99901848490606       -0.42153240744409       -1.05838028691016
C           -1.21543457690409        0.38004650272265       -0.07332650165394
C           -1.03256007180821        1.76512622397333       -0.22260455216411
C           -1.81196612312354        2.48584433334866       -1.21123782075822
C           -2.80395374722527        1.73951061743168       -1.90259941723583
C           -0.66676592966214       -0.20304000589519        1.26965545070147
C            0.50053154692861        0.43188276654539        1.74759796575109
C            0.73396788684201        1.76160249947939        1.29608965239761
N           -0.02991477896683        2.57518225936060        0.38095195767308
C           -1.08328271973489       -1.34938484760492        1.99847443689573
C           -0.11738263215856       -2.05421547758096        2.88341628049842
N            1.00278044920747       -1.39587936340370        3.20880167883391
C            1.23152679926055       -0.16646074264630        2.75228241914016
C            2.31341628470036        0.48131941980938        3.31660102654694
C            2.72979494683854        1.72027842748505        2.82615634349363
C            1.82410046747667        2.32982201446779        1.96335317111685
C           -2.47196332535153       -1.81052363086987        1.97211697025694
C           -2.76688263222036       -3.02417553464115        2.61481058069842
C           -1.71148643431187       -3.63941659225727        3.31167737395382
C           -0.37767770037138       -3.28832791431391        3.38184075677423
O           -3.52313637275300       -1.01245040120187        1.43156449492840
O           -2.26806980543230       -1.83726922954472       -1.10484060740133
C           -3.96398842635329        2.54501423418520       -2.68404096523233
C           -2.09989367783479       -4.77037451855951        4.05188692490036
H           -1.74445629699317        3.52231492743386       -1.36770187463149
H           -3.56349266685055       -0.25542118562462       -2.37050380608572
H            2.03102111014383        3.34315430820797        1.75020884117351
H            2.96652642588440       -0.15011891206996        3.87498402046544
H            0.44786625030028       -3.84798912363432        3.86567093694903
H           -3.76245958682888       -3.36479751034042        2.66157729234779
O           -3.84978199203197        3.58419785757600       -3.28684170097079
O           -5.25828989595605        2.00426461100965       -2.54525465321345
C           -6.21192104529145        3.03533397780133       -2.69593774125932
C            4.10564166468807        2.28351034079269        3.06814947107879
O            4.82145875312512        1.76173507488193        3.97980546069703
O            4.53047130418798        3.34522802590581        2.27680727236936
C            5.73908488783876        3.70342025588325        2.79284020006522
O           -3.28275080544100       -5.37524172757869        4.03144583448440
O           -1.20953522102788       -5.06228453190407        5.10145746930747
C           -1.39789692425355       -6.27097931649994        5.79973778140512
C           -4.90787629969469       -1.45397027633491        1.52432729626824
C           -0.96445087521302       -2.42293794285076       -1.43203652890367
H           -1.00735190328796       -6.21623170626865        6.92082950835626
H           -0.72327974377845       -7.05708162748595        5.42467120237510
H           -2.46758083748162       -6.27357205635714        5.93959780809211
H            5.64619050932068        3.47586217232921        3.85861039837893
H            5.62068493529317        4.80330994655722        2.54861048327890
H            6.54128404837514        3.09451634430166        2.19158121328177
H           -0.43853240343823       -1.88843997334717       -2.10603156650253
H           -1.06139363775889       -3.40208116397581       -1.84783919197820
H           -0.23444568192495       -2.47354889681032       -0.58112800125462
H           -5.14886624207972       -2.43039633549604        1.12795510297860
H           -5.54211695435886       -0.66707075113095        1.05977090117388
H           -4.97128191787536       -1.74333156595977        2.75330400619315
H           -6.05201560870296        3.85253409981631       -1.96984905269940
H           -7.27312993866099        2.76843260443469       -2.82960493715993
H           -5.83460170202254        3.40028446766787       -3.67144731956688
C           -1.67009273022091        4.05548961987294        3.65499550619126
C           -2.01195858085028        2.91567948523694        4.41566998146174
C           -1.18977273274315        2.25812637798747        5.44770251347376
C            0.08155469817002        2.74864194900936        5.38809737434026
C            0.47738094406549        3.79382253146353        4.57951968352541
C           -0.39950804435904        4.53714847321396        3.72513578194921
C           -1.35256023764364        1.02123754188082        6.11267505646622
C           -0.31191294540620        0.08631379550930        6.37165722782286
C            0.95350108515060        0.72332886878602        6.38844627852750
N            1.19786700279816        2.00339455058441        5.87792289437178
C           -2.59098535111182        0.37652472260210        6.46083540779685
C           -2.62181140820237       -1.06123127181264        6.25154979357778
N           -1.71954633967827       -1.88711497089381        6.76106235513600
C           -0.53594516253802       -1.32222261097188        6.81142681179540
C            0.59000456389485       -2.17277601547551        7.01636702172383
C            1.80880920590466       -1.50504064599681        7.04727337472070
C            1.97163706826195       -0.14389079477782        6.79739293267965
C           -3.79011883561146        1.07643678096522        6.88078804085764
C           -4.91746646446991        0.29974123563676        6.73152692217623
C           -5.03328788748660       -0.84807589294803        6.00589152404542
C           -3.88613684567788       -1.60608952377539        5.81921524546431
O           -3.83886117163013        2.41799856165092        7.39810137389912
O           -3.05977955867785        2.07823276243694        3.80664645138126
C            0.19528109233530        5.53290641409613        2.80722718922482
C           -6.29737426991291       -1.50872826957458        5.48358366156341
H            1.56241589560012        4.07200033219655        4.54447050031361
H           -2.27057013043761        4.49877639088443        2.87781820079068
H            3.01576937533668        0.15766194717320        6.57107028631508
H            0.59761392647406       -3.18530876222076        7.47275332704077
H           -4.11391801961546       -2.67678459114359        5.49159314762646
H           -5.68817388914929        0.98871959577341        7.01884909819469
O            1.38347089571845        5.74726003785722        2.88766976935257
O           -0.62883895975192        5.91427026037752        1.72867526238103
C            0.08066814570833        6.09418630909452        0.56133308178563
C            2.91379186316426       -2.50525366724592        7.35477625937143
O            2.68114777599999       -3.32075696734909        8.21884492600728
O            3.91532936872542       -2.60973180974109        6.40024725586499
C            4.80008065690694       -3.68686807548736        6.68161714899395
O           -7.22128736907958       -1.71558207229886        6.28076867301264
O           -6.25523734050175       -2.10585012228803        4.22164510860698
C           -7.43270683783359       -2.75537937172775        3.68494524071524
C           -4.24659572611173        2.76238392536567        8.71226452789508
C           -2.48844799296514        0.86576613536116        3.31889804869666
H           -8.36768929322975       -2.20700422793243        3.77845809605090
H           -7.70727423986128       -3.54433773740546        4.43550273937799
H           -7.16130037891089       -3.26488523802833        2.84952472673744
H            5.37331342275527       -3.92974331311086        5.74141760858186
H            4.08235974604302       -4.58823614307807        6.79656056434517
H            5.45304154468626       -3.58378669796954        7.67961583358406
H           -1.65391130242592        0.48562505371111        3.91662983964272
H           -2.18648425405647        1.05140319563773        2.29689497205911
H           -3.30327629505680        0.14862194638382        3.29282198916614
H           -4.08312879892924        3.87587513961403        8.98941194106030
H           -3.51548142417900        2.19267474762484        9.26486121205433
H           -5.31113506966646        2.54154538116186        9.08034879088629
H           -0.54567254383617        5.66567002387478       -0.17546211745554
H            0.99018350470381        5.48285247040156        0.49870877931840
H            0.57820978662576        7.01749139317513        0.21245029650045
116
 energy: -22.748097214661 gnorm: 0.472944446637 xtb: 6.6.1 (8d0f1dd)
C           -3.20000286013907        0.09644463108962       -1.51112177576168
C           -2.34377837211097       -0.54278430990015       -0.70163104316306
C           -1.63534651885376        0.25969458092258        0.28136904514358
C           -1.44841199730065        1.61750209327815        0.04725076597406
C           -2.31393320579480        2.31170229317273       -0.82126814411479
C           -3.23377218336710        1.51070864688592       -1.52050495062392
C           -0.86624852069303       -0.18392844222160        1.30309679442544
C            0.29301352027450        0.49760187906587        1.55908550859735
C            0.49078331847421        1.89769983056614        1.16291870286486
N           -0.47743136928425        2.43097726268398        0.40776389882792
C           -1.13793774993223       -1.32177702665971        2.10127236607359
C            0.05270851908377       -2.01997725863490        2.63196551734634
N            1.27841175102071       -1.45609777761708        2.76709731916220
C            1.23618904772577       -0.15244539309815        2.50312050613572
C            2.44623370218686        0.67105649217111        2.69668751551560
C            2.69099490000464        1.90742911677781        2.29987867097248
C            1.65615373755180        2.59006958206711        1.53568749867396
C           -2.46895276185628       -1.79313731947092        2.43427020161974
C           -2.53907462655497       -3.07391040072448        2.94772433764539
C           -1.45529817714311       -3.78777032223060        3.38500915777484
C           -0.14593494991526       -3.28396870928864        3.26343919488990
O           -3.56926867395395       -0.80758449782109        2.41641573568150
O           -2.32027481422311       -1.98358397911113       -0.74045117842341
C           -4.09791716749031        2.08867402349817       -2.56918754512355
C           -1.60604255461448       -5.03918739359751        4.27044797967746
H           -2.33162150349453        3.37685253696921       -0.75581683478588
H           -3.87113717548784       -0.28854517173536       -2.25661726616256
H            1.82550949529788        3.68994985793611        1.37308943552752
H            3.19741323107562        0.07580720304256        3.23676528582868
H            0.75485526127870       -3.88253554570400        3.56576232466479
H           -3.49708836905838       -3.37209730161680        3.31088708986298
O           -4.34781151640254        3.27709387435547       -2.46699144271958
O           -4.38087029646143        1.25266844532872       -3.59233457745049
C           -4.53488634528914        2.01912717566122       -4.77851310871872
C            3.87723498374793        2.58190617420956        2.75999971154889
O            4.88460450082068        2.01774311446598        3.12595559598687
O            3.67095991760245        3.90692416382433        2.79348241538788
C            4.86095182405979        4.61580466281405        2.98044000323813
O           -2.64145078271842       -5.62841858841552        4.48915820885947
O           -0.38440562582705       -5.33724629689948        4.81285919930254
C           -0.54148850762632       -6.53385891254225        5.36893694352654
C           -4.87180839367259       -1.01270406396022        2.65921217719543
C           -1.11287278680151       -2.64504169783604       -0.63816250951536
H            0.29809017695615       -7.17616424935344        5.59230675823102
H           -1.37588825189817       -7.11540626260300        4.73679021792093
H           -0.96842905535985       -6.36552389008170        6.40287416716719
H            5.61165241036752        4.05040613162386        3.55421206073400
H            4.79736809468447        5.47773080570313        3.52524860563404
H            5.42774534826728        5.01281455676779        2.08833477835401
H           -1.16605639997496       -3.58450861577756       -1.28987936568488
H           -1.08094352221879       -2.88318760294313        0.39209114992882
H           -0.26680340993597       -1.91549044812108       -0.85945212240688
H           -5.00990951477172       -1.74968183375720        1.97434570464865
H           -5.61716933340955       -0.18242436688642        2.44763983634843
H           -5.25908154258394       -1.57894804422976        3.64351636321096
H           -3.67861634442133        2.09816538024529       -5.40923976955413
H           -4.84235351833008        3.05581858909004       -4.67748183498359
H           -5.48656413450635        1.49661600996342       -5.17693278694805
C           -1.30615684076561        3.77958298840864        3.80103804974138
C           -1.72267897194839        2.42107707705845        3.91846577242266
C           -0.84079195342198        1.73630122691629        4.90698968141327
C            0.49448820764384        2.10591204185054        5.05322822208209
C            0.95710803188539        3.35847834658636        4.52218033995478
C            0.07789727864012        4.23536261360027        3.94027155828007
C           -1.17510319352232        0.58135554763505        5.58869033583669
C           -0.17584154355448       -0.30865050763114        6.00795577034104
C            1.12813371303105        0.09711092570009        6.02637111091180
N            1.43105483177585        1.25649428661487        5.49045926960880
C           -2.55153837224223        0.26982208585310        6.00063518342212
C           -2.83641581856900       -1.04926969252897        6.35224620956523
N           -1.85137899375988       -1.85102543303849        6.67425739105558
C           -0.50027774363061       -1.66969077010940        6.41753566573938
C            0.49792896410903       -2.56865870419940        6.90588842832007
C            1.84626420867842       -2.12876024156154        6.92453497264043
C            2.15180567586287       -0.85628330496208        6.54706300802928
C           -3.64049755609004        1.20049929113500        6.17293421200649
C           -4.93543066449746        0.62774883362728        5.83223065658127
C           -5.19777742299958       -0.71067352920239        6.30078003944035
C           -4.13984373539301       -1.48471545257055        6.59261093475245
O           -3.48566237151107        2.60562869999987        6.10204603982727
O           -2.72770069531428        1.80502566769515        3.17698007042084
C            0.45982052428497        5.46119896594963        3.35646924375872
C           -6.55733383585050       -1.24915542717266        6.04277722632933
H            1.97199903602287        3.71139575551268        4.68103677892307
H           -2.17760068094109        4.42809796363122        3.54333593340266
H            3.23357829614124       -0.57797819863097        6.52179659569839
H            0.32068467873835       -3.56266318205768        7.32834592370065
H           -4.25045977183609       -2.56550500489083        6.63791166601690
H           -5.73107864466867        1.13778384183800        5.53156943947491
O            1.66660127965513        5.70393086071998        3.36242463156352
O           -0.58465122986656        6.34595999659284        3.22866372044732
C            0.03923352068755        7.64243910308708        2.98537477096017
C            2.92427961062442       -3.13674622265049        6.95281445662803
O            2.82001245204215       -4.26847258752625        6.42853171999171
O            4.02866871085267       -2.78024705341731        7.66115715413368
C            4.92332198756577       -3.85379730719452        7.74041663302865
O           -7.18361097266056       -1.42770221474440        7.10269137838098
O           -7.01885871141664       -1.69946797555498        4.81336109824536
C           -8.22551101984973       -2.37745868108623        4.80006758744644
C           -4.67619261194225        3.51456198648560        6.15215185584967
C           -3.57954584603755        2.59756002663154        2.41571650909355
H           -8.18653913979342       -3.46237542530380        4.36048726662502
H           -8.79279017741846       -1.91228873073149        4.02162998074776
H           -8.88370445976330       -2.12164436965026        5.70349914009227
H            5.79758190215862       -3.60911584329474        8.20921737926504
H            5.07780533577617       -4.43588188965159        6.86928105711257
H            4.53795244292485       -4.55891338273950        8.51947355679489
H           -3.07699248363482        3.57653046594860        2.26097566260315
H           -4.49457524717506        2.89589279587449        2.95816327410419
H           -3.88029281817362        2.20837759778466        1.48601776685713
H           -4.44380960221338        4.53965007281845        6.27450720730636
H           -5.27180158547767        3.11694487888985        6.99001555556342
H           -5.33599766869639        3.37001982609610        5.35150063539988
H           -0.73807627623346        8.46886070533364        3.05019990009158
H            0.47087826547111        7.51511344692849        1.92248323243759
H            0.80899994811413        7.75991369370636        3.82036777750827
116
 energy: -22.731201228107 gnorm: 0.453062377106 xtb: 6.6.1 (8d0f1dd)
C           -3.06667540985344       -0.31123382075655       -1.95514625613796
C           -2.28448183018685       -0.86860633417188       -1.02104577495043
C           -1.45824245183270       -0.00857418946179       -0.14725351475017
C           -1.15470658050412        1.34370080417156       -0.56350096950697
C           -1.95657304077278        1.79267830206477       -1.64959387233142
C           -2.97164576949371        1.06463882407544       -2.13241056976498
C           -0.71715824083970       -0.50799408487458        0.99612958780412
C            0.43458307075182        0.22370449883037        1.32780714599606
C            0.81797335460175        1.39876865779039        0.71026756472398
N           -0.01612131175180        2.04928250880486       -0.15919799212972
C           -0.92960111503615       -1.74741967436312        1.71135132147727
C            0.18843183984074       -2.34605958058262        2.41058099595044
N            1.31193077331837       -1.53314000853058        2.80127518455859
C            1.42402801054983       -0.27970820782528        2.32031713839910
C            2.29173758140596        0.57312576672156        2.97735903764076
C            2.59166570997440        1.78760440123612        2.35035738432377
C            1.99336755341677        2.04312958420306        1.11859667239269
C           -2.25187723242208       -2.19439286154600        2.07142077143583
C           -2.37548528984956       -3.36043399020273        2.79314530005178
C           -1.25484283627162       -4.14320289426142        3.16663379028216
C           -0.06231763219481       -3.48989324081247        3.12967778178012
O           -3.18947154247984       -1.17303564618170        1.75280219845116
O           -2.10216982449236       -2.26840200167707       -0.97530929704536
C           -3.67398566522328        1.48533216067574       -3.32859914234367
C           -1.56095710680399       -5.41058394853255        3.81898582742667
H           -1.59806195094101        2.69246560663052       -2.17768166379369
H           -3.87407131814136       -0.84308832263190       -2.52419074505540
H            2.36698159267847        2.85975361299281        0.50172540736685
H            2.98122934921645       -0.00381362057239        3.68308652095900
H            0.67965440859918       -4.03181333956207        3.77488081287559
H           -3.27174259031492       -3.80139749223506        3.21288954459048
O           -3.43983999046412        2.55799681908746       -3.93590894617474