      -----------------------------------------------------------      
     |                   =====================                   |     
     |                           x T B                           |     
     |                   =====================                   |     
     |                         S. Grimme                         |     
     |          Mulliken Center for Theoretical Chemistry        |     
     |                    University of Bonn                     |     
      -----------------------------------------------------------      

   * xtb version 6.6.1 (8d0f1dd) compiled by 'runner@Mac-1690902418499.local' on 2023-08-01

   xtb is free software: you can redistribute it and/or modify it under
   the terms of the GNU Lesser General Public License as published by
   the Free Software Foundation, either version 3 of the License, or
   (at your option) any later version.
   
   xtb is distributed in the hope that it will be useful,
   but WITHOUT ANY WARRANTY; without even the implied warranty of
   MERCHANTABILITY or FITNESS FOR A PARTICULAR PURPOSE.  See the
   GNU Lesser General Public License for more details.
   
   Cite this work as:
   * C. Bannwarth, E. Caldeweyher, S. Ehlert, A. Hansen, P. Pracht,
     J. Seibert, S. Spicher, S. Grimme, WIREs Comput. Mol. Sci., 2020, 11,
     e01493. DOI: 10.1002/wcms.1493
   
   for GFN2-xTB:
   * C. Bannwarth, S. Ehlert and S. Grimme., J. Chem. Theory Comput., 2019,
     15, 1652-1671. DOI: 10.1021/acs.jctc.8b01176
   for GFN1-xTB:
   * S. Grimme, C. Bannwarth, P. Shushkov, J. Chem. Theory Comput., 2017,
     13, 1989-2009. DOI: 10.1021/acs.jctc.7b00118
   for GFN0-xTB:
   * P. Pracht, E. Caldeweyher, S. Ehlert, S. Grimme, ChemRxiv, 2019, preprint.
     DOI: 10.26434/chemrxiv.8326202.v1
   for GFN-FF:
   * S. Spicher and S. Grimme, Angew. Chem. Int. Ed., 2020, 59, 15665-15673.
     DOI: 10.1002/anie.202004239
   
   for ALPB and GBSA implicit solvation:
   * S. Ehlert, M. Stahn, S. Spicher, S. Grimme, J. Chem. Theory Comput.,
     2021, 17, 4250-4261. DOI: 10.1021/acs.jctc.1c00471
   
   for DFT-D4:
   * E. Caldeweyher, C. Bannwarth and S. Grimme, J. Chem. Phys., 2017,
     147, 034112. DOI: 10.1063/1.4993215
   * E. Caldeweyher, S. Ehlert, A. Hansen, H. Neugebauer, S. Spicher,
     C. Bannwarth and S. Grimme, J. Chem. Phys., 2019, 150, 154122.
     DOI: 10.1063/1.5090222
   * E. Caldeweyher, J.-M. Mewes, S. Ehlert and S. Grimme, Phys. Chem. Chem. Phys.
     2020, 22, 8499-8512. DOI: 10.1039/D0CP00502A
   
   for sTDA-xTB:
   * S. Grimme and C. Bannwarth, J. Chem. Phys., 2016, 145, 054103.
     DOI: 10.1063/1.4959605
   
   in the mass-spec context:
   * V. Asgeirsson, C. Bauer and S. Grimme, Chem. Sci., 2017, 8, 4879.
     DOI: 10.1039/c7sc00601b
   * J. Koopman and S. Grimme, ACS Omega 2019, 4, 12, 15120-15133.
     DOI: 10.1021/acsomega.9b02011
   
   for metadynamics refer to:
   * S. Grimme, J. Chem. Theory Comput., 2019, 155, 2847-2862
     DOI: 10.1021/acs.jctc.9b00143
   
   for SPH calculations refer to:
   * S. Spicher and S. Grimme, J. Chem. Theory Comput., 2021, 17, 1701-1714
     DOI: 10.1021/acs.jctc.0c01306
   
   with help from (in alphabetical order)
   P. Atkinson, C. Bannwarth, F. Bohle, G. Brandenburg, E. Caldeweyher
   M. Checinski, S. Dohm, S. Ehlert, S. Ehrlich, I. Gerasimov, C. Hölzer
   A. Katbashev, J. Koopman, C. Lavigne, S. Lehtola, F. März, M. Müller,
   F. Musil, H. Neugebauer, J. Pisarek, C. Plett, P. Pracht, F. Pultar,
   J. Seibert, P. Shushkov, S. Spicher, M. Stahn, M. Steiner, T. Strunk,
   J. Stückrath, T. Rose, and J. Unsleber
   
 * started run on 2025/03/14 at 17:17:27.940     

           -------------------------------------------------
          |                Calculation Setup                |
           -------------------------------------------------

          program call               : xtb stacked_dimer_5.0.mol --dipro 0.3 --chrg -2 --uhf 4
          coordinate file            : stacked_dimer_5.0.mol
          omp threads                :                     8

   ID    Z sym.   atoms
    1    6 C      1-9, 11, 12, 14-21, 24-35, 42, 43, 77-85, 87, 88, 90-97,
                  100-111, 118, 119
    2    7 N      10, 13, 86, 89
    3    8 O      22, 23, 98, 99
    4    1 H      36-41, 44-76, 112-117, 120-152
########################################################################
[WARNING] Please study the warnings concerning your input carefully
-1- prog_main_parseArguments: Unknown option '--dipro' provided
########################################################################

           -------------------------------------------------
          |                 G F N 2 - x T B                 |
           -------------------------------------------------

        Reference                      10.1021/acs.jctc.8b01176
      * Hamiltonian:
        H0-scaling (s, p, d)           1.850000    2.230000    2.230000
        zeta-weighting                 0.500000
      * Dispersion:
        s8                             2.700000
        a1                             0.520000
        a2                             5.000000
        s9                             5.000000
      * Repulsion:
        kExp                           1.500000    1.000000
        rExp                           1.000000
      * Coulomb:
        alpha                          2.000000
        third order                    shell-resolved
        anisotropic                    true
        a3                             3.000000
        a5                             4.000000
        cn-shift                       1.200000
        cn-exp                         4.000000
        max-rad                        5.000000

q/qsh data taken from xtbrestart
CAMM data taken from xtbrestart

          ...................................................
          :                      SETUP                      :
          :.................................................:
          :  # basis functions                 374          :
          :  # atomic orbitals                 374          :
          :  # shells                          226          :
          :  # electrons                       388          :
          :  max. iterations                   250          :
          :  Hamiltonian                  GFN2-xTB          :
          :  restarted?                       true          :
          :  GBSA solvation                  false          :
          :  PC potential                    false          :
          :  electronic temp.          300.0000000     K    :
          :  accuracy                    1.0000000          :
          :  -> integral cutoff          0.2500000E+02      :
          :  -> integral neglect         0.1000000E-07      :
          :  -> SCF convergence          0.1000000E-05 Eh   :
          :  -> wf. convergence          0.1000000E-03 e    :
          :  Broyden damping             0.4000000          :
          ...................................................

 iter      E             dE          RMSdq      gap      omega  full diag
   1   -203.1700481 -0.203170E+03  0.369E+00    0.28       0.0  T
   2   -161.2473912  0.419227E+02  0.729E+00    0.43       1.0  T
   3   -208.3601315 -0.471127E+02  0.245E+00    0.04       1.0  T
   4   -208.3997224 -0.395909E-01  0.186E+00    0.34       1.0  T
   5   -207.1056780  0.129404E+01  0.202E+00    0.29       1.0  T
   6   -207.8089485 -0.703271E+00  0.145E+00    0.66       1.0  T
   7   -209.1263576 -0.131741E+01  0.650E-01    0.21       1.0  T
   8   -209.2505594 -0.124202E+00  0.303E-01    0.24       1.0  T
   9   -209.2743142 -0.237548E-01  0.221E-01    0.35       1.0  T
  10   -209.2758806 -0.156637E-02  0.147E-01    0.33       1.0  T
  11   -209.2787449 -0.286436E-02  0.112E-01    0.34       1.0  T
  12   -209.2815504 -0.280549E-02  0.424E-02    0.28       1.0  T
  13   -209.2818156 -0.265198E-03  0.218E-02    0.29       1.0  T
  14   -209.2818957 -0.800708E-04  0.148E-02    0.27       1.0  T
  15   -209.2819286 -0.329290E-04  0.669E-03    0.26       1.2  T
  16   -209.2819312 -0.255097E-05  0.351E-03    0.25       2.3  T
  17   -209.2819330 -0.183741E-05  0.131E-03    0.25       6.2  T
  18   -209.2819334 -0.384443E-06  0.562E-04    0.25      14.4  T
  19   -209.2819335 -0.683133E-07  0.245E-04    0.25      33.1  T

   *** convergence criteria satisfied after 19 iterations ***

         #    Occupation            Energy/Eh            Energy/eV
      -------------------------------------------------------------
         1        2.0000           -0.7182985             -19.5459
       ...           ...                  ...                  ...
       190        2.0000           -0.0705915              -1.9209
       191        1.9999           -0.0534010              -1.4531
       192        1.9669           -0.0479463              -1.3047
       193        1.0332           -0.0415354              -1.1302
       194        1.0000           -0.0317399              -0.8637
       195        1.0000           -0.0120953              -0.3291
       196        0.9925            0.0042505               0.1157 (HOMO)
       197        0.0075            0.0135447               0.3686 (LUMO)
       198                          0.0258629               0.7038
       199                          0.0272942               0.7427
       200                          0.0337978               0.9197
       201                          0.0436814               1.1886
       ...                                ...                  ...
       374                         10.7005779             291.1775
      -------------------------------------------------------------
                  HL-Gap            0.0092942 Eh            0.2529 eV
             Fermi-level           -0.0179208 Eh           -0.4877 eV

 SCC (total)                   0 d,  0 h,  0 min,  1.647 sec
 SCC setup                      ...        0 min,  0.000 sec (  0.030%)
 Dispersion                     ...        0 min,  0.002 sec (  0.118%)
 classical contributions        ...        0 min,  0.000 sec (  0.030%)
 integral evaluation            ...        0 min,  0.009 sec (  0.558%)
 iterations                     ...        0 min,  1.543 sec ( 93.689%)
 molecular gradient             ...        0 min,  0.074 sec (  4.486%)
 printout                       ...        0 min,  0.018 sec (  1.088%)

         :::::::::::::::::::::::::::::::::::::::::::::::::::::
         ::                     SUMMARY                     ::
         :::::::::::::::::::::::::::::::::::::::::::::::::::::
         :: total energy            -203.836435827057 Eh    ::
         :: gradient norm              5.847837453635 Eh/a0 ::
         :: HOMO-LUMO gap              0.252906868857 eV    ::
         ::.................................................::
         :: SCC energy              -209.281933474115 Eh    ::
         :: -> isotropic ES            0.592884895389 Eh    ::
         :: -> anisotropic ES          0.099350452488 Eh    ::
         :: -> anisotropic XC          0.080461981022 Eh    ::
         :: -> dispersion             -0.250833285436 Eh    ::
         :: repulsion energy           5.430699350504 Eh    ::
         :: add. restraining           0.000000000000 Eh    ::
         :: total charge              -1.999999763897 e     ::
         :::::::::::::::::::::::::::::::::::::::::::::::::::::

           -------------------------------------------------
          |                Property Printout                |
           -------------------------------------------------

    * Orbital Energies and Occupations

         #    Occupation            Energy/Eh            Energy/eV
      -------------------------------------------------------------
         1        2.0000           -0.7182985             -19.5459
       ...           ...                  ...                  ...
       184        2.0000           -0.1172739              -3.1912
       185        2.0000           -0.0981123              -2.6698
       186        2.0000           -0.0949564              -2.5839
       187        2.0000           -0.0905621              -2.4643
       188        2.0000           -0.0754529              -2.0532
       189        2.0000           -0.0744334              -2.0254
       190        2.0000           -0.0705915              -1.9209
       191        1.9999           -0.0534010              -1.4531
       192        1.9669           -0.0479463              -1.3047
       193        1.0332           -0.0415354              -1.1302
       194        1.0000           -0.0317399              -0.8637
       195        1.0000           -0.0120953              -0.3291
       196        0.9925            0.0042505               0.1157 (HOMO)
       197        0.0075            0.0135447               0.3686 (LUMO)
       198                          0.0258629               0.7038
       199                          0.0272942               0.7427
       200                          0.0337978               0.9197
       201                          0.0436814               1.1886
       202                          0.0489639               1.3324
       203                          0.0520272               1.4157
       204                          0.0655956               1.7849
       205                          0.0752030               2.0464
       206                          0.0799764               2.1763
       207                          0.0898086               2.4438
       ...                                ...                  ...
       374                         10.7005779             291.1775
      -------------------------------------------------------------
                  HL-Gap            0.0092942 Eh            0.2529 eV
             Fermi-level           -0.0179208 Eh           -0.4877 eV

     #   Z          covCN         q      C6AA      α(0)
     1   6 C        2.926    -0.140    31.580     9.216
     2   6 C        3.353     0.057    24.017     7.714
     3   6 C        2.985    -0.106    30.671     9.085
     4   6 C        2.960     0.075    26.333     8.417
     5   6 C        2.931    -0.118    30.984     9.129
     6   6 C        2.969    -0.050    29.232     8.868
     7   6 C        2.983    -0.043    29.058     8.842
     8   6 C        3.003    -0.054    29.321     8.882
     9   6 C        2.951     0.077    26.285     8.409
    10   7 N        1.852    -0.350    29.962     8.113
    11   6 C        3.103    -0.134    31.276     9.164
    12   6 C        4.853    -0.093    22.178     6.688
    13   7 N        1.931    -0.497    34.263     8.679
    14   6 C        2.951     0.083    26.147     8.387
    15   6 C        2.925    -0.099    30.481     9.054
    16   6 C        2.965    -0.018    28.446     8.748
    17   6 C        2.927    -0.095    30.376     9.039
    18   6 C        4.996     0.040    19.824     6.323
    19   6 C        4.861    -0.301    26.596     7.324
    20   6 C        4.498     0.071    19.316     6.242
    21   6 C        6.435    -0.154    23.369     6.865
    22   8 O        5.370    -0.031    14.864     5.207
    23   8 O        1.704    -0.397    20.775     6.154
    24   6 C        3.903     0.025    20.101     6.373
    25   6 C        3.904    -0.003    20.568     6.446
    26   6 C        3.903     0.025    20.097     6.372
    27   6 C        3.761    -0.103    22.516     6.764
    28   6 C        3.762    -0.117    22.777     6.803
    29   6 C        3.766    -0.194    24.353     7.033
    30   6 C        3.762    -0.093    22.313     6.734
    31   6 C        3.762    -0.106    22.563     6.771
    32   6 C        3.761    -0.093    22.330     6.736
    33   6 C        3.762    -0.095    22.352     6.739
    34   6 C        3.761    -0.094    22.342     6.738
    35   6 C        3.761    -0.097    22.407     6.748
    36   1 H        0.926    -0.003     3.103     2.754
    37   1 H        0.926    -0.050     4.098     3.165
    38   1 H        0.926    -0.012     3.269     2.827
    39   1 H        0.926    -0.009     3.221     2.807
    40   1 H        2.837     0.375     0.520     1.125
    41   1 H        0.926    -0.067     4.524     3.326
    42   6 C        8.035    -0.198    24.281     6.998
    43   6 C        3.651     0.054    19.972     6.419
    44   1 H        0.925     0.035     2.516     2.481
    45   1 H        0.925     0.002     3.023     2.719
    46   1 H        0.925     0.034     2.537     2.491
    47   1 H        0.925     0.022     2.701     2.570
    48   1 H        0.925     0.027     2.627     2.535
    49   1 H        0.925     0.002     3.022     2.719
    50   1 H        0.925     0.015     2.813     2.623
    51   1 H        0.925     0.004     2.988     2.703
    52   1 H        0.925     0.022     2.696     2.568
    53   1 H        0.925     0.030     2.591     2.517
    54   1 H        0.925     0.014     2.823     2.627
    55   1 H        0.925     0.002     3.020     2.718
    56   1 H        0.925     0.017     2.773     2.604
    57   1 H        0.925     0.043     2.414     2.430
    58   1 H        0.925     0.002     3.023     2.719
    59   1 H        0.925     0.030     2.583     2.513
    60   1 H        0.925    -0.000     3.066     2.738
    61   1 H        0.925     0.062     2.181     2.309
    62   1 H        1.115     0.195     1.117     1.650
    63   1 H        0.925     0.020     2.726     2.582
    64   1 H        0.925     0.011     2.867     2.648
    65   1 H        0.925     0.030     2.581     2.513
    66   1 H        0.925     0.041     2.437     2.441
    67   1 H        0.925     0.005     2.978     2.699
    68   1 H        0.925     0.022     2.700     2.569
    69   1 H        0.925     0.029     2.595     2.519
    70   1 H        0.925     0.034     2.535     2.490
    71   1 H        0.925     0.006     2.962     2.691
    72   1 H        0.924     0.039     2.467     2.456
    73   1 H        0.924     0.021     2.723     2.581
    74   1 H        2.817     0.425     0.430     1.024
    75   1 H        2.833     0.381     0.509     1.114
    76   1 H        0.924    -0.027     3.563     2.952
    77   6 C        5.443    -0.226    24.899     7.087
    78   6 C        3.093     0.037    27.065     8.527
    79   6 C        2.981    -0.076    29.880     8.967
    80   6 C        2.960     0.072    26.393     8.427
    81   6 C        2.931    -0.129    31.288     9.173
    82   6 C        3.878    -0.082    22.007     6.670
    83   6 C        2.983    -0.036    28.891     8.817
    84   6 C        3.003    -0.044    29.077     8.845
    85   6 C        2.951     0.075    26.316     8.414
    86   7 N        1.852    -0.344    29.787     8.089
    87   6 C        2.984    -0.081    30.017     8.987
    88   6 C        2.958     0.069    26.462     8.437
    89   7 N        1.851    -0.367    30.418     8.174
    90   6 C        2.951     0.073    26.370     8.423
    91   6 C        2.925    -0.102    30.563     9.066
    92   6 C        2.965    -0.028    28.696     8.787
    93   6 C        2.927    -0.092    30.306     9.028
    94   6 C        2.858     0.063    26.584     8.451
    95   6 C        2.921    -0.132    31.378     9.186
    96   6 C        2.969    -0.060    29.483     8.907
    97   6 C        2.931    -0.115    30.925     9.120
    98   8 O        1.706    -0.323    19.400     5.947
    99   8 O        3.461    -0.147    16.494     5.485
   100   6 C        6.412    -0.026    20.950     6.500
   101   6 C        3.903     0.024    20.117     6.375
   102   6 C        3.903     0.024    20.112     6.375
   103   6 C        3.761    -0.088    22.227     6.721
   104   6 C        3.762    -0.094    22.342     6.738
   105   6 C        3.762    -0.094    22.338     6.737
   106   6 C        3.762    -0.102    22.498     6.762
   107   6 C        3.762    -0.093    22.312     6.733
   108   6 C        3.761    -0.091    22.282     6.729
   109   6 C        6.349    -0.176    23.827     6.932
   110   6 C        6.212    -0.107    22.450     6.729
   111   6 C        3.761    -0.153    23.506     6.911
   112   1 H        0.926    -0.010     3.241     2.815
   113   1 H        2.779     0.395     0.482     1.084
   114   1 H        0.926    -0.012     3.281     2.832
   115   1 H        0.926    -0.015     3.335     2.856
   116   1 H        0.926    -0.021     3.439     2.900
   117   1 H        0.926    -0.038     3.819     3.056
   118   6 C        3.697    -0.002    20.783     6.521
   119   6 C        7.230     0.130    18.395     6.091
   120   1 H        0.925     0.052     2.299     2.371
   121   1 H        0.925    -0.002     3.089     2.749
   122   1 H        0.925     0.093     1.847     2.125
   123   1 H        2.175     0.326     0.632     1.241
   124   1 H        1.279     0.171     1.249     1.745
   125   1 H        0.925    -0.072     4.663     3.377
   126   1 H        2.776     0.307     0.684     1.291
   127   1 H        0.925     0.057     2.235     2.338
   128   1 H        0.925     0.020     2.740     2.589
   129   1 H        0.925     0.037     2.487     2.466
   130   1 H        0.925     0.044     2.393     2.419
   131   1 H        0.925    -0.002     3.087     2.748
   132   1 H        0.925     0.029     2.603     2.523
   133   1 H        0.925     0.023     2.693     2.566
   134   1 H        0.925    -0.001     3.080     2.745
   135   1 H        0.925     0.032     2.554     2.499
   136   1 H        0.925    -0.001     3.071     2.741
   137   1 H        0.925     0.017     2.773     2.604
   138   1 H        0.925     0.021     2.712     2.575
   139   1 H        0.925     0.036     2.502     2.474
   140   1 H        0.925    -0.001     3.078     2.743
   141   1 H        0.925     0.010     2.896     2.661
   142   1 H        0.925     0.001     3.039     2.726
   143   1 H        0.925     0.037     2.490     2.468
   144   1 H        0.925     0.017     2.777     2.606
   145   1 H        0.925     0.021     2.723     2.580
   146   1 H        0.925    -0.000     3.060     2.736
   147   1 H        2.657     0.083     1.930     2.169
   148   1 H        0.925     0.103     1.758     2.074
   149   1 H        2.812     0.496     0.334     0.903
   150   1 H        0.925    -0.000     3.066     2.738
   151   1 H        0.924     0.008     2.919     2.672
   152   1 H        1.065     0.116     1.639     1.999

 Mol. C6AA /au·bohr⁶  :     241936.690679
 Mol. C8AA /au·bohr⁸  :    5673185.092294
 Mol. α(0) /au        :        754.413402


Wiberg/Mayer (AO) data.
largest (>0.10) Wiberg bond orders for each atom

 ---------------------------------------------------------------------------
     #   Z sym  total        # sym  WBO       # sym  WBO       # sym  WBO
 ---------------------------------------------------------------------------
     1   6 C    3.901 --     6 C    1.343     2 C    1.318    37 H    0.960
     2   6 C    3.834 --     1 C    1.318     3 C    1.139    23 O    0.916
                           124 H    0.127
     3   6 C    3.946 --     7 C    1.227     4 C    1.182     2 C    1.139
     4   6 C    3.976 --    10 N    1.367     5 C    1.244     3 C    1.182
     5   6 C    3.899 --     6 C    1.414     4 C    1.244    36 H    0.966
     6   6 C    3.923 --     5 C    1.414     1 C    1.343    24 C    0.973
     7   6 C    3.956 --     3 C    1.227     8 C    1.217    11 C    1.213
     8   6 C    3.970 --     9 C    1.230    14 C    1.217     7 C    1.217
     9   6 C    3.972 --    17 C    1.302    10 N    1.269     8 C    1.230
    10   7 N    2.975 --     4 C    1.367     9 C    1.269
    11   6 C    3.829 --     7 C    1.213    12 C    1.111    18 C    1.000
    12   6 C    3.751 --    13 N    1.114    11 C    1.111    21 C    0.643
                           149 H    0.282   119 C    0.129   147 H    0.117
    13   7 N    2.830 --    14 C    1.259    12 C    1.114
    14   6 C    3.954 --    15 C    1.291    13 N    1.259     8 C    1.217
    15   6 C    3.941 --    16 C    1.425    14 C    1.291    39 H    0.967
    16   6 C    3.956 --    15 C    1.425    17 C    1.404    26 C    0.974
    17   6 C    3.921 --    16 C    1.404     9 C    1.302    38 H    0.965
    18   6 C    3.765 --    11 C    1.000    19 C    0.812    77 C    0.752
                            22 O    0.693   113 H    0.151
    19   6 C    3.480 --    20 C    1.129    41 H    0.873    18 C    0.812
                           113 H    0.255
    20   6 C    3.822 --    19 C    1.129    25 C    0.941    21 C    0.773
                            99 O    0.654
    21   6 C    3.787 --   119 C    1.525    20 C    0.773    12 C    0.643
                           149 H    0.357
    22   8 O    2.682 --    18 C    0.693    42 C    0.673   110 C    0.489
                            82 C    0.179   100 C    0.108
    23   8 O    2.050 --    43 C    0.972     2 C    0.916
    24   6 C    3.980 --    35 C    0.999    33 C    0.989    34 C    0.988
                             6 C    0.973
    25   6 C    3.980 --    27 C    0.998    28 C    0.989    29 C    0.985
                            20 C    0.941
    26   6 C    3.984 --    32 C    0.999    31 C    0.990    30 C    0.989
                            16 C    0.974
    27   6 C    3.996 --    25 C    0.998    68 H    0.985    70 H    0.984
                            69 H    0.980
    28   6 C    3.992 --    25 C    0.989    65 H    0.986    66 H    0.985
                            67 H    0.976
    29   6 C    3.949 --    25 C    0.985    64 H    0.978    63 H    0.952
                            62 H    0.778   118 C    0.145
    30   6 C    3.995 --    26 C    0.989    54 H    0.988    55 H    0.986
                            53 H    0.984
    31   6 C    3.993 --    26 C    0.990    60 H    0.985    59 H    0.984
                            61 H    0.959
    32   6 C    3.997 --    26 C    0.999    56 H    0.986    58 H    0.986
                            57 H    0.985
    33   6 C    3.994 --    24 C    0.989    52 H    0.988    51 H    0.986
                            50 H    0.985
    34   6 C    3.994 --    24 C    0.988    48 H    0.988    49 H    0.986
                            47 H    0.985
    35   6 C    3.997 --    24 C    0.999    45 H    0.986    44 H    0.986
                            46 H    0.985
    36   1 H    0.999 --     5 C    0.966
    37   1 H    0.997 --     1 C    0.960
    38   1 H    0.999 --    17 C    0.965
    39   1 H    0.999 --    15 C    0.967
    40   1 H    0.853 --   147 H    0.394   119 C    0.309
    41   1 H    0.994 --    19 C    0.873
    42   6 C    3.576 --    76 H    0.811    22 O    0.673   109 C    0.572
                            74 H    0.474   100 C    0.214   110 C    0.201
                            75 H    0.186
    43   6 C    3.960 --    71 H    0.984    73 H    0.979    72 H    0.972
                            23 O    0.972
    44   1 H    0.999 --    35 C    0.986
    45   1 H    1.000 --    35 C    0.986
    46   1 H    0.999 --    35 C    0.985
    47   1 H    0.999 --    34 C    0.985
    48   1 H    0.999 --    34 C    0.988
    49   1 H    0.999 --    34 C    0.986
    50   1 H    1.000 --    33 C    0.985
    51   1 H    0.999 --    33 C    0.986
    52   1 H    0.999 --    33 C    0.988
    53   1 H    0.999 --    30 C    0.984
    54   1 H    1.000 --    30 C    0.988
    55   1 H    0.999 --    30 C    0.986
    56   1 H    1.000 --    32 C    0.986
    57   1 H    0.998 --    32 C    0.985
    58   1 H    1.000 --    32 C    0.986
    59   1 H    0.999 --    31 C    0.984
    60   1 H    0.999 --    31 C    0.985
    61   1 H    0.996 --    31 C    0.959
    62   1 H    0.962 --    29 C    0.778   152 H    0.144
    63   1 H    0.999 --    29 C    0.952
    64   1 H    0.997 --    29 C    0.978
    65   1 H    0.999 --    28 C    0.986
    66   1 H    0.997 --    28 C    0.985
    67   1 H    1.000 --    28 C    0.976
    68   1 H    0.999 --    27 C    0.985
    69   1 H    0.999 --    27 C    0.980
    70   1 H    0.998 --    27 C    0.984
    71   1 H    0.999 --    43 C    0.984
    72   1 H    0.998 --    43 C    0.972
    73   1 H    0.999 --    43 C    0.979
    74   1 H    0.808 --    42 C    0.474
    75   1 H    0.850 --   126 H    0.376   109 C    0.216    42 C    0.186
    76   1 H    0.980 --    42 C    0.811
    77   6 C    3.673 --    78 C    1.073    82 C    0.989    18 C    0.752
                           113 H    0.342
    78   6 C    3.705 --    79 C    1.278    77 C    1.073    99 O    0.946
    79   6 C    3.945 --    78 C    1.278    80 C    1.165    83 C    1.164
    80   6 C    3.970 --    86 N    1.333    81 C    1.247    79 C    1.165
    81   6 C    3.895 --    82 C    1.338    80 C    1.247   112 H    0.962
    82   6 C    3.820 --    81 C    1.338    77 C    0.989   100 C    0.935
                            22 O    0.179
    83   6 C    3.953 --    84 C    1.255    87 C    1.233    79 C    1.164
    84   6 C    3.968 --    83 C    1.255    90 C    1.222    85 C    1.209
    85   6 C    3.960 --    93 C    1.294    86 N    1.291    84 C    1.209
    86   7 N    2.959 --    80 C    1.333    85 C    1.291
    87   6 C    3.961 --    83 C    1.233    94 C    1.220    88 C    1.194
    88   6 C    3.980 --    89 N    1.336    97 C    1.271    87 C    1.194
    89   7 N    2.954 --    88 C    1.336    90 C    1.279
    90   6 C    3.974 --    91 C    1.295    89 N    1.279    84 C    1.222
    91   6 C    3.915 --    92 C    1.412    90 C    1.295   115 H    0.967
    92   6 C    3.948 --    91 C    1.412    93 C    1.412   102 C    0.972
    93   6 C    3.921 --    92 C    1.412    85 C    1.294   114 H    0.965
    94   6 C    3.835 --    95 C    1.371    87 C    1.220    98 O    0.968
    95   6 C    3.924 --    94 C    1.371    96 C    1.343   117 H    0.958
    96   6 C    3.914 --    97 C    1.390    95 C    1.343   101 C    0.972
    97   6 C    3.887 --    96 C    1.390    88 C    1.271   116 H    0.963
    98   8 O    2.138 --   118 C    0.997    94 C    0.968
    99   8 O    2.570 --    78 C    0.946    20 C    0.654   119 C    0.457
   100   6 C    3.797 --    82 C    0.935   111 C    0.906   109 C    0.674
                           110 C    0.546    42 C    0.214    22 O    0.108
   101   6 C    3.977 --   103 C    0.997   105 C    0.989   104 C    0.989
                            96 C    0.972
   102   6 C    3.981 --   108 C    0.998   106 C    0.990   107 C    0.989
                            92 C    0.972
   103   6 C    3.997 --   101 C    0.997   145 H    0.986   146 H    0.985
                           144 H    0.985
   104   6 C    3.993 --   101 C    0.989   141 H    0.988   142 H    0.986
                           143 H    0.984
   105   6 C    3.994 --   101 C    0.989   138 H    0.988   140 H    0.986
                           139 H    0.984
   106   6 C    3.994 --   102 C    0.990   131 H    0.985   129 H    0.982
                           130 H    0.962
   107   6 C    3.995 --   102 C    0.989   137 H    0.988   136 H    0.986
                           135 H    0.984
   108   6 C    3.997 --   102 C    0.998   133 H    0.986   132 H    0.986
                           134 H    0.986
   109   6 C    3.795 --   127 H    0.913   128 H    0.773   100 C    0.674
                            42 C    0.572   126 H    0.329    75 H    0.216
   110   6 C    3.718 --   125 H    0.761   124 H    0.741   100 C    0.546
                            22 O    0.489   123 H    0.471    42 C    0.201
   111   6 C    3.984 --   120 H    0.978   121 H    0.978   122 H    0.970
                           100 C    0.906
   112   1 H    0.998 --    81 C    0.962
   113   1 H    0.842 --    77 C    0.342    19 C    0.255    18 C    0.151
   114   1 H    0.999 --    93 C    0.965
   115   1 H    0.999 --    91 C    0.967
   116   1 H    0.999 --    97 C    0.963
   117   1 H    0.998 --    95 C    0.958
   118   6 C    3.959 --    98 O    0.997   150 H    0.979   151 H    0.972
                           152 H    0.802    29 C    0.145
   119   6 C    3.843 --    21 C    1.525   148 H    0.820    99 O    0.457
                           147 H    0.367    40 H    0.309    12 C    0.129
   120   1 H    0.996 --   111 C    0.978
   121   1 H    0.999 --   111 C    0.978
   122   1 H    0.991 --   111 C    0.970
   123   1 H    0.874 --   110 C    0.471
   124   1 H    0.969 --   110 C    0.741     2 C    0.127
   125   1 H    0.975 --   110 C    0.761
   126   1 H    0.895 --    75 H    0.376   109 C    0.329
   127   1 H    0.992 --   109 C    0.913
   128   1 H    0.964 --   109 C    0.773
   129   1 H    0.999 --   106 C    0.982
   130   1 H    0.998 --   106 C    0.962
   131   1 H    0.999 --   106 C    0.985
   132   1 H    0.999 --   108 C    0.986
   133   1 H    0.999 --   108 C    0.986
   134   1 H    1.000 --   108 C    0.986
   135   1 H    0.999 --   107 C    0.984
   136   1 H    0.999 --   107 C    0.986
   137   1 H    1.000 --   107 C    0.988
   138   1 H    1.000 --   105 C    0.988
   139   1 H    0.999 --   105 C    0.984
   140   1 H    0.999 --   105 C    0.986
   141   1 H    1.000 --   104 C    0.988
   142   1 H    0.999 --   104 C    0.986
   143   1 H    0.999 --   104 C    0.984
   144   1 H    1.000 --   103 C    0.985
   145   1 H    1.000 --   103 C    0.986
   146   1 H    0.999 --   103 C    0.985
   147   1 H    0.989 --    40 H    0.394   119 C    0.367    12 C    0.117
   148   1 H    0.986 --   119 C    0.820
   149   1 H    0.753 --    21 C    0.357    12 C    0.282
   150   1 H    0.999 --   118 C    0.979
   151   1 H    0.999 --   118 C    0.972
   152   1 H    0.986 --   118 C    0.802    62 H    0.144
 ---------------------------------------------------------------------------

Topologies differ in total number of bonds
Writing corrected topology to xtbtopo.mol

molecular dipole:
                 x           y           z       tot (Debye)
 q only:       -6.966      -1.431     -13.965
   full:       -8.094      -2.708     -14.214      42.141
molecular quadrupole (traceless):
                xx          xy          yy          xz          yz          zz
 q only:      168.294     -20.763      70.482     -59.715      73.816    -238.775
  q+dip:      186.384      -6.910      64.383     -55.955      54.012    -250.767
   full:      182.326      -9.570      64.794     -60.712      59.682    -247.121


           -------------------------------------------------
          | TOTAL ENERGY             -203.836435827057 Eh   |
          | GRADIENT NORM               5.847837453635 Eh/α |
          | HOMO-LUMO GAP               0.252906868857 eV   |
           -------------------------------------------------
########################################################################
[WARNING] Runtime exception occurred
-2- restart_readRestart: Multiplicity missmatch in restart file.
-1- restart_readRestart: Number of electron missmatch in restart file.
########################################################################

------------------------------------------------------------------------
 * finished run on 2025/03/14 at 17:17:29.620     
------------------------------------------------------------------------
 total:
 * wall-time:     0 d,  0 h,  0 min,  1.679 sec
 *  cpu-time:     0 d,  0 h,  0 min,  6.051 sec
 * ratio c/w:     3.603 speedup
 SCF:
 * wall-time:     0 d,  0 h,  0 min,  1.648 sec
 *  cpu-time:     0 d,  0 h,  0 min,  6.001 sec
 * ratio c/w:     3.642 speedup

Stack distance: 5.0 Å
Electron Transfer integral J: None eV
Hole Transfer integral J: None eV

      -----------------------------------------------------------      
     |                   =====================                   |     
     |                           x T B                           |     
     |                   =====================                   |     
     |                         S. Grimme                         |     
     |          Mulliken Center for Theoretical Chemistry        |     
     |                    University of Bonn                     |     
      -----------------------------------------------------------      

   * xtb version 6.6.1 (8d0f1dd) compiled by 'runner@Mac-1690902418499.local' on 2023-08-01

   xtb is free software: you can redistribute it and/or modify it under
   the terms of the GNU Lesser General Public License as published by
   the Free Software Foundation, either version 3 of the License, or
   (at your option) any later version.
   
   xtb is distributed in the hope that it will be useful,
   but WITHOUT ANY WARRANTY; without even the implied warranty of
   MERCHANTABILITY or FITNESS FOR A PARTICULAR PURPOSE.  See the
   GNU Lesser General Public License for more details.
   
   Cite this work as:
   * C. Bannwarth, E. Caldeweyher, S. Ehlert, A. Hansen, P. Pracht,
     J. Seibert, S. Spicher, S. Grimme, WIREs Comput. Mol. Sci., 2020, 11,
     e01493. DOI: 10.1002/wcms.1493
   
   for GFN2-xTB:
   * C. Bannwarth, S. Ehlert and S. Grimme., J. Chem. Theory Comput., 2019,
     15, 1652-1671. DOI: 10.1021/acs.jctc.8b01176
   for GFN1-xTB:
   * S. Grimme, C. Bannwarth, P. Shushkov, J. Chem. Theory Comput., 2017,
     13, 1989-2009. DOI: 10.1021/acs.jctc.7b00118
   for GFN0-xTB:
   * P. Pracht, E. Caldeweyher, S. Ehlert, S. Grimme, ChemRxiv, 2019, preprint.
     DOI: 10.26434/chemrxiv.8326202.v1
   for GFN-FF:
   * S. Spicher and S. Grimme, Angew. Chem. Int. Ed., 2020, 59, 15665-15673.
     DOI: 10.1002/anie.202004239
   
   for ALPB and GBSA implicit solvation:
   * S. Ehlert, M. Stahn, S. Spicher, S. Grimme, J. Chem. Theory Comput.,
     2021, 17, 4250-4261. DOI: 10.1021/acs.jctc.1c00471
   
   for DFT-D4:
   * E. Caldeweyher, C. Bannwarth and S. Grimme, J. Chem. Phys., 2017,
     147, 034112. DOI: 10.1063/1.4993215
   * E. Caldeweyher, S. Ehlert, A. Hansen, H. Neugebauer, S. Spicher,
     C. Bannwarth and S. Grimme, J. Chem. Phys., 2019, 150, 154122.
     DOI: 10.1063/1.5090222
   * E. Caldeweyher, J.-M. Mewes, S. Ehlert and S. Grimme, Phys. Chem. Chem. Phys.
     2020, 22, 8499-8512. DOI: 10.1039/D0CP00502A
   
   for sTDA-xTB:
   * S. Grimme and C. Bannwarth, J. Chem. Phys., 2016, 145, 054103.
     DOI: 10.1063/1.4959605
   
   in the mass-spec context:
   * V. Asgeirsson, C. Bauer and S. Grimme, Chem. Sci., 2017, 8, 4879.
     DOI: 10.1039/c7sc00601b
   * J. Koopman and S. Grimme, ACS Omega 2019, 4, 12, 15120-15133.
     DOI: 10.1021/acsomega.9b02011
   
   for metadynamics refer to:
   * S. Grimme, J. Chem. Theory Comput., 2019, 155, 2847-2862
     DOI: 10.1021/acs.jctc.9b00143
   
   for SPH calculations refer to:
   * S. Spicher and S. Grimme, J. Chem. Theory Comput., 2021, 17, 1701-1714
     DOI: 10.1021/acs.jctc.0c01306
   
   with help from (in alphabetical order)
   P. Atkinson, C. Bannwarth, F. Bohle, G. Brandenburg, E. Caldeweyher
   M. Checinski, S. Dohm, S. Ehlert, S. Ehrlich, I. Gerasimov, C. Hölzer
   A. Katbashev, J. Koopman, C. Lavigne, S. Lehtola, F. März, M. Müller,
   F. Musil, H. Neugebauer, J. Pisarek, C. Plett, P. Pracht, F. Pultar,
   J. Seibert, P. Shushkov, S. Spicher, M. Stahn, M. Steiner, T. Strunk,
   J. Stückrath, T. Rose, and J. Unsleber
   
 * started run on 2025/03/14 at 17:18:08.940     

           -------------------------------------------------
          |                Calculation Setup                |
           -------------------------------------------------

          program call               : xtb stacked_dimer_5.0.mol --dipro 0.3 --chrg 0 --uhf 2
          coordinate file            : stacked_dimer_5.0.mol
          omp threads                :                     8

   ID    Z sym.   atoms
    1    6 C      1-9, 11, 12, 14-21, 24-35, 42, 43, 77-85, 87, 88, 90-97,
                  100-111, 118, 119
    2    7 N      10, 13, 86, 89
    3    8 O      22, 23, 98, 99
    4    1 H      36-41, 44-76, 112-117, 120-152
########################################################################
[WARNING] Please study the warnings concerning your input carefully
-1- prog_main_parseArguments: Unknown option '--dipro' provided
########################################################################

           -------------------------------------------------
          |                 G F N 2 - x T B                 |
           -------------------------------------------------

        Reference                      10.1021/acs.jctc.8b01176
      * Hamiltonian:
        H0-scaling (s, p, d)           1.850000    2.230000    2.230000
        zeta-weighting                 0.500000
      * Dispersion:
        s8                             2.700000
        a1                             0.520000
        a2                             5.000000
        s9                             5.000000
      * Repulsion:
        kExp                           1.500000    1.000000
        rExp                           1.000000
      * Coulomb:
        alpha                          2.000000
        third order                    shell-resolved
        anisotropic                    true
        a3                             3.000000
        a5                             4.000000
        cn-shift                       1.200000
        cn-exp                         4.000000
        max-rad                        5.000000

q/qsh data taken from xtbrestart
CAMM data taken from xtbrestart

          ...................................................
          :                      SETUP                      :
          :.................................................:
          :  # basis functions                 374          :
          :  # atomic orbitals                 374          :
          :  # shells                          226          :
          :  # electrons                       386          :
          :  max. iterations                   250          :
          :  Hamiltonian                  GFN2-xTB          :
          :  restarted?                       true          :
          :  GBSA solvation                  false          :
          :  PC potential                    false          :
          :  electronic temp.          300.0000000     K    :
          :  accuracy                    1.0000000          :
          :  -> integral cutoff          0.2500000E+02      :
          :  -> integral neglect         0.1000000E-07      :
          :  -> SCF convergence          0.1000000E-05 Eh   :
          :  -> wf. convergence          0.1000000E-03 e    :
          :  Broyden damping             0.4000000          :
          ...................................................

 iter      E             dE          RMSdq      gap      omega  full diag
   1   -209.0015534 -0.209002E+03  0.468E-01    0.53       0.0  T
   2   -208.9514770  0.500763E-01  0.610E-01    0.19       1.0  T
   3   -209.0158634 -0.643864E-01  0.420E-01    0.54       1.0  T
   4   -209.0591750 -0.433116E-01  0.273E-01    0.38       1.0  T
   5   -209.0502879  0.888710E-02  0.266E-01    0.34       1.0  T
   6   -209.0563441 -0.605623E-02  0.195E-01    0.28       1.0  T
   7   -209.0628911 -0.654698E-02  0.993E-02    0.25       1.0  T
   8   -209.0651316 -0.224056E-02  0.492E-02    0.30       1.0  T
   9   -209.0659412 -0.809606E-03  0.212E-02    0.29       1.0  T
  10   -209.0660438 -0.102582E-03  0.995E-03    0.31       1.0  T
  11   -209.0660522 -0.836222E-05  0.567E-03    0.30       1.4  T
  12   -209.0660584 -0.618641E-05  0.203E-03    0.31       4.0  T
  13   -209.0660594 -0.101979E-05  0.969E-04    0.31       8.4  T
  14   -209.0660596 -0.155937E-06  0.439E-04    0.31      18.5  T
  15   -209.0660596 -0.240314E-07  0.216E-04    0.31      37.5  T

   *** convergence criteria satisfied after 15 iterations ***

         #    Occupation            Energy/Eh            Energy/eV
      -------------------------------------------------------------
         1        2.0000           -0.9221299             -25.0924
       ...           ...                  ...                  ...
       188        2.0000           -0.2811355              -7.6501
       189        2.0000           -0.2759485              -7.5089
       190        2.0000           -0.2713451              -7.3837
       191        2.0000           -0.2582769              -7.0281
       192        1.9631           -0.2488525              -6.7716
       193        1.0369           -0.2426520              -6.6029
       194        0.9974           -0.2333990              -6.3511 (HOMO)
       195        0.0026           -0.2221124              -6.0440 (LUMO)
       196                         -0.2017040              -5.4886
       197                         -0.1896232              -5.1599
       198                         -0.1780073              -4.8438
       199                         -0.1717971              -4.6748
       ...                                ...                  ...
       374                         10.4933172             285.5377
      -------------------------------------------------------------
                  HL-Gap            0.0112866 Eh            0.3071 eV
             Fermi-level           -0.2367540 Eh           -6.4424 eV

 transition dipole moment (au) for excitation:         193         194
     X       Y       Z   
   2.4487  -1.0079   0.7976  total (au/Debye):    2.766   7.029
 dE (eV)             :    0.252
 oscillator strength :  0.66721E-01

 SCC (total)                   0 d,  0 h,  0 min,  1.638 sec
 SCC setup                      ...        0 min,  0.001 sec (  0.034%)
 Dispersion                     ...        0 min,  0.002 sec (  0.130%)
 classical contributions        ...        0 min,  0.000 sec (  0.030%)
 integral evaluation            ...        0 min,  0.008 sec (  0.513%)
 iterations                     ...        0 min,  1.501 sec ( 91.641%)
 molecular gradient             ...        0 min,  0.079 sec (  4.803%)
 printout                       ...        0 min,  0.047 sec (  2.848%)

         :::::::::::::::::::::::::::::::::::::::::::::::::::::
         ::                     SUMMARY                     ::
         :::::::::::::::::::::::::::::::::::::::::::::::::::::
         :: total energy            -203.620561927810 Eh    ::
         :: gradient norm              5.848110616405 Eh/a0 ::
         :: HOMO-LUMO gap              0.307124685871 eV    ::
         ::.................................................::
         :: SCC energy              -209.066059574868 Eh    ::
         :: -> isotropic ES            0.376091764458 Eh    ::
         :: -> anisotropic ES          0.079585946119 Eh    ::
         :: -> anisotropic XC          0.086905001955 Eh    ::
         :: -> dispersion             -0.243434516238 Eh    ::
         :: repulsion energy           5.430699350504 Eh    ::
         :: add. restraining           0.000000000000 Eh    ::
         :: total charge               0.000023068048 e     ::
         :::::::::::::::::::::::::::::::::::::::::::::::::::::

           -------------------------------------------------
          |                Property Printout                |
           -------------------------------------------------

    * Orbital Energies and Occupations

         #    Occupation            Energy/Eh            Energy/eV
      -------------------------------------------------------------
         1        2.0000           -0.9221299             -25.0924
       ...           ...                  ...                  ...
       182        2.0000           -0.3266168              -8.8877
       183        2.0000           -0.3232176              -8.7952
       184        2.0000           -0.3217910              -8.7564
       185        2.0000           -0.3012533              -8.1975
       186        2.0000           -0.2954596              -8.0399
       187        2.0000           -0.2945530              -8.0152
       188        2.0000           -0.2811355              -7.6501
       189        2.0000           -0.2759485              -7.5089
       190        2.0000           -0.2713451              -7.3837
       191        2.0000           -0.2582769              -7.0281
       192        1.9631           -0.2488525              -6.7716
       193        1.0369           -0.2426520              -6.6029
       194        0.9974           -0.2333990              -6.3511 (HOMO)
       195        0.0026           -0.2221124              -6.0440 (LUMO)
       196                         -0.2017040              -5.4886
       197                         -0.1896232              -5.1599
       198                         -0.1780073              -4.8438
       199                         -0.1717971              -4.6748
       200                         -0.1688364              -4.5943
       201                         -0.1597827              -4.3479
       202                         -0.1533987              -4.1742
       203                         -0.1513346              -4.1180
       204                         -0.1337286              -3.6389
       205                         -0.1261899              -3.4338
       ...                                ...                  ...
       374                         10.4933172             285.5377
      -------------------------------------------------------------
                  HL-Gap            0.0112866 Eh            0.3071 eV
             Fermi-level           -0.2367540 Eh           -6.4424 eV

     #   Z          covCN         q      C6AA      α(0)
     1   6 C        2.926    -0.128    31.268     9.170
     2   6 C        3.353     0.099    23.195     7.581
     3   6 C        2.985    -0.096    30.416     9.047
     4   6 C        2.960     0.080    26.209     8.397
     5   6 C        2.931    -0.080    29.989     8.981
     6   6 C        2.969    -0.012    28.309     8.727
     7   6 C        2.983    -0.018    28.442     8.748
     8   6 C        3.003    -0.046    29.123     8.852
     9   6 C        2.951     0.086    26.091     8.378
    10   7 N        1.852    -0.301    28.660     7.935
    11   6 C        3.103    -0.111    30.654     9.072
    12   6 C        4.853    -0.089    22.107     6.677
    13   7 N        1.931    -0.472    33.473     8.579
    14   6 C        2.951     0.092    25.957     8.356
    15   6 C        2.925    -0.087    30.170     9.008
    16   6 C        2.965     0.008    27.839     8.655
    17   6 C        2.927    -0.078    29.939     8.973
    18   6 C        4.996     0.036    19.877     6.332
    19   6 C        4.861    -0.301    26.601     7.325
    20   6 C        4.498     0.080    19.171     6.218
    21   6 C        6.435    -0.143    23.152     6.833
    22   8 O        5.370    -0.028    14.817     5.199
    23   8 O        1.704    -0.384    20.533     6.118
    24   6 C        3.903     0.026    20.088     6.371
    25   6 C        3.904    -0.002    20.562     6.446
    26   6 C        3.903     0.026    20.088     6.371
    27   6 C        3.761    -0.115    22.749     6.799
    28   6 C        3.762    -0.127    22.976     6.833
    29   6 C        3.766    -0.205    24.579     7.066
    30   6 C        3.762    -0.102    22.503     6.762
    31   6 C        3.762    -0.114    22.726     6.796
    32   6 C        3.761    -0.103    22.513     6.764
    33   6 C        3.762    -0.105    22.547     6.769
    34   6 C        3.761    -0.105    22.549     6.769
    35   6 C        3.761    -0.112    22.680     6.789
    36   1 H        0.926     0.051     2.308     2.376
    37   1 H        0.926    -0.002     3.085     2.747
    38   1 H        0.926     0.028     2.610     2.526
    39   1 H        0.926     0.021     2.721     2.580
    40   1 H        2.837     0.395     0.482     1.084
    41   1 H        0.926    -0.039     3.823     3.058
    42   6 C        8.035    -0.199    24.304     7.001
    43   6 C        3.651     0.044    20.138     6.445
    44   1 H        0.925     0.040     2.443     2.444
    45   1 H        0.925     0.031     2.566     2.505
    46   1 H        0.925     0.044     2.390     2.418
    47   1 H        0.925     0.030     2.590     2.517
    48   1 H        0.925     0.039     2.469     2.457
    49   1 H        0.925     0.032     2.561     2.502
    50   1 H        0.925     0.019     2.756     2.596
    51   1 H        0.925     0.035     2.518     2.482
    52   1 H        0.925     0.026     2.644     2.543
    53   1 H        0.925     0.037     2.491     2.468
    54   1 H        0.925     0.025     2.666     2.553
    55   1 H        0.925     0.027     2.627     2.535
    56   1 H        0.925     0.027     2.636     2.539
    57   1 H        0.925     0.039     2.457     2.451
    58   1 H        0.925     0.026     2.642     2.542
    59   1 H        0.925     0.037     2.490     2.468
    60   1 H        0.925     0.025     2.666     2.553
    61   1 H        0.925     0.057     2.230     2.335
    62   1 H        1.115     0.188     1.153     1.677
    63   1 H        0.925     0.013     2.839     2.635
    64   1 H        0.925     0.038     2.471     2.458
    65   1 H        0.925     0.045     2.385     2.415
    66   1 H        0.925     0.066     2.131     2.283
    67   1 H        0.925     0.009     2.914     2.669
    68   1 H        0.925     0.035     2.521     2.483
    69   1 H        0.925     0.033     2.549     2.497
    70   1 H        0.925     0.059     2.208     2.323
    71   1 H        0.925     0.032     2.552     2.498
    72   1 H        0.924     0.041     2.437     2.441
    73   1 H        0.924     0.048     2.346     2.395
    74   1 H        2.817     0.446     0.399     0.986
    75   1 H        2.833     0.390     0.490     1.093
    76   1 H        0.924     0.016     2.789     2.611
    77   6 C        5.443    -0.224    24.847     7.079
    78   6 C        3.093     0.038    27.047     8.524
    79   6 C        2.981    -0.066    29.624     8.928
    80   6 C        2.960     0.074    26.335     8.417
    81   6 C        2.931    -0.125    31.178     9.157
    82   6 C        3.878    -0.079    21.956     6.662
    83   6 C        2.983    -0.009    28.242     8.717
    84   6 C        3.003    -0.032    28.784     8.801
    85   6 C        2.951     0.082    26.176     8.391
    86   7 N        1.852    -0.302    28.684     7.938
    87   6 C        2.984    -0.073    29.825     8.958
    88   6 C        2.958     0.075    26.327     8.416
    89   7 N        1.851    -0.316    29.039     7.987
    90   6 C        2.951     0.082    26.160     8.389
    91   6 C        2.925    -0.086    30.162     9.006
    92   6 C        2.965    -0.001    28.043     8.686
    93   6 C        2.927    -0.079    29.972     8.978
    94   6 C        2.858     0.098    25.822     8.329
    95   6 C        2.921    -0.123    31.135     9.150
    96   6 C        2.969    -0.019    28.471     8.752
    97   6 C        2.931    -0.081    30.021     8.986
    98   8 O        1.706    -0.306    19.101     5.901
    99   8 O        3.461    -0.123    16.137     5.425
   100   6 C        6.412    -0.020    20.847     6.484
   101   6 C        3.903     0.024    20.107     6.374
   102   6 C        3.903     0.025    20.098     6.372
   103   6 C        3.761    -0.100    22.459     6.756
   104   6 C        3.762    -0.104    22.530     6.766
   105   6 C        3.762    -0.105    22.546     6.769
   106   6 C        3.762    -0.110    22.653     6.785
   107   6 C        3.762    -0.101    22.482     6.759
   108   6 C        3.761    -0.102    22.502     6.762
   109   6 C        6.349    -0.188    24.082     6.969
   110   6 C        6.212    -0.118    22.669     6.762
   111   6 C        3.761    -0.168    23.811     6.956
   112   1 H        0.926     0.018     2.766     2.601
   113   1 H        2.779     0.400     0.473     1.074
   114   1 H        0.926     0.021     2.720     2.579
   115   1 H        0.926     0.024     2.676     2.558
   116   1 H        0.926     0.031     2.574     2.509
   117   1 H        0.926     0.005     2.974     2.697
   118   6 C        3.697    -0.018    21.057     6.564
   119   6 C        7.230     0.123    18.505     6.109
   120   1 H        0.925     0.077     2.008     2.216
   121   1 H        0.925     0.024     2.674     2.557
   122   1 H        0.925     0.103     1.762     2.076
   123   1 H        2.175     0.339     0.600     1.209
   124   1 H        1.279     0.173     1.241     1.739
   125   1 H        0.925    -0.042     3.906     3.090
   126   1 H        2.776     0.325     0.634     1.243
   127   1 H        0.925     0.096     1.818     2.109
   128   1 H        0.925     0.076     2.019     2.222
   129   1 H        0.925     0.038     2.479     2.462
   130   1 H        0.925     0.046     2.373     2.409
   131   1 H        0.925     0.023     2.686     2.563
   132   1 H        0.925     0.034     2.536     2.490
   133   1 H        0.925     0.032     2.557     2.501
   134   1 H        0.925     0.023     2.694     2.567
   135   1 H        0.925     0.036     2.502     2.473
   136   1 H        0.925     0.023     2.682     2.561
   137   1 H        0.925     0.027     2.626     2.534
   138   1 H        0.925     0.033     2.548     2.496
   139   1 H        0.925     0.044     2.403     2.424
   140   1 H        0.925     0.028     2.619     2.531
   141   1 H        0.925     0.013     2.839     2.635
   142   1 H        0.925     0.030     2.583     2.513
   143   1 H        0.925     0.043     2.412     2.428
   144   1 H        0.925     0.020     2.738     2.588
   145   1 H        0.925     0.032     2.565     2.504
   146   1 H        0.925     0.028     2.621     2.532
   147   1 H        2.657     0.112     1.668     2.016
   148   1 H        0.925     0.113     1.672     2.022
   149   1 H        2.812     0.505     0.324     0.888
   150   1 H        0.925     0.019     2.748     2.592
   151   1 H        0.924     0.036     2.502     2.474
   152   1 H        1.065     0.128     1.541     1.939

 Mol. C6AA /au·bohr⁶  :     234424.611034
 Mol. C8AA /au·bohr⁸  :    5536242.544227
 Mol. α(0) /au        :        742.274201


Wiberg/Mayer (AO) data.
largest (>0.10) Wiberg bond orders for each atom

 ---------------------------------------------------------------------------
     #   Z sym  total        # sym  WBO       # sym  WBO       # sym  WBO
 ---------------------------------------------------------------------------
     1   6 C    3.920 --     2 C    1.391     6 C    1.294    37 H    0.962
     2   6 C    3.897 --     1 C    1.391     3 C    1.193    23 O    0.940
                           124 H    0.128
     3   6 C    3.957 --     2 C    1.193     7 C    1.182     4 C    1.179
     4   6 C    3.980 --    10 N    1.391     5 C    1.226     3 C    1.179
     5   6 C    3.954 --     6 C    1.530     4 C    1.226    36 H    0.962
     6   6 C    3.965 --     5 C    1.530     1 C    1.294    24 C    0.981
     7   6 C    3.973 --    11 C    1.285     8 C    1.254     3 C    1.182
     8   6 C    3.966 --     7 C    1.254     9 C    1.206    14 C    1.201
     9   6 C    3.970 --    17 C    1.310    10 N    1.283     8 C    1.206
    10   7 N    3.009 --     4 C    1.391     9 C    1.283
    11   6 C    3.890 --     7 C    1.285    12 C    1.109    18 C    1.009
    12   6 C    3.774 --    13 N    1.128    11 C    1.109    21 C    0.664
                           149 H    0.279   147 H    0.120   119 C    0.106
    13   7 N    2.863 --    14 C    1.261    12 C    1.128
    14   6 C    3.967 --    15 C    1.318    13 N    1.261     8 C    1.201
    15   6 C    3.949 --    16 C    1.416    14 C    1.318    39 H    0.966
    16   6 C    3.973 --    17 C    1.422    15 C    1.416    26 C    0.981
    17   6 C    3.941 --    16 C    1.422     9 C    1.310    38 H    0.964
    18   6 C    3.774 --    11 C    1.009    19 C    0.816    77 C    0.751
                            22 O    0.692   113 H    0.149
    19   6 C    3.496 --    20 C    1.135    41 H    0.875    18 C    0.816
                           113 H    0.255
    20   6 C    3.821 --    19 C    1.135    25 C    0.940    21 C    0.777
                            99 O    0.649
    21   6 C    3.800 --   119 C    1.517    20 C    0.777    12 C    0.664
                           149 H    0.351
    22   8 O    2.678 --    18 C    0.692    42 C    0.680   110 C    0.488
                            82 C    0.179   100 C    0.102   123 H    0.100
    23   8 O    2.069 --    43 C    0.962     2 C    0.940
    24   6 C    3.990 --    35 C    1.000    33 C    0.988    34 C    0.988
                             6 C    0.981
    25   6 C    3.979 --    27 C    0.999    28 C    0.990    29 C    0.985
                            20 C    0.940
    26   6 C    3.990 --    32 C    1.000    30 C    0.988    31 C    0.988
                            16 C    0.981
    27   6 C    3.993 --    25 C    0.999    68 H    0.984    70 H    0.981
                            69 H    0.979
    28   6 C    3.990 --    25 C    0.990    65 H    0.985    66 H    0.982
                            67 H    0.977
    29   6 C    3.951 --    25 C    0.985    64 H    0.977    63 H    0.955
                            62 H    0.781   118 C    0.145
    30   6 C    3.995 --    26 C    0.988    54 H    0.987    55 H    0.985
                            53 H    0.983
    31   6 C    3.992 --    26 C    0.988    60 H    0.985    59 H    0.983
                            61 H    0.960
    32   6 C    3.997 --    26 C    1.000    56 H    0.985    58 H    0.985
                            57 H    0.985
    33   6 C    3.995 --    24 C    0.988    52 H    0.987    51 H    0.985
                            50 H    0.984
    34   6 C    3.994 --    24 C    0.988    48 H    0.987    49 H    0.985
                            47 H    0.984
    35   6 C    3.995 --    24 C    1.000    45 H    0.985    44 H    0.985
                            46 H    0.984
    36   1 H    0.997 --     5 C    0.962
    37   1 H    0.999 --     1 C    0.962
    38   1 H    0.999 --    17 C    0.964
    39   1 H    0.999 --    15 C    0.966
    40   1 H    0.838 --   147 H    0.371   119 C    0.322
    41   1 H    0.997 --    19 C    0.875
    42   6 C    3.592 --    76 H    0.819    22 O    0.680   109 C    0.564
                            74 H    0.469   100 C    0.209   110 C    0.201
                            75 H    0.188
    43   6 C    3.942 --    71 H    0.982    73 H    0.979    72 H    0.974
                            23 O    0.962
    44   1 H    0.998 --    35 C    0.985
    45   1 H    0.999 --    35 C    0.985
    46   1 H    0.998 --    35 C    0.984
    47   1 H    0.999 --    34 C    0.984
    48   1 H    0.999 --    34 C    0.987
    49   1 H    0.998 --    34 C    0.985
    50   1 H    1.000 --    33 C    0.984
    51   1 H    0.998 --    33 C    0.985
    52   1 H    0.999 --    33 C    0.987
    53   1 H    0.999 --    30 C    0.983
    54   1 H    0.999 --    30 C    0.987
    55   1 H    0.998 --    30 C    0.985
    56   1 H    0.999 --    32 C    0.985
    57   1 H    0.998 --    32 C    0.985
    58   1 H    0.999 --    32 C    0.985
    59   1 H    0.999 --    31 C    0.983
    60   1 H    0.998 --    31 C    0.985
    61   1 H    0.997 --    31 C    0.960
    62   1 H    0.965 --    29 C    0.781   152 H    0.144
    63   1 H    1.000 --    29 C    0.955
    64   1 H    0.996 --    29 C    0.977
    65   1 H    0.998 --    28 C    0.985
    66   1 H    0.994 --    28 C    0.982
    67   1 H    1.000 --    28 C    0.977
    68   1 H    0.999 --    27 C    0.984
    69   1 H    0.999 --    27 C    0.979
    70   1 H    0.995 --    27 C    0.981
    71   1 H    0.998 --    43 C    0.982
    72   1 H    0.998 --    43 C    0.974
    73   1 H    0.997 --    43 C    0.979
    74   1 H    0.793 --    42 C    0.469
    75   1 H    0.845 --   126 H    0.360   109 C    0.227    42 C    0.188
    76   1 H    0.986 --    42 C    0.819
    77   6 C    3.667 --    78 C    1.073    82 C    0.987    18 C    0.751
                           113 H    0.339
    78   6 C    3.708 --    79 C    1.262    77 C    1.073    99 O    0.952
    79   6 C    3.953 --    78 C    1.262    83 C    1.223    80 C    1.145
    80   6 C    3.975 --    86 N    1.361    81 C    1.247    79 C    1.145
    81   6 C    3.897 --    82 C    1.342    80 C    1.247   112 H    0.962
    82   6 C    3.829 --    81 C    1.342    77 C    0.987   100 C    0.941
                            22 O    0.179
    83   6 C    3.977 --    84 C    1.307    79 C    1.223    87 C    1.185
    84   6 C    3.962 --    83 C    1.307    90 C    1.193    85 C    1.188
    85   6 C    3.970 --    93 C    1.306    86 N    1.304    84 C    1.188
    86   7 N    2.997 --    80 C    1.361    85 C    1.304
    87   6 C    3.967 --    94 C    1.273    88 C    1.193    83 C    1.185
    88   6 C    3.981 --    89 N    1.359    97 C    1.251    87 C    1.193
    89   7 N    2.985 --    88 C    1.359    90 C    1.298
    90   6 C    3.971 --    91 C    1.304    89 N    1.298    84 C    1.193
    91   6 C    3.923 --    92 C    1.424    90 C    1.304   115 H    0.966
    92   6 C    3.968 --    91 C    1.424    93 C    1.416   102 C    0.979
    93   6 C    3.921 --    92 C    1.416    85 C    1.306   114 H    0.965
    94   6 C    3.898 --    95 C    1.409    87 C    1.273    98 O    1.008
    95   6 C    3.926 --    94 C    1.409    96 C    1.314   117 H    0.959
    96   6 C    3.972 --    97 C    1.509    95 C    1.314   101 C    0.980
    97   6 C    3.954 --    96 C    1.509    88 C    1.251   116 H    0.963
    98   8 O    2.181 --    94 C    1.008   118 C    0.984
    99   8 O    2.591 --    78 C    0.952    20 C    0.649   119 C    0.480
   100   6 C    3.792 --    82 C    0.941   111 C    0.909   109 C    0.663
                           110 C    0.553    42 C    0.209    22 O    0.102
   101   6 C    3.989 --   103 C    0.999   104 C    0.989   105 C    0.989
                            96 C    0.980
   102   6 C    3.989 --   108 C    1.000   106 C    0.989   107 C    0.988
                            92 C    0.979
   103   6 C    3.997 --   101 C    0.999   146 H    0.985   144 H    0.985
                           145 H    0.985
   104   6 C    3.995 --   101 C    0.989   141 H    0.988   142 H    0.985
                           143 H    0.983
   105   6 C    3.995 --   101 C    0.989   138 H    0.987   140 H    0.985
                           139 H    0.983
   106   6 C    3.994 --   102 C    0.989   131 H    0.985   129 H    0.982
                           130 H    0.962
   107   6 C    3.995 --   102 C    0.988   137 H    0.987   136 H    0.986
                           135 H    0.984
   108   6 C    3.997 --   102 C    1.000   134 H    0.985   132 H    0.985
                           133 H    0.985
   109   6 C    3.791 --   127 H    0.910   128 H    0.782   100 C    0.663
                            42 C    0.564   126 H    0.331    75 H    0.227
   110   6 C    3.720 --   125 H    0.768   124 H    0.744   100 C    0.553
                            22 O    0.488   123 H    0.462    42 C    0.201
   111   6 C    3.980 --   121 H    0.977   120 H    0.975   122 H    0.968
                           100 C    0.909
   112   1 H    0.997 --    81 C    0.962
   113   1 H    0.838 --    77 C    0.339    19 C    0.255    18 C    0.149
   114   1 H    0.999 --    93 C    0.965
   115   1 H    0.999 --    91 C    0.966
   116   1 H    0.998 --    97 C    0.963
   117   1 H    0.999 --    95 C    0.959
   118   6 C    3.945 --    98 O    0.984   150 H    0.979   151 H    0.973
                           152 H    0.800    29 C    0.145
   119   6 C    3.848 --    21 C    1.517   148 H    0.817    99 O    0.480
                           147 H    0.386    40 H    0.322    12 C    0.106
   120   1 H    0.992 --   111 C    0.975
   121   1 H    0.998 --   111 C    0.977
   122   1 H    0.989 --   111 C    0.968
   123   1 H    0.861 --   110 C    0.462    22 O    0.100
   124   1 H    0.969 --   110 C    0.744     2 C    0.128
   125   1 H    0.978 --   110 C    0.768
   126   1 H    0.885 --    75 H    0.360   109 C    0.331
   127   1 H    0.988 --   109 C    0.910
   128   1 H    0.956 --   109 C    0.782
   129   1 H    0.999 --   106 C    0.982
   130   1 H    0.998 --   106 C    0.962
   131   1 H    0.999 --   106 C    0.985
   132   1 H    0.999 --   108 C    0.985
   133   1 H    0.999 --   108 C    0.985
   134   1 H    0.999 --   108 C    0.985
   135   1 H    0.999 --   107 C    0.984
   136   1 H    0.999 --   107 C    0.986
   137   1 H    0.999 --   107 C    0.987
   138   1 H    0.999 --   105 C    0.987
   139   1 H    0.998 --   105 C    0.983
   140   1 H    0.998 --   105 C    0.985
   141   1 H    1.000 --   104 C    0.988
   142   1 H    0.998 --   104 C    0.985
   143   1 H    0.998 --   104 C    0.983
   144   1 H    1.000 --   103 C    0.985
   145   1 H    0.999 --   103 C    0.985
   146   1 H    0.999 --   103 C    0.985
   147   1 H    0.984 --   119 C    0.386    40 H    0.371    12 C    0.120
   148   1 H    0.984 --   119 C    0.817
   149   1 H    0.744 --    21 C    0.351    12 C    0.279
   150   1 H    0.999 --   118 C    0.979
   151   1 H    0.998 --   118 C    0.973
   152   1 H    0.983 --   118 C    0.800    62 H    0.144
 ---------------------------------------------------------------------------

Topologies differ in total number of bonds
Writing corrected topology to xtbtopo.mol

molecular dipole:
                 x           y           z       tot (Debye)
 q only:      -11.700      -2.169      -3.666
   full:      -12.899      -3.553      -3.934      35.446
molecular quadrupole (traceless):
                xx          xy          yy          xz          yz          zz
 q only:      142.848      -8.520      12.486     -67.213      -5.678    -155.334
  q+dip:      159.306       4.060       5.609     -65.608     -22.212    -164.915
   full:      154.566       1.021       5.830     -71.044     -15.517    -160.396


           -------------------------------------------------
          | TOTAL ENERGY             -203.620561927810 Eh   |
          | GRADIENT NORM               5.848110616405 Eh/α |
          | HOMO-LUMO GAP               0.307124685871 eV   |
           -------------------------------------------------
########################################################################
[WARNING] Runtime exception occurred
-2- restart_readRestart: Multiplicity missmatch in restart file.
-1- restart_readRestart: Number of electron missmatch in restart file.
########################################################################

------------------------------------------------------------------------
 * finished run on 2025/03/14 at 17:18:10.604     
------------------------------------------------------------------------
 total:
 * wall-time:     0 d,  0 h,  0 min,  1.664 sec
 *  cpu-time:     0 d,  0 h,  0 min,  6.026 sec
 * ratio c/w:     3.622 speedup
 SCF:
 * wall-time:     0 d,  0 h,  0 min,  1.639 sec
 *  cpu-time:     0 d,  0 h,  0 min,  5.980 sec
 * ratio c/w:     3.649 speedup

Stack distance: 5.0 Å
Electron Transfer integral J: None eV
Hole Transfer integral J: None eV

