116
 energy: -22.928061455056 gnorm: 0.329736929581 xtb: 6.6.1 (8d0f1dd)
C           -3.31122850772930        0.79849766164622       -0.92477639677520
C           -2.44380812530352       -0.12270372891954       -0.27661132624697
C           -1.41337090092821        0.39579727573559        0.56335275196199
C           -0.89266158675590        1.65801491088749        0.27377586709581
C           -1.72665675402493        2.51431363229076       -0.49448366572522
C           -2.95444148494349        2.13954154133227       -1.01494489940871
C           -0.74098268209890       -0.43411532818871        1.49825021926784
C            0.56872586496315        0.03782116815119        1.86248088067890
C            1.03782416582094        1.29402317993033        1.50887470833621
N            0.31238977034758        2.07067427098208        0.65193736800696
C           -1.29695700510141       -1.39996043042223        2.41574187746061
C           -0.38243517664656       -2.18060797534842        3.13232615520648
N            0.91308504082021       -1.90366887689689        3.30325166013478
C            1.37712470144904       -0.74872102533751        2.81811050966982
C            2.52149331701875       -0.17739833758153        3.39379298866852
C            2.95849061756259        1.02681208890480        2.95105897606587
C            2.24288949469137        1.78498308775960        2.03503020483770
C           -2.74860936222260       -1.74497937691422        2.38401158947411
C           -3.09416315450955       -2.91614440870436        3.00571134491758
C           -2.16786021984049       -3.77788778654213        3.63251872101904
C           -0.85708937311598       -3.40495313382985        3.68547234358092
O           -3.71994433332149       -0.94984598373544        1.67726658385724
O           -2.55702603277562       -1.47241711578389       -0.57241635275616
C           -3.84297843593025        3.13357444054366       -1.60938954875544
C           -2.68769581069131       -5.03867041417370        4.30484659386931
H           -1.39666850744143        3.51251503834900       -0.76806311868865
H           -4.27662633836220        0.55105838579656       -1.33106614114542
H            2.66329581305412        2.73912661909249        1.72562431984580
H            3.05775395548473       -0.69369546277216        4.16536137542516
H           -0.24710966264510       -4.12034095424229        4.22946223699121
H           -4.11477991332403       -3.04712728052358        3.03244694615357
O           -4.21824883374556        4.03433712717988       -0.87713382485991
O           -4.44510595673734        2.90643496899600       -2.81853501752979
C           -5.44216520282800        3.83300025693726       -3.02488532025093
C            4.23586651889298        1.50004220933226        3.59165660008449
O            5.05927614697201        0.66079890002952        3.91714215179376
O            4.47001334453535        2.86385149488593        3.72605651435371
C            5.79457498613219        3.08584475587818        4.15829123132174
O           -3.82227255313510       -5.27347675879771        4.16636005494405
O           -1.85023202017753       -5.79767454267276        5.06656077253571
C           -2.55119635829503       -6.86252441382958        5.62930343183426
C           -5.07197156564436       -1.42399175670916        1.58830531863830
C           -1.33089900128490       -2.23622472573986       -0.99264499351172
H           -2.54510546830388       -7.76426885143998        4.99136022291012
H           -3.57194749219491       -6.44405511486021        5.74196173723541
H           -2.09133598235598       -7.02043774843818        6.64022264233588
H            5.72707967266424        3.46798026205549        5.10135971236643
H            6.34060091246885        3.78468702308830        3.50069950143490
H            6.17933064298187        2.03010500085905        4.19342358084693
H           -0.91862729772622       -2.57650129080332       -0.01361370304871
H           -0.49769766914251       -1.60651221708571       -1.34094446550576
H           -1.52632419730509       -2.94569707152159       -1.75361447637286
H           -5.11788846557077       -2.41810833635233        1.17520213188926
H           -5.67929807973498       -0.69619639428435        1.04301666067831
H           -5.57598832326623       -1.42383358739762        2.57928294206544
H           -6.13050215934830        3.76035386975488       -2.23272855695873
H           -5.86615610071888        3.45938329385866       -4.02668959924245
H           -5.13479557532099        4.87790991548477       -2.98314551356402
C           -1.38192942069774        3.73616555005018        2.91232598411686
C           -1.84821468128685        2.59982427735607        3.49755545445181
C           -1.05946531454833        2.05730632010638        4.60922730982276
C            0.19893954712228        2.69376791964407        4.86302140881997
C            0.50425395911860        3.94630308659851        4.28768785650746
C           -0.26031777722226        4.46998310053134        3.25072669343212
C           -1.20488993561782        0.74454293276906        5.14851520323437
C           -0.06287609782692        0.02744069315890        5.60930570802864
C            1.19208754369866        0.71421540266195        5.78882868583885
N            1.19428660993148        2.06344359410476        5.62744624321596
C           -2.41361422770794        0.07928500213936        5.25249410304426
C           -2.45851584031083       -1.32662100968547        5.60237876023992
N           -1.29466212405906       -1.98318595734370        5.89916817085159
C           -0.14475655767527       -1.32117560077092        5.98824682881008
C            0.97209270935794       -1.98958449505532        6.53157704134458
C            2.21982707914082       -1.36973967291181        6.68703967237737
C            2.30561929262884       -0.09745313075593        6.26436900324455
C           -3.73018485967715        0.71367583494582        5.25810242262992
C           -4.89964478833448       -0.06184623426677        5.21204641615509
C           -4.82617965800088       -1.39228978090841        5.46901303780036
C           -3.67144193418464       -1.98914944386360        5.67265433266067
O           -3.75568638935321        2.07705011038914        5.52067969627343
O           -2.94192434743730        1.91263938797883        3.01658762327703
C            0.21273512614467        5.50086066357994        2.34765104514621
C           -6.06660304520411       -2.17604633098929        5.80641622556876
H            1.41756699010566        4.38133362238595        4.66974005703471
H           -1.82880610647429        4.11982501512100        2.06992133318584
H            3.26888037378556        0.32655662585251        6.31721410015598
H            0.87146188387207       -3.08471526305024        6.57830423410869
H           -3.67716811065157       -3.05999292755990        5.83019634570050
H           -5.77379677507622        0.43595144608221        4.71017130754348
O            1.34459852619901        5.82615848916894        2.44941456579099
O           -0.74718748219123        6.07961784856304        1.59848183464284
C           -0.21473095568964        7.24015934882472        1.05753806029483
C            3.53228080814219       -2.00967610361154        7.02506769044485
O            3.64093082622715       -3.14437803815732        7.50071391725347
O            4.56565258381079       -1.22937033368332        6.69086985080897
C            5.72579357310716       -1.80692399125161        7.22246151275881
O           -7.04801223588612       -1.95726935745904        5.14194115322235
O           -6.01514389321278       -2.93743591896022        6.94765316328794
C           -7.21292732384718       -3.62681918543340        7.15115816329978
C           -4.95459780685163        2.65960679932188        5.86868674392943
C           -3.68284113682406        2.59129188358641        2.05479246020704
H           -7.43119628931628       -4.22607794725959        6.20622607140901
H           -8.06548455146707       -2.91765848248592        7.29781126410398
H           -7.07314693247270       -4.33087306029711        7.91223421050944
H            6.57332189837178       -1.29353136199234        6.78341268688262
H            5.74663761932316       -2.84282155125561        6.88089468184451
H            5.69426191474290       -1.72781984964892        8.29460302186842
H           -4.10481209541493        3.44288266176275        2.60483747673152
H           -4.49244774344916        1.87419893016926        1.82433103764650
H           -3.18901540870812        2.85154642679373        1.06781919454921
H           -5.55414326821421        2.76698137191684        4.93950725322359
H           -4.78658370641210        3.62090640967288        6.25983200635257
H           -5.43485580473958        1.97242995129449        6.65265772412460
H            0.89164886030839        7.38838561720231        1.13776105146914
H           -0.62894889903848        8.04195665205089        1.64837664327952
H           -0.59282546386754        7.45699159724320        0.03719083132488
116
 energy: -22.539059985933 gnorm: 0.581178310791 xtb: 6.6.1 (8d0f1dd)
C           -2.39994318614034        0.96417075787963       -1.15841497744937
C           -2.03949338828844       -0.02538274182933       -0.17953122019400
C           -1.27252301079877        0.37394323687119        0.97106753189421
C           -0.80173748809857        1.80888651570124        1.02723010226817
C           -1.48861252539055        2.79563844707355        0.13898612929175
C           -2.01973546275157        2.35863680241489       -1.02161179547689
C           -0.78419195308361       -0.58360245724566        1.97606797675099
C            0.55343298236268       -0.17429765249978        2.28181524741905
C            1.06426217497061        1.19908991684298        1.99473038078111
N            0.40065351700440        2.21046325096291        1.40263142749787
C           -1.19439665993594       -1.78235860531230        2.55672639238309
C           -0.28601341508321       -2.77012959466656        2.86033160179519
N            1.04559719342897       -2.43790454718648        2.90368997534034
C            1.45357950175549       -1.14721505337742        2.82970415229653
C            2.78944159669243       -0.88044036898766        3.08468838538860
C            3.15971319472094        0.37868334869415        2.70295052710416
C            2.42010334891121        1.35986202174279        2.18349256146526
C           -2.63801144241857       -2.00216711155802        2.65016682370246
C           -3.13218336595540       -3.29535935655379        2.74059422561105
C           -2.23429545776683       -4.32347234186777        3.16520806968698
C           -0.82978300818488       -3.91994373038345        3.29891404413867
O           -3.41808645332790       -0.82225140757082        2.59361746539716
O           -2.13523443470865       -1.39501035430252       -0.62222553015169
C           -2.44731624348281        3.17804718646507       -2.20891366652422
C           -2.71677791392314       -5.81689221086008        3.62757385606125
H           -1.06963449437076        3.83867662157247       -0.01263227316617
H           -3.04360903198838        0.79953391951942       -1.95720068955102
H            2.81952648384112        2.20456856843291        1.66845261472672
H            3.30464310842447       -1.44086076810087        3.86922462958163
H           -0.15894558120668       -4.60069104481011        3.60820087997355
H           -4.18486292827908       -3.46173830653801        2.62168412118422
O           -2.21036213536345        4.37079926125725       -1.89775423253802
O           -2.85839321455135        2.57893877301939       -3.37107563207144
C           -3.15478829436574        3.63467123869858       -4.39846575617505
C            4.60149662036198        0.59256923398446        2.94864071853491
O            4.93353110116958        0.71394023033566        4.10606389121427
O            5.47225836535628        0.67276761032196        1.89628924030930
C            6.86636624457697        0.94465944623366        2.32555925094004
O           -3.90259156776077       -5.79769129209150        3.96055105982639
O           -1.70260154124240       -6.74111600027823        3.78727193463320
C           -1.92996844233449       -7.43714479374632        4.82986946625107
C           -4.89219653617108       -1.29529043654263        2.39121325126441
C           -1.36948825733445       -2.08305185700434       -1.44793984394338
H           -1.07613744326839       -8.16328342061203        4.54946596197384
H           -2.74248517945632       -8.25306875313473        4.50493232909391
H           -1.91153083368447       -7.11195793874378        6.01960234468446
H            7.12156349273876       -0.08948850533490        2.36411340373361
H            6.83651877799792        1.48581953872087        3.21354532963090
H            7.52104370160900        1.72330323905095        1.82443737878444
H           -2.05803294886219       -2.65946532103941       -2.37496819778041
H           -0.57658416505225       -2.74195893798894       -0.84928175040506
H           -0.76208520320712       -1.43746936902657       -2.08469955344778
H           -5.11397098957402       -2.17035071978355        1.76880771197415
H           -5.48322491523096       -0.53985251723772        1.74088378582576
H           -5.26691052330765       -1.52442504491470        3.41456586524102
H           -3.88641227115940        4.41809773623425       -3.84090889410532
H           -3.83494332686343        3.08442922387863       -5.11165719005508
H           -2.13605684532507        3.92906972225428       -4.58689092841805
C           -2.67326390102643        3.90409933855390        3.25003097461110
C           -2.75286676837082        2.70408421356399        4.06298001361387
C           -1.47537127636139        2.19710270484723        4.57944030284391
C           -0.21027434711390        2.92676457247058        4.34276968591806
C           -0.34583842021596        3.97799906994045        3.49886564786758
C           -1.48770555509267        4.54243004706399        3.08132610098160
C           -1.38796368671658        1.43881851951228        5.73683466857702
C           -0.13664375907141        0.78640243032578        5.98243494722936
C            1.08314106789161        1.40018146867784        5.59311994016162
N            1.07218454324803        2.62669588365058        4.97991757609862
C           -2.58022840945968        0.63058794669398        6.20085024620498
C           -2.50403634649962       -0.79850590458606        6.29361630461790
N           -1.28220862332506       -1.38146983543927        6.39955700895608
C           -0.14135033850898       -0.56582746434879        6.50814265961963
C            1.13236695893201       -1.14969063756873        6.68429316903509
C            2.32384787144920       -0.58194808486723        6.43334814373383
C            2.34003610751837        0.71382838033745        5.86184074492171
C           -3.72440981844019        1.39344766584049        6.42545652546270
C           -4.84532316690211        0.54795492814220        6.46493775720360
C           -4.82740174438910       -0.76573801868683        6.14037814996150
C           -3.66785872531341       -1.56525944459763        6.20003052884300
O           -4.01442385422063        2.68908137110258        6.72895973138128
O           -3.78146043887150        1.81805506760646        3.90605396158349
C           -1.42576982394099        5.58197999742590        2.07689069133227
C           -6.07106379555228       -1.48746557014195        5.94398450644047
H            0.51502387969923        4.35061237331465        2.90499645045520
H           -3.60184612622786        4.05710405415914        2.69098867712617
H            3.20623509700861        1.22793362786726        5.77541367996260
H            1.08424285198129       -2.25125399106994        6.81912834278916
H           -3.68270884658847       -2.64132254865117        6.23415402221852
H           -5.78975899116978        1.08982839234342        6.67890962721762
O           -0.41339220246401        5.81721878221814        1.43041233829121
O           -2.63780119376732        6.00343318875607        1.35258130417747
C           -2.45935058212399        7.22905818094890        0.64670284023530
C            3.53886192530878       -1.30504199005756        6.87963347003405
O            3.54808430526678       -2.50259192777762        6.66898094016656
O            4.47209666863111       -0.76829152049377        7.67015544921108
C            5.44341490346952       -1.79458985653200        8.03470753670217
O           -6.90531709099118       -0.99586900110779        5.30120540977507
O           -6.01393503991591       -2.69590604972239        6.47072556637372
C           -7.03277258585221       -3.57178824271893        6.08149434528166
C           -4.81881341873509        2.59713616868686        8.03839198501989
C           -5.06927968941837        2.57751591272649        3.77983493175336
H           -6.68394849850220       -4.41608490609607        5.73759290979402
H           -7.88469302056803       -3.00712068485475        5.69454261143700
H           -7.50622494700574       -3.69708742683824        7.09012119090712
H            6.20360419775123       -1.56603843913074        8.66447219395648
H            5.98107859997791       -2.02859603518798        7.11737515424437
H            4.97251274382755       -2.64313126603318        8.46092807468487
H           -5.09130919323154        3.57493661273762        3.31146403329401
H           -5.19771385357300        3.16531758792050        4.71324660440907
H           -6.01453984547697        1.81867556548613        3.61752217522501
H           -5.87952380451735        2.93833214507953        7.74766034508416
H           -4.48921478139135        3.20917165418490        8.90150331231284
H           -4.56206387946119        1.68674761284276        8.68478618961743
H           -2.36209594317532        7.19209104010276       -0.47589272475565
H           -1.66403813676022        7.78767346446840        1.19251441841533
H           -3.47752008678804        7.66981857197681        0.69133893727530
116
 energy: -22.551399918027 gnorm: 0.594214792457 xtb: 6.6.1 (8d0f1dd)
C           -2.60573985429180        1.15361226517015       -0.58209426348769
C           -1.89942695440298        0.08836660239275        0.04744846520091
C           -0.90882742976177        0.39172347525826        1.11161501416594
C           -0.35654773659103        1.68036754685975        0.92154194616989
C           -0.96892461378657        2.68159117852996        0.07188440302340
C           -2.09372996789973        2.48583704133084       -0.60995894221422
C           -0.25749178727022       -0.53969487250416        2.01006361475059
C            1.15070373327000       -0.36440992343964        2.04606325251511
C            1.71825354784566        0.89231447581318        1.76612363940257
N            0.98712050922313        1.84072764338261        1.27107475086658
C           -0.71707975821502       -1.77368816856287        2.62875670049311
C            0.17760368460990       -2.83339641918942        3.03521470281756
N            1.63888602399955       -2.64942624715671        3.09187404538715
C            1.96029745746898       -1.39863333694513        2.58974030296192
C            3.37315637279313       -1.30088204251541        2.47517896319293
C            3.98594409524718       -0.08244640661985        2.23459185846581
C            3.19403912044809        0.95802611260570        1.72233984435062
C           -2.06552573760829       -2.02690337840871        3.08859536837608
C           -2.53208550827956       -3.33261823115533        3.45184249599977
C           -1.68123022631282       -4.43089867268330        3.48173073640461
C           -0.27469976866891       -4.15042512813981        3.20081169247962
O           -2.86629183409286       -0.84092632867723        2.94745785042558
O           -2.38699591305487       -1.22338239360957        0.02422227041635
C           -2.48798904395770        3.71285897356370       -1.46214528443252
C           -2.28759675728008       -5.65439538319703        3.86770163711537
H           -0.36045817853666        3.54296404914406       -0.02436359564521
H           -3.55827051576642        0.92623142237804       -0.87593964341691
H            3.78263261728969        1.88157262987304        1.71364137457625
H            4.01592316922019       -2.19160967056381        2.74622135805125
H            0.53587306265081       -4.66120171746610        3.51041527221654
H           -3.55223821125759       -3.52505822933919        3.35568598514998
O           -1.81599100670348        4.65626625745463       -1.77189297326466
O           -3.48012083592091        3.06056292517995       -2.33297028827431
C           -3.99071618655085        4.06859129962504       -3.21323502055267
C            5.32594738264491        0.43574854557118        2.40587591481430
O            5.67378138265708        1.52412356275566        2.90885405529632
O            6.19860948317452       -0.47539825327917        1.65344501235162
C            7.53359087438119       -0.07825363406699        1.71218751071600
O           -3.39947753012975       -5.58781318184625        4.50094520608471
O           -1.58630371947367       -6.88871439799804        3.35587688491801
C           -2.51334990020034       -7.78206554389017        2.93133504572931
C           -4.19347511937681       -0.99087674077200        3.48084718895481
C           -1.39087512368759       -2.34791962236149       -0.20747779512444
H           -1.96972615436035       -8.63639755903391        3.44060636011488
H           -2.37230915757323       -7.91745184621146        1.87966483557044
H           -3.40789905722788       -7.66998342592911        3.39554916976356
H            7.64429797722329        0.32646827421916        2.71502796906204
H            7.75397451875485        0.99027946732143        1.26885223478400
H            8.33188770498069       -0.84466788915647        1.60223602858451
H           -1.48766050304484       -3.53029727844142       -0.22170092195111
H           -0.62274800566077       -1.83824029863696        0.57161064585758
H           -0.90598553097446       -2.12281977172103       -1.16487380422303
H           -4.91287521284410       -0.86253654542940        2.52997516502360
H           -4.54757950794548        0.07014135051649        3.87185221921074
H           -4.45528380486045       -1.76845854627060        4.20155346660443
H           -3.62723098986872        5.18677133251829       -3.06370220145598
H           -5.06456997350402        4.11310098137453       -2.85296126773392
H           -3.85678412008820        3.91154964125214       -4.18512354246471
C           -2.45524718211510        3.93999144396934        2.64238865238584
C           -2.88219783858335        2.84788264402797        3.48139707938614
C           -1.93413285126542        2.45207626538306        4.49059666524505
C           -0.67473517028099        3.13186859328970        4.58977805376832
C           -0.56422686143444        4.31262117509077        3.85033247236475
C           -1.33005204165364        4.63268744208270        2.70448211203766
C           -2.09066463977001        1.31114820898080        5.44869123046796
C           -0.86254796475346        0.99144831101232        6.18273234038196
C            0.25562657203727        1.83763528316168        6.00990090079588
N            0.40091525228257        2.94245913201393        5.33486031973680
C           -3.23133923943891        0.67440441764701        5.96011389982829
C           -3.10030907726488       -0.45743188764638        6.76047487720801
N           -1.92101442512326       -0.92688069832474        7.22872442758845
C           -0.81279389422616       -0.24918207523107        6.79473938455661
C            0.52304488957802       -0.77697409431177        7.00010125231582
C            1.65115253188939       -0.05375052021551        6.64927301340931
C            1.42719209991948        1.14600262683021        6.22348469680380
C           -4.59622033073348        1.09028865227498        5.95617746977205
C           -5.75666852530423        0.35530715471703        6.21691702447384
C           -5.48146199278533       -0.94548019271517        6.74403498807413
C           -4.23200364551964       -1.27751323729195        6.99832947059689
O           -4.87540794719256        2.50522436902322        5.97417529913312
O           -4.16733450294982        2.16148195788393        3.30145669986133
C           -1.04448636692301        5.86730768601059        1.88363237794223
C           -6.36662400302678       -2.24693799710060        6.93177257693357
H            0.36320916625887        5.02380044749265        3.94754555330051
H           -3.08860026643996        4.26343394380951        1.85873874913004
H            2.30451453521979        1.74352606848177        5.82096835062842
H            0.66587620060513       -1.72940818039084        7.43668061125663
H           -4.01551721095546       -2.32903022940323        7.15955092559911
H           -6.76248517005638        0.30697493753580        5.62301511248477
O           -0.38175681683583        6.87346811676435        2.20965636100586
O           -1.83555164661241        5.92209982065196        0.69020199521386
C           -1.47268019504546        6.98084700796718        0.00587478085039
C            2.86861143521131       -0.94395620825499        6.85763140752678
O            2.81701732392735       -2.16383995274559        6.74825393017441
O            3.98148592278499       -0.34013135922278        7.00987981688497
C            5.03086898121062       -1.22585944035878        7.40406503693194
O           -6.20577058095994       -2.91666169279630        7.96670466013958
O           -7.08472764264832       -2.69108418790041        5.87664757872941
C           -7.28416132412029       -4.08693708693723        5.96600226025980
C           -5.54975880042291        2.76777979236168        7.12294941115075
C           -4.65568066822007        2.19231356157173        1.95545814809139
H           -7.45084796404540       -4.49867803836324        4.85698114110583
H           -8.16365660617098       -4.30344395183829        6.53971927245264
H           -6.49949599473444       -4.55714999532087        6.50779280275040
H            5.00366271753766       -2.08716741553167        6.72199461945068
H            4.67608048803088       -1.39990771099424        8.56379183587569
H            6.11133845921794       -1.02624685281558        7.40632471358776
H           -3.98007691003068        1.41320090713204        1.33274053213734
H           -4.41630928631269        3.27010824663305        1.62181849667446
H           -5.78264376631879        1.90114220741075        1.85949332677524
H           -6.54738606961137        2.42938352868243        7.13575328986959
H           -5.57774099710172        3.80286518426324        7.37455815072455
H           -5.05134602526545        2.18883397819040        7.88227565629450
H           -0.52250453872282        6.72938568766695       -0.17989282004975
H           -1.55187220819753        7.77055966785455        0.78952650943977
H           -2.07124295843503        6.99210778197354       -0.87494805076593
116
 energy: -22.574310847723 gnorm: 0.554552886998 xtb: 6.6.1 (8d0f1dd)
C           -2.65101891629880        0.51614902504903       -0.14720023400254
C           -1.64634921241447       -0.42231051401923        0.07715403174230
C           -0.60096670468510       -0.09147875514755        0.99411709545141
C           -0.07162798385305        1.32854754787128        0.72511331850644
C           -0.96222756379791        2.37189119186345        0.37953973716940
C           -2.35403041746448        1.88994725848767        0.12549723813436
C            0.20826081413928       -1.15403703265476        1.52486639042451
C            1.49612648758616       -0.78233459988429        1.90733550988713
C            1.99359015580601        0.51688160472754        1.60111960103142
N            1.20730769005773        1.52750249059836        1.18133998528658
C           -0.29332872189811       -2.35748065256100        2.09774331710000
C            0.82298414894279       -3.30476105199719        2.47136633404841
N            2.12089129622997       -2.98108492255203        2.47540875435448
C            2.44864858053139       -1.72107147504311        2.50755772688006
C            3.66608687763355       -1.22044585314675        3.06967425488354
C            4.16163625623944       -0.07975877490983        2.80903684643942
C            3.34294607697383        0.70966345941012        2.03187239504390
C           -1.65029402193744       -2.87324493161628        2.05062838403429
C           -1.83865098117221       -4.12592968089797        2.51146575614430
C           -0.82488348494809       -4.92775386530536        2.81208385630634
C            0.47138550396154       -4.63896969247078        2.75982528327134
O           -2.84449710470008       -2.17139176717589        1.64167753112408
O           -1.77390101770792       -1.63178989633752       -0.53079921941949
C           -3.39766627851896        2.77460952016140       -0.51852260909304
C           -1.19623194281610       -6.37588692141913        3.27240897508077
H           -0.61361493467017        3.37026431361004        0.02607288490315
H           -3.72016779383873        0.24535658119437       -0.25566191586913
H            3.82189205289747        1.72969617548937        2.01087329756579
H            4.23577806326286       -1.95125170068973        3.61213288595167
H            0.99800279624279       -5.22660719717123        3.34586852709231
H           -2.72538571284433       -4.78126220218493        2.58493447243017
O           -2.86362937155446        3.78991564767105       -0.89661963111468