116
 energy: -22.928214124414 gnorm: 0.329653037930 xtb: 6.6.1 (8d0f1dd)
C           -3.31122850772930        0.79849766164622       -0.92477639677520
C           -2.44380812530352       -0.12270372891954       -0.27661132624697
C           -1.41337090092821        0.39579727573559        0.56335275196199
C           -0.89266158675590        1.65801491088749        0.27377586709581
C           -1.72665675402493        2.51431363229076       -0.49448366572522
C           -2.95444148494349        2.13954154133227       -1.01494489940871
C           -0.74098268209890       -0.43411532818871        1.49825021926784
C            0.56872586496315        0.03782116815119        1.86248088067890
C            1.03782416582094        1.29402317993033        1.50887470833621
N            0.31238977034758        2.07067427098208        0.65193736800696
C           -1.29695700510141       -1.39996043042223        2.41574187746061
C           -0.38243517664656       -2.18060797534842        3.13232615520648
N            0.91308504082021       -1.90366887689689        3.30325166013478
C            1.37712470144904       -0.74872102533751        2.81811050966982
C            2.52149331701875       -0.17739833758153        3.39379298866852
C            2.95849061756259        1.02681208890480        2.95105897606587
C            2.24288949469137        1.78498308775960        2.03503020483770
C           -2.74860936222260       -1.74497937691422        2.38401158947411
C           -3.09416315450955       -2.91614440870436        3.00571134491758
C           -2.16786021984049       -3.77788778654213        3.63251872101904
C           -0.85708937311598       -3.40495313382985        3.68547234358092
O           -3.71994433332149       -0.94984598373544        1.67726658385724
O           -2.55702603277562       -1.47241711578389       -0.57241635275616
C           -3.84297843593025        3.13357444054366       -1.60938954875544
C           -2.68769581069131       -5.03867041417370        4.30484659386931
H           -1.39666850744143        3.51251503834900       -0.76806311868865
H           -4.27662633836220        0.55105838579656       -1.33106614114542
H            2.66329581305412        2.73912661909249        1.72562431984580
H            3.05775395548473       -0.69369546277216        4.16536137542516
H           -0.24710966264510       -4.12034095424229        4.22946223699121
H           -4.11477991332403       -3.04712728052358        3.03244694615357
O           -4.21824883374556        4.03433712717988       -0.87713382485991
O           -4.44510595673734        2.90643496899600       -2.81853501752979
C           -5.44216520282800        3.83300025693726       -3.02488532025093
C            4.23586651889298        1.50004220933226        3.59165660008449
O            5.05927614697201        0.66079890002952        3.91714215179376
O            4.47001334453535        2.86385149488593        3.72605651435371
C            5.79457498613219        3.08584475587818        4.15829123132174
O           -3.82227255313510       -5.27347675879771        4.16636005494405
O           -1.85023202017753       -5.79767454267276        5.06656077253571
C           -2.55119635829503       -6.86252441382958        5.62930343183426
C           -5.07197156564436       -1.42399175670916        1.58830531863830
C           -1.33089900128490       -2.23622472573986       -0.99264499351172
H           -2.54510546830388       -7.76426885143998        4.99136022291012
H           -3.57194749219491       -6.44405511486021        5.74196173723541
H           -2.09133598235598       -7.02043774843818        6.64022264233588
H            5.72707967266424        3.46798026205549        5.10135971236643
H            6.34060091246885        3.78468702308830        3.50069950143490
H            6.17933064298187        2.03010500085905        4.19342358084693
H           -0.91862729772622       -2.57650129080332       -0.01361370304871
H           -0.49769766914251       -1.60651221708571       -1.34094446550576
H           -1.52632419730509       -2.94569707152159       -1.75361447637286
H           -5.11788846557077       -2.41810833635233        1.17520213188926
H           -5.67929807973498       -0.69619639428435        1.04301666067831
H           -5.57598832326623       -1.42383358739762        2.57928294206544
H           -6.13050215934830        3.76035386975488       -2.23272855695873
H           -5.86615610071888        3.45938329385866       -4.02668959924245
H           -5.13479557532099        4.87790991548477       -2.98314551356402
C           -1.38192942069774        3.73616555005018        2.91232598411686
C           -1.84821468128685        2.59982427735607        3.49755545445181
C           -1.05946531454833        2.05730632010638        4.60922730982276
C            0.19893954712228        2.69376791964407        4.86302140881997
C            0.50425395911860        3.94630308659851        4.28768785650746
C           -0.26031777722226        4.46998310053134        3.25072669343212
C           -1.20488993561782        0.74454293276906        5.14851520323437
C           -0.06287609782692        0.02744069315890        5.60930570802864
C            1.19208754369866        0.71421540266195        5.78882868583885
N            1.19428660993148        2.06344359410476        5.62744624321596
C           -2.41361422770794        0.07928500213936        5.25249410304426
C           -2.45851584031083       -1.32662100968547        5.60237876023992
N           -1.29466212405906       -1.98318595734370        5.89916817085159
C           -0.14475655767527       -1.32117560077092        5.98824682881008
C            0.97209270935794       -1.98958449505532        6.53157704134458
C            2.21982707914082       -1.36973967291181        6.68703967237737
C            2.30561929262884       -0.09745313075593        6.26436900324455
C           -3.73018485967715        0.71367583494582        5.25810242262992
C           -4.89964478833448       -0.06184623426677        5.21204641615509
C           -4.82617965800088       -1.39228978090841        5.46901303780036
C           -3.67144193418464       -1.98914944386360        5.67265433266067
O           -3.75568638935321        2.07705011038914        5.52067969627343
O           -2.94192434743730        1.91263938797883        3.01658762327703
C            0.21273512614467        5.50086066357994        2.34765104514621
C           -6.06660304520411       -2.17604633098929        5.80641622556876
H            1.41756699010566        4.38133362238595        4.66974005703471
H           -1.82880610647429        4.11982501512100        2.06992133318584
H            3.26888037378556        0.32655662585251        6.31721410015598
H            0.87146188387207       -3.08471526305024        6.57830423410869
H           -3.67716811065157       -3.05999292755990        5.83019634570050
H           -5.77379677507622        0.43595144608221        4.71017130754348
O            1.34459852619901        5.82615848916894        2.44941456579099
O           -0.74718748219123        6.07961784856304        1.59848183464284
C           -0.21473095568964        7.24015934882472        1.05753806029483
C            3.53228080814219       -2.00967610361154        7.02506769044485
O            3.64093082622715       -3.14437803815732        7.50071391725347
O            4.56565258381079       -1.22937033368332        6.69086985080897
C            5.72579357310716       -1.80692399125161        7.22246151275881
O           -7.04801223588612       -1.95726935745904        5.14194115322235
O           -6.01514389321278       -2.93743591896022        6.94765316328794
C           -7.21292732384718       -3.62681918543340        7.15115816329978
C           -4.95459780685163        2.65960679932188        5.86868674392943
C           -3.68284113682406        2.59129188358641        2.05479246020704
H           -7.43119628931628       -4.22607794725959        6.20622607140901
H           -8.06548455146707       -2.91765848248592        7.29781126410398
H           -7.07314693247270       -4.33087306029711        7.91223421050944
H            6.57332189837178       -1.29353136199234        6.78341268688262
H            5.74663761932316       -2.84282155125561        6.88089468184451
H            5.69426191474290       -1.72781984964892        8.29460302186842
H           -4.10481209541493        3.44288266176275        2.60483747673152
H           -4.49244774344916        1.87419893016926        1.82433103764650
H           -3.18901540870812        2.85154642679373        1.06781919454921
H           -5.55414326821421        2.76698137191684        4.93950725322359
H           -4.78658370641210        3.62090640967288        6.25983200635257
H           -5.43485580473958        1.97242995129449        6.65265772412460
H            0.89164886030839        7.38838561720231        1.13776105146914
H           -0.62894889903848        8.04195665205089        1.64837664327952
H           -0.59282546386754        7.45699159724320        0.03719083132488
116
 energy: -22.603025694247 gnorm: 0.495610851538 xtb: 6.6.1 (8d0f1dd)
C           -3.15710753289667        0.84285877003061       -0.89509662546859
C           -2.51927039479405       -0.29644438355331       -0.47728417176409
C           -1.59527820154434        0.09056411969196        0.49488419611191
C           -1.08627803283948        1.40788659337751        0.65640860611513
C           -1.86126397296094        2.39050043428932       -0.00651929227141
C           -2.94446154049228        2.16077279319906       -0.76393752024143
C           -0.87016137764830       -0.88199100075028        1.30307954584681
C            0.39002433915355       -0.41070880859700        1.70838919242703
C            0.90121200023518        0.94134814450756        1.65464113975388
N            0.04105632518945        1.86458264285647        1.28150497091885
C           -1.28453875477452       -2.14963623496258        2.01579705539531
C           -0.31685695165185       -3.18300600392993        2.26688613883933
N            0.94964748302051       -2.77477847159335        1.88318839806240
C            1.23866323745494       -1.42785442592426        2.24664783799047
C            2.54411571128158       -0.96382838334689        2.75774917556447
C            3.12687482984974        0.19655665933421        2.35728846419527
C            2.23803513024042        1.27781004290902        2.05356665141094
C           -2.63935218733203       -2.55126860005233        2.33437469549664
C           -3.02570036693031       -3.81518058318539        2.83161892507222
C           -2.02274508539422       -4.66530492892567        3.19429174685180
C           -0.67445327801422       -4.31953362725404        3.12506715532292
O           -3.60855129724534       -1.54665510598127        1.87985530124456
O           -2.98958318836997       -1.61806907731088       -0.84396688372215
C           -3.45096170868474        3.02857534734038       -1.91968317429669
C           -2.54735449750701       -5.85293232753713        3.94977918951317
H           -1.46889943540510        3.36624987916216       -0.21885144475857
H           -3.97742736062329        0.60773276477473       -1.63674106129136
H            2.51754644296598        2.35942207584721        1.91286070408662
H            3.33409236078265       -1.71364284273335        3.06145545220988
H            0.09309643835640       -5.05988228055648        3.39221412296093
H           -3.95574251658561       -4.12607620470076        3.15438410219904
O           -3.22509911916541        4.19359023926980       -1.78897838601825
O           -3.86028717950751        2.44445497363127       -3.19679254454757
C           -4.46073130904839        3.43076860679102       -4.14250099388877
C            4.64400270806749        0.18422961242935        2.57236758033574
O            5.34004432000471       -0.42723661574393        1.84718792423339
O            5.00185759492415        0.89748342846838        3.63179106117413
C            6.35776878903273        1.16409588434724        3.79941015440680
O           -3.46459279281601       -6.44303794955046        3.47344830215954
O           -1.69630700035346       -6.19851300536899        4.94571645639367
C           -1.99844981271338       -7.38790759415231        5.54358089989056
C           -5.03975935421970       -1.79076054082380        2.03554559274580
C           -1.89491822959158       -2.26410143377971       -1.20544938216550
H           -0.99054992102697       -7.92226571418999        5.65981452030081
H           -2.80969470569102       -7.98436134902767        5.26649357857021
H           -2.29745561404847       -6.96884130595620        6.56728172644306
H            6.84035717923943        0.63038050776165        2.98164306629020
H            6.86873775900258        0.79330331284908        4.61735684722003
H            6.49051594118661        2.27236000120156        3.80586922610780
H           -1.44882004743304       -2.52469397922180       -0.24305357828557
H           -1.25104690491462       -1.54270553597430       -1.82637908239222
H           -2.09145655588658       -3.24714250926667       -1.88106603168445
H           -5.70953679281640       -2.50564809391522        1.58249166573948
H           -5.56887413978979       -0.90607813172507        1.67488279985706
H           -5.00439705074464       -1.86597345231651        3.19862189673944
H           -4.26614218524871        3.24341370111018       -5.31244324423094
H           -3.67406108654711        4.25284107066251       -3.96263031503921
H           -5.46198009732342        3.81850378559408       -4.16578059248374
C           -2.05030694243754        4.34205405528693        3.22981144681520
C           -2.03648344654280        3.02608469731002        3.83045885944355
C           -0.91745829438622        2.42050678286112        4.58851962199887
C            0.35565142496932        3.10624521921799        4.66646010004154
C            0.20109624261114        4.49743333283237        4.41728833559834
C           -0.89317052673714        5.03843730310200        3.64830389061137
C           -0.95293570864670        1.19211800801831        5.20592280583925
C            0.25625740507290        0.46090741290273        5.41449238391974
C            1.44560078813697        1.20273325469790        5.30472300793016
N            1.55262741383248        2.56674124860034        5.15430017026895
C           -2.25461748987180        0.56797226051457        5.54560682752961
C           -2.29367175899937       -0.85448429281787        5.70921171509150
N           -1.11007769439769       -1.55224825550806        5.97359672293420
C            0.00343267472490       -0.82189479260206        6.00521942678548
C            1.16694722289012       -1.21354734365255        6.68544526055673
C            2.37530141499466       -0.52240028089332        6.71041483042278
C            2.60919795790156        0.66593737336006        6.01044191059782
C           -3.48848417519386        1.40165276285962        5.78930677968065
C           -4.67181419554773        0.66168389723153        5.90629123009021
C           -4.73503944820817       -0.69477005801651        5.80534020589849
C           -3.61674702553194       -1.43274765667902        5.75172311177571
O           -3.36979545852662        2.82854092724657        5.90779136643873
O           -3.01012647860368        1.96752514129417        3.43010177345856
C           -0.69952487712527        6.28026606356569        2.83432584773833
C           -6.07882456035223       -1.35600063350353        5.98578909527503
H            1.03768688639734        5.31790144942512        4.59155766737317
H           -2.92447252770977        4.76657163990774        2.71525920900186
H            3.55474553453251        1.18891629026349        6.13381175290350
H            1.15977770798670       -2.06294206726747        7.30073158529646
H           -3.67921058262548       -2.52462403254268        5.67585918117214
H           -5.59542533371956        1.20204207542291        5.49928329040028
O            0.43710156595829        6.46452540276021        2.41755230836884
O           -1.84308632815447        7.11074843230182        2.59795003548408
C           -1.79845848664420        8.50866242897910        2.22203544857783
C            3.51863638420053       -1.00838976166345        7.43404998354985
O            4.47163496131094       -1.36642238785332        6.76634248121629
O            3.39637099674841       -1.08765490306780        8.82867074564911
C            4.55664247142038       -1.55286831522709        9.56401871639495
O           -7.01173248990646       -0.99915756318542        6.73973208239937
O           -6.12074649015552       -2.65363095426608        5.44946457576724
C           -7.44659631706257       -3.12229554365362        5.37098659141417
C           -4.12314916121877        3.20975927459082        7.13083565542127
C           -4.21015765118964        2.38737264546956        2.81408844391428
H           -8.02303529014739       -3.01680882567659        6.27917961120584
H           -7.35658543059278       -4.23482839415542        5.08210380593030
H           -7.96175526200356       -2.53395570840519        4.61430569972278
H            4.65129163448026       -2.62394138198520        9.09219185196149
H            4.12758876743316       -1.62031292763783       10.52311177475561
H            5.31667828943294       -0.80221406123699        9.38950624251154
H           -4.31897759039275        3.49462600706129        2.84931064267684
H           -5.01915269358138        1.69664657155952        3.15846789590476
H           -4.29238033679024        2.18271872010266        1.63015193473081
H           -3.94340688794065        4.17368861776207        6.93207480987658
H           -3.62790416480255        3.01213818949954        8.10885084731556
H           -5.23618414005719        2.87583402545324        7.03594655848178
H           -1.77028585234317        9.34654448981473        2.97893099845149
H           -2.62135228329994        8.39169010757027        1.62622499931256
H           -1.22839516116873        8.75710319360954        1.35206841364193
116
 energy: -22.576902768454 gnorm: 0.525539201900 xtb: 6.6.1 (8d0f1dd)
C           -3.04688787200424        0.33468530770041       -0.25125946510404
C           -2.12348043385558       -0.49650099871293        0.25783545053356
C           -0.96107043899656       -0.05818665297650        0.93755342941834
C           -0.38692575218196        1.17796869219195        0.49483220852814
C           -1.32668561774130        2.06575085214151       -0.06139146494655
C           -2.53667681135756        1.61580334906338       -0.55014326567731
C           -0.38867926541306       -0.85353527422843        2.05282678904865
C            0.81167258188105       -0.40208318396701        2.62568138719021
C            1.46004312394628        0.69779352759102        2.04624439287654
N            0.92360134452698        1.42107127641307        0.93422032992313
C           -1.10546483227251       -1.88414076071972        2.69716154771937
C           -0.36305712455050       -2.77455590662531        3.43545499480526
N            0.90123005038430       -2.53066478940558        3.77265126393299
C            1.36800383416134       -1.30969125885584        3.47213638827469
C            2.62253421985098       -0.89111368085014        3.92728469000247
C            3.44769004351839        0.05843591573841        3.12392518796382
C            2.74758109744339        0.98025447502390        2.41298299219236
C           -2.56318530591555       -1.96381523990336        2.81666714572183
C           -3.17513951830508       -3.25779306295333        3.00072052615288
C           -2.41517375678863       -4.25019782255112        3.59772299957527
C           -1.07563323504044       -3.90795805380266        3.88333319922309
O           -3.53413757431824       -0.99784093505542        2.80420512975826
O           -2.49928849591249       -1.86128864248839        0.36318797340586
C           -3.48301959108388        2.36706995147169       -1.38874406531772
C           -2.95905162357253       -5.61840074384398        3.65892901284408
H           -0.99010008690561        3.14622344363616       -0.18170583524681
H           -3.93186365397933       -0.20371098394804       -0.79179523448953
H            3.23983515222345        1.78427239098744        1.87020909651158
H            2.97230289418535       -1.75339663120739        4.59958018403939
H           -0.49920431947373       -4.70907726948614        4.43945471534359
H           -4.18412089226133       -3.46736375042226        3.07161509176924
O           -3.20415731734055        3.27413286290216       -2.21490933236897
O           -4.73653182895103        1.90828341564889       -1.11766260146439
C           -5.64654634325135        2.77412567498064       -1.54826113147031
C            4.97327668445708        0.01925966506860        3.07554800301735
O            5.41970284710394       -0.00257774202307        4.22150658429802
O            5.81940582371945        0.40375021075126        1.91381761945196
C            7.04916610471843        0.19370961541440        2.45461437310532
O           -4.06862487600005       -5.68023944794410        4.25487736564370
O           -2.40021430760391       -6.70103800688493        3.01402680663364
C           -2.85813452058995       -8.04789715007862        3.28664810031224
C           -4.79307062987283       -1.15614445848417        2.10811703776259
C           -1.81668228729931       -2.81818757985938       -0.49261066637406
H           -3.23073732421433       -8.58098852788358        2.50144598175500
H           -3.71303347427465       -7.70101429204043        3.80022893322192
H           -2.18164872661249       -8.75907438581729        3.87123922426365
H            7.41296124362646       -0.74299027234124        2.10349437329067
H            6.94478556091250        0.30812440135331        3.54349367568619
H            7.88993898405781        0.81689191305007        1.93544619049145
H           -0.83355038202059       -2.54710557532572       -0.79726118014963
H           -2.74389509324334       -3.16577079865065       -1.14906709362642
H           -1.72678300814442       -3.62926680545125        0.37348520955049
H           -4.75430040555853       -2.13658142875802        1.49817099641196
H           -4.80919029813649       -0.22770026405148        1.55961565126151
H           -5.51186249242840       -0.76021843485388        2.74562278768473
H           -6.63771190417894        2.41948427009199       -1.26394702783531
H           -5.83667648496870        3.15716737960020       -2.57169048622352
H           -5.58486823638787        3.78661361359468       -0.93821219915017
C           -1.91252381230213        4.63081136008325        2.83770914987753
C           -1.79383500626592        3.22999462636906        3.34859968062335
C           -0.94053317822687        2.89758557672684        4.45804452268414
C            0.27684048217132        3.66508017122024        4.50522656664111
C            0.18545330486021        4.84567384406196        3.96680073264304
C           -0.78774393322075        5.47375499487074        3.17074067288937
C           -1.34835239971982        1.66839395622512        5.14955184811837
C           -0.11266553813588        1.27189314040483        5.81892615450128
C            1.16790700625175        1.93623879931187        5.66256130885508
N            1.35459497133979        3.22591809385033        5.08180111685473
C           -2.56299954332675        0.98350565018576        5.38329608596222
C           -2.54533438268509       -0.23571441360857        6.26236080735007
N           -1.36486616374141       -0.40598004439888        7.02242297517888
C           -0.19883654017594        0.17069117372758        6.73556099536616
C            0.85222915044668       -0.61640716415902        7.21536164520502
C            2.05073138031818       -0.09351538243507        6.65076006560131
C            2.26629797964296        1.16366864534788        6.06324187282464
C           -3.98421811697890        1.38719671891539        5.00669459004984
C           -5.04404418293954        0.38167750790031        4.86359562813844
C           -4.75493557209605       -0.90266651148315        5.48316185263345
C           -3.67633081431727       -1.09563240697752        6.44156187665180
O           -4.00680204018525        2.69829794420421        4.84732927887274
O           -2.65009451355379        2.22032256137057        2.84412890276696
C           -0.61922408856971        6.85049871750193        2.64551683681657
C           -5.85095298386894       -2.03772317494132        5.25184623769179
H            1.07835006370555        5.53726304532078        4.04536540555099
H           -2.57661570082412        4.98859854417912        2.06650058653159
H            3.28748497929338        1.55025092698091        5.78129180897971
H            0.67279059639531       -1.62702324076733        7.71218832598340
H           -3.66412190573590       -1.97940640482606        7.13812607979618
H           -6.12208615065772        0.71683130159413        5.00448534829414
O            0.43920250618288        7.44984477706543        2.73273703145732
O           -1.71823557473368        7.54500206180650        2.07278357026946
C           -1.37921183356224        8.98208006052401        1.75611329070566
C            3.29526681501576       -0.86077073586247        7.08984621970810
O            4.19733528995719       -0.34287047205576        7.68249144858433
O            3.37373671636055       -2.06389178992992        6.50246760499914
C            4.43576778161748       -2.82057936687110        7.02510892645691
O           -6.64904643003155       -2.18962790107397        4.36928596991560
O           -5.68673372424642       -3.10264677540349        6.19651123798248
C           -6.24161186826452       -4.34136942090934        5.79999595718372
C           -5.31816212598564        3.17459404341530        4.81518682868723
C           -3.77012322192644        2.81017062832367        2.11531698677565
H           -5.46698591211843       -5.10539742899907        5.96038133754936
H           -6.58676227048556       -4.47219044114555        4.78003318800807
H           -6.98748231227379       -4.65912744594829        6.53521595826268
H            5.38474217689355       -2.28558601916660        6.93416563324165
H            4.24085517059714       -3.79244499123496        6.61916592564614
H            4.24485794780017       -2.77059245895640        8.19427316466219
H           -4.30018184768033        3.52796390739586        2.79584148641851
H           -4.31084852612110        1.95400619646823        1.73308799470044
H           -3.32411661875251        3.40455284963051        1.29185159490695
H           -5.64988598597209        2.99489015325695        5.88513636925797
H           -6.07803811459733        2.56159952379770        4.26366393747510
H           -5.23893225175628        4.17248040671925        4.48331589649540
H           -0.40421512246401        9.15079582540943        1.37015409366865
H           -1.34942531732511        9.05227476795481        2.79039207673081
H           -2.26905549179231        9.70781475266404        1.58748641682074
116
 energy: -22.621760117788 gnorm: 0.536053154717 xtb: 6.6.1 (8d0f1dd)
C           -3.05564224783289        0.50203489404912       -0.63891198132364
C           -2.45892516042778       -0.44304910976325        0.17805194545478
C           -1.38889973021422       -0.02903973857386        0.90685062983963
C           -0.79690311897807        1.27380546490522        0.91297758843957
C           -1.58017083993369        2.25115553100791        0.21936615525347
C           -2.54698683860287        1.81327463600720       -0.71497426841272
C           -0.79962189829575       -1.00971094179536        1.80164296001871
C            0.53399246803755       -0.80594527502132        2.03418669423351
C            1.11360726232673        0.54489105422852        1.87269530153881
N            0.35554518836268        1.62996163735518        1.51473751213793
C           -1.31107872745576       -2.40220594256382        1.96477208630633
C           -0.27015345150481       -3.32696275375108        2.32751539410119
N            1.00848623158892       -3.13363761107648        2.58639775853425
C            1.36737835301329       -1.85834510928080        2.45316192867426
C            2.70645218098341       -1.52603366964748        2.68181537673500
C            3.17809908703274       -0.24834373505085        2.69148681451657
C            2.21775024862059        0.72394771534231        2.68601750918109
C           -2.73138300027974       -2.89648819882283        2.31572684455572
C           -3.20474992418306       -4.23161226387166        2.61013356224163
C           -2.08950829301445       -4.95369314623882        3.12471423215930
C           -0.77818616588879       -4.60090014469000        2.82701064671632
O           -3.50091266750274       -1.77528881771020        2.53441458630984
O           -2.68223089719837       -1.80258332763058        0.15151430974811
C           -2.79917233822297        2.88236809139297       -1.74606712387659
C           -2.43540074478030       -6.26563236334325        3.87720608876411
H           -1.01787460488956        3.29525330356254        0.12826951389429
H           -3.65847917887181        0.21892470269248       -1.46632802253491
H            2.47328770446206        1.79834659494703        3.09124758406380
H            3.36507162906739       -2.20229584940339        3.14352707039716
H           -0.07616892329772       -5.37080799883838        3.18930182033221
H           -4.08477458240255       -4.50790267101834        3.02089702244909
O           -1.79558511436388        3.59435642146525       -2.05631714622218