152
 energy: -209.180228117549 gnorm: 0.098901005952 xtb: 6.7.1 (edcfbbe)
C           -3.28690000000000        2.60260000000000       -2.54870000000000
C           -3.08440000000000        1.34350000000000       -1.98880000000000
C           -1.99900000000000        1.17490000000000       -1.06690000000000
C           -0.99030000000000        2.17500000000000       -1.02040000000000
C           -1.22720000000000        3.39850000000000       -1.67420000000000
C           -2.38310000000000        3.64720000000000       -2.38220000000000
C           -1.83490000000000        0.02920000000000       -0.22760000000000
C           -0.54840000000000       -0.20320000000000        0.27170000000000
C            0.42640000000000        0.82690000000000        0.21760000000000
N            0.18650000000000        2.02000000000000       -0.36560000000000
C           -2.84650000000000       -0.89720000000000        0.18780000000000
C           -2.42220000000000       -2.18140000000000        0.62140000000000
N           -1.12590000000000       -2.48150000000000        0.88520000000000
C           -0.23910000000000       -1.46140000000000        0.85280000000000
C            1.03580000000000       -1.63390000000000        1.40820000000000
C            1.96770000000000       -0.60930000000000        1.45640000000000
C            1.66060000000000        0.59560000000000        0.84120000000000
C           -4.22860000000000       -0.54640000000000        0.31430000000000
C           -5.14310000000000       -1.55740000000000        0.59810000000000
C           -4.74950000000000       -2.86820000000000        0.85950000000000
C           -3.40250000000000       -3.15270000000000        0.88990000000000
O           -4.57970000000000        0.79900000000000        0.24820000000000
O           -3.92460000000000        0.29550000000000       -2.41610000000000
C           -2.68210000000000        5.01340000000000       -3.01530000000000
C           -5.75830000000000       -3.96730000000000        1.22340000000000
C            3.31880000000000       -0.83660000000000        2.14990000000000
C           -7.21270000000000       -3.48990000000000        1.04810000000000
C           -5.53900000000000       -5.18810000000000        0.31050000000000
C           -5.54750000000000       -4.37130000000000        2.69410000000000
C            4.24690000000000       -1.60880000000000        1.19930000000000
C            3.97870000000000        0.50420000000000        2.52620000000000
C            3.11960000000000       -1.64860000000000        3.44640000000000
C           -4.01620000000000        5.54430000000000       -2.45900000000000
C           -2.77980000000000        4.85790000000000       -4.54330000000000
C           -1.58110000000000        6.04350000000000       -2.69790000000000
H           -0.46870000000000        4.15350000000000       -1.59040000000000
H           -4.14930000000000        2.73510000000000       -3.17440000000000
H            2.37330000000000        1.39770000000000        0.82950000000000
H            1.26650000000000       -2.59330000000000        1.83070000000000
H           -3.06740000000000       -4.13300000000000        1.17410000000000
H           -6.18250000000000       -1.30460000000000        0.66270000000000
C           -5.95930000000000        1.04880000000000        0.12500000000000
C           -3.23150000000000       -0.82490000000000       -2.92980000000000
H           -1.47300000000000        6.18330000000000       -1.62280000000000
H           -1.82180000000000        7.01270000000000       -3.13370000000000
H           -0.62030000000000        5.72990000000000       -3.10480000000000
H           -3.58710000000000        4.18220000000000       -4.82200000000000
H           -1.85190000000000        4.45600000000000       -4.94890000000000
H           -2.96950000000000        5.81850000000000       -5.02140000000000
H           -4.83860000000000        4.86890000000000       -2.69040000000000
H           -4.25550000000000        6.51920000000000       -2.88260000000000
H           -3.96580000000000        5.65030000000000       -1.37580000000000
H            4.40650000000000       -1.05030000000000        0.27750000000000
H            3.81550000000000       -2.57360000000000        0.93450000000000
H            5.21770000000000       -1.78730000000000        1.66070000000000
H            2.80370000000000       -2.66950000000000        3.23920000000000
H            2.36230000000000       -1.18420000000000        4.07500000000000
H            4.04440000000000       -1.70450000000000        4.01960000000000
H            4.26510000000000        1.06980000000000        1.64080000000000
H            4.88270000000000        0.33960000000000        3.11070000000000
H            3.29950000000000        1.11480000000000        3.12030000000000
H           -5.67650000000000       -3.51160000000000        3.35100000000000
H           -4.54480000000000       -4.76470000000000        2.85550000000000
H           -6.26060000000000       -5.13820000000000        2.99510000000000
H           -5.65080000000000       -4.90950000000000       -0.73690000000000
H           -6.26190000000000       -5.97340000000000        0.52980000000000
H           -4.54330000000000       -5.60940000000000        0.44050000000000
H           -7.39480000000000       -3.15850000000000        0.02610000000000
H           -7.44250000000000       -2.66840000000000        1.72580000000000
H           -7.91260000000000       -4.29650000000000        1.26470000000000
H           -3.95840000000000       -1.56660000000000       -3.26130000000000
H           -2.59390000000000       -1.26650000000000       -2.16610000000000
H           -2.62010000000000       -0.51290000000000       -3.77700000000000
H           -6.10420000000000        2.11210000000000       -0.06820000000000
H           -6.47250000000000        0.78430000000000        1.05010000000000
H           -6.35930000000000        0.48150000000000       -0.71650000000000
C           -2.27490000000000        1.32910000000000        3.07760000000000
C           -1.76240000000000        0.29330000000000        3.85610000000000
C           -0.60660000000000        0.56450000000000        4.66650000000000
C            0.18090000000000        1.70750000000000        4.34920000000000
C           -0.39210000000000        2.70510000000000        3.54040000000000
C           -1.63210000000000        2.56060000000000        2.95580000000000
C           -0.15240000000000       -0.25550000000000        5.75080000000000
C            1.20150000000000       -0.14940000000000        6.09060000000000
C            1.97640000000000        0.92440000000000        5.57640000000000
N            1.45090000000000        1.88440000000000        4.78670000000000
C           -0.93430000000000       -1.15600000000000        6.54080000000000
C           -0.24760000000000       -2.15850000000000        7.27560000000000
N            1.09660000000000       -2.16240000000000        7.44750000000000
C            1.79150000000000       -1.11810000000000        6.94630000000000
C            3.15580000000000       -0.99140000000000        7.24540000000000
C            3.92730000000000        0.05640000000000        6.76540000000000
C            3.32560000000000        1.00100000000000        5.94950000000000
C           -2.35670000000000       -1.05260000000000        6.67220000000000
C           -3.04180000000000       -2.10070000000000        7.28050000000000
C           -2.38350000000000       -3.18570000000000        7.85560000000000
C           -1.00580000000000       -3.17600000000000        7.88130000000000
O           -2.98510000000000        0.11850000000000        6.25360000000000
O           -2.39870000000000       -0.95240000000000        3.74570000000000
C           -2.30220000000000        3.76300000000000        2.27350000000000
C           -3.14540000000000       -4.35020000000000        8.50530000000000
C            5.41060000000000        0.21540000000000        7.13200000000000
C           -4.66760000000000       -4.22200000000000        8.30180000000000
C           -2.68570000000000       -5.67570000000000        7.86990000000000
C           -2.85230000000000       -4.36780000000000       10.01580000000000
C            6.25760000000000        0.25630000000000        5.84690000000000
C            5.59730000000000        1.52670000000000        7.91660000000000
C            5.91170000000000       -0.95130000000000        8.00450000000000
C           -2.90010000000000        4.66950000000000        3.36310000000000
C           -3.43270000000000        3.31730000000000        1.32910000000000
C           -1.26650000000000        4.56310000000000        1.45970000000000
H            0.16430000000000        3.61430000000000        3.41180000000000
H           -3.16410000000000        1.12190000000000        2.51210000000000
H            3.89810000000000        1.83150000000000        5.58080000000000
H            3.58860000000000       -1.73910000000000        7.88210000000000
H           -0.47260000000000       -3.95970000000000        8.38650000000000
H           -4.11070000000000       -2.04840000000000        7.33720000000000
C           -4.37100000000000        0.00450000000000        6.03110000000000
C           -1.54220000000000       -2.07620000000000        3.82400000000000
H           -0.56780000000000        5.08930000000000        2.10830000000000
H           -1.75390000000000        5.30950000000000        0.83320000000000
H           -0.69060000000000        3.90030000000000        0.81730000000000
H           -4.24780000000000        2.85120000000000        1.88080000000000
H           -3.07030000000000        2.60000000000000        0.59670000000000
H           -3.84850000000000        4.16680000000000        0.78860000000000
H           -3.64130000000000        4.12820000000000        3.95020000000000
H           -3.38410000000000        5.54170000000000        2.92460000000000
H           -2.12580000000000        5.01880000000000        4.04540000000000
H            5.98730000000000        1.10490000000000        5.22030000000000
H            6.11700000000000       -0.65300000000000        5.26340000000000
H            7.31790000000000        0.34430000000000        6.08240000000000
H            5.79970000000000       -1.90360000000000        7.48700000000000
H            5.36500000000000       -1.00100000000000        8.94560000000000
H            6.96750000000000       -0.82820000000000        8.24460000000000
H            5.30340000000000        2.38930000000000        7.32010000000000
H            6.63810000000000        1.66220000000000        8.20910000000000
H            4.98950000000000        1.52340000000000        8.82090000000000
H           -3.15600000000000       -3.42860000000000       10.47720000000000
H           -1.78970000000000       -4.50700000000000       10.21020000000000
H           -3.39120000000000       -5.17650000000000       10.50860000000000
H           -2.86220000000000       -5.66770000000000        6.79460000000000
H           -3.22760000000000       -6.52020000000000        8.29460000000000
H           -1.62280000000000       -5.84740000000000        8.03320000000000
H           -4.91870000000000       -4.18190000000000        7.24210000000000
H           -5.05570000000000       -3.32580000000000        8.78480000000000
H           -5.18820000000000       -5.07670000000000        8.73290000000000
H           -1.81240000000000       -2.77700000000000        3.03570000000000
H           -1.66850000000000       -2.57460000000000        4.78380000000000
H           -0.50280000000000       -1.77620000000000        3.69050000000000
H           -4.71440000000000        0.90810000000000        5.52650000000000
H           -4.89860000000000       -0.09460000000000        6.98010000000000
H           -4.56680000000000       -0.85390000000000        5.38660000000000
152
 energy: -209.193881514664 gnorm: 0.042143908587 xtb: 6.7.1 (edcfbbe)
C           -3.27973171418080        2.59278320156865       -2.55774157669916
C           -3.07658151750178        1.34747025463316       -1.99279563272870
C           -2.00860079354784        1.16583189888994       -1.07727755658773
C           -0.99557617966437        2.16701105244811       -1.02621515114069
C           -1.22291958471757        3.40022361132959       -1.67364893453063
C           -2.37946255632135        3.65165727407184       -2.37471847473743
C           -1.84600304229810        0.03300686825610       -0.22612594991460
C           -0.55966001011071       -0.20091199021300        0.27157017022627
C            0.42177584473117        0.82388472806878        0.20664662186796
N            0.16903429952502        2.00743136824259       -0.36795472940575
C           -2.85765858936923       -0.88655130639755        0.19381030113928
C           -2.42559903087972       -2.17261428658586        0.62464541605028
N           -1.13351237256454       -2.46547769789018        0.87477097015987
C           -0.24791622420926       -1.45741181822535        0.85561018635967
C            1.03518921296808       -1.63869883375922        1.40522947900912
C            1.96915895229133       -0.60872703337403        1.45320510791261
C            1.66120222108877        0.59984579273885        0.83828491048273
C           -4.23365401874014       -0.56501231644866        0.30145340526650
C           -5.14156384838308       -1.56483093144490        0.60159530277145
C           -4.74195480390295       -2.87874332622814        0.86536546080282
C           -3.39501747542614       -3.16081531038731        0.88925793795298
O           -4.58411850533101        0.76117066187168        0.21580437844504
O           -3.91443669186467        0.31019628357462       -2.39876867101769
C           -2.67729061974680        5.00982032174779       -3.01061750925611
C           -5.75625146866098       -3.96606248711254        1.22071993928494
C            3.31400882663240       -0.83192946096730        2.14805864198006
C           -7.20671131918942       -3.49225411930398        1.04833884703187
C           -5.53728335618178       -5.18377714543611        0.31089146983135
C           -5.54493015687685       -4.36761102861231        2.68866556727346
C            4.23744456889505       -1.60586670107476        1.19665809808078
C            3.97557698409009        0.50191007762741        2.52133903769982
C            3.11732149068100       -1.64688839461785        3.43721181751290
C           -4.01102065834037        5.53588240133829       -2.45798181454990
C           -2.77788543154028        4.85318644919573       -4.53580602169708
C           -1.58407011850920        6.04035796859169       -2.69895543898367
H           -0.44921550358395        4.14263492491114       -1.59343485100497
H           -4.14651890169550        2.71812569302852       -3.18621540913763
H            2.36659315270625        1.41153988043681        0.82868758461074
H            1.25996840959507       -2.60460995978398        1.82507200705152
H           -3.04508405435941       -4.13798127646778        1.17740065072174
H           -6.18357301457957       -1.31319775249764        0.66449991939367
C           -5.95904937464125        1.04276906488692        0.11503388223619
C           -3.22921902335162       -0.80987134017500       -2.92661015210600
H           -1.47792590651949        6.18179519409302       -1.62537552816149
H           -1.83996338253185        7.00194992522984       -3.14059127581435
H           -0.62581613943321        5.72991884373489       -3.11003896463413
H           -3.58549035261100        4.18022434126951       -4.81475180772701
H           -1.84882227825848        4.45433928709665       -4.93898607669110
H           -2.96729560011407        5.81731599162369       -5.00496246786143
H           -4.83253141868512        4.86208859733903       -2.69039263584260
H           -4.24172812856970        6.50966940198095       -2.88698308630562
H           -3.95668328128717        5.64441296415727       -1.37631962051869
H            4.39904980749745       -1.04488089915147        0.27786168268214
H            3.80621875547886       -2.57050227042129        0.93489749908630
H            5.20421409479539       -1.77989619440943        1.66627786197267
H            2.81019238223966       -2.66960492091831        3.23207065635774
H            2.36279589554245       -1.18317976341058        4.06707590683264
H            4.04517177545123       -1.69158261084730        4.00383118127577
H            4.27090479294920        1.06137847800294        1.63655846392587
H            4.87376189749929        0.31951464726810        3.10754767914190
H            3.29697459853731        1.11181878144175        3.11399057510643
H           -5.67564962529887       -3.50627213036527        3.34175311266969
H           -4.54403745657148       -4.76180588209375        2.84843502742129
H           -6.26263814144759       -5.13258017565920        2.98075931112137
H           -5.65141358397890       -4.90215534260330       -0.73430903428219
H           -6.26444796723688       -5.96175164916921        0.53735351627385
H           -4.54356146548990       -5.60430600304037        0.44245382888129
H           -7.38994020787395       -3.16372808468089        0.02672107885083
H           -7.43959766461018       -2.67695590280388        1.73097380564560
H           -7.89428370296816       -4.30763834403808        1.26576859237252
H           -3.98067345664034       -1.53034599615363       -3.24823679837868
H           -2.58768092236499       -1.28365750671615       -2.18106964154855
H           -2.62156493945800       -0.51419910499913       -3.78759324235743
H           -6.06002866450823        2.11213033271469       -0.07224083172208
H           -6.48085933510331        0.79665928608188        1.04518662370756
H           -6.39217176544185        0.49068028234712       -0.72260235722233
C           -2.26564520428818        1.32674586310012        3.07478847293162
C           -1.74967585180603        0.30208973526361        3.85190730098325
C           -0.61254103101227        0.55486300222458        4.66173418397435
C            0.17588999191103        1.70321189667971        4.35036088688907
C           -0.39186136273591        2.71410559993850        3.54892767223308
C           -1.63663850818524        2.57540786281044        2.97543787473954
C           -0.16242246564682       -0.25185459650151        5.75170579421336
C            1.19128372379589       -0.14544207754606        6.09484705846574
C            1.97175594328528        0.92257210009137        5.57306647029833
N            1.43437696958517        1.87502588198742        4.79692654624378
C           -0.94568263476863       -1.14206399946575        6.54725286374358
C           -0.25139437003852       -2.14656064868277        7.28260532400151
N            1.08560312685782       -2.14812261877172        7.44174916500061
C            1.78143762911109       -1.10968482869421        6.95691757037947
C            3.15445629137285       -0.99375852062760        7.25149248458319
C            3.92642907615607        0.05687347912290        6.77060305450165
C            3.32585280941469        1.00658068324142        5.95036890474172
C           -2.35703649741495       -1.06125140293769        6.67926214314549
C           -3.03863673353335       -2.09846888640137        7.29026030528972
C           -2.37473031481501       -3.19167808472861        7.85995316141507
C           -0.99816933170928       -3.17999636579530        7.88501053792417
O           -2.97795081210277        0.08745110118831        6.24329846792119
O           -2.37144682340825       -0.93102508871055        3.74800449608269
C           -2.29742839191311        3.76396134582421        2.27570544639236
C           -3.14354655941947       -4.34772310129946        8.50174171224438
C            5.40524907775778        0.21107906950828        7.13339128204260
C           -4.66102037679622       -4.22305907535309        8.30149412415611
C           -2.68407966624437       -5.66965924887108        7.86798836127176
C           -2.85044626291679       -4.36544565313859       10.00909594320200
C            6.24949779985505        0.25555857380960        5.85041492499832
C            5.59038531735713        1.52193569033517        7.91325461771561
C            5.91005226744410       -0.94837796768696        8.00245810942120
C           -2.89426918813639        4.66338859649607        3.36868609554099
C           -3.42742998661104        3.32724587100200        1.33736608402860
C           -1.26500102022522        4.56480401803408        1.46905228482672
H            0.18521546636789        3.61124810637066        3.40853817989062
H           -3.16116182221746        1.11488256301966        2.51572936992376
H            3.89294526978942        1.84350289462268        5.57809162207427
H            3.58015200607133       -1.75124004098889        7.88527256428853
H           -0.45176359349612       -3.95622620930655        8.39311175361455
H           -4.11011480885697       -2.04976993901603        7.34304596121583
C           -4.36703915150620        0.00134372307622        6.02950581543849
C           -1.54221534916741       -2.07563665856878        3.83415895876072
H           -0.57675374581306        5.09899515207605        2.11929393591271
H           -1.76603024176953        5.30086714224563        0.84259829449279
H           -0.68661689827280        3.90292735742427        0.83202568177444
H           -4.24392003953298        2.86848148353493        1.89015832206285
H           -3.06789867598139        2.61455592361017        0.60294748016177
H           -3.83233464977732        4.18416383347841        0.80236722276546
H           -3.63757142562884        4.12111753351947        3.95079573192350
H           -3.37573633945898        5.53074655965050        2.91954901566306
H           -2.11986929532129        5.01312505734146        4.04854776254866
H            5.98015904150067        1.10430752066110        5.22607963389141
H            6.11008547176364       -0.65562875529202        5.27104449233371
H            7.30679230816918        0.34291736592890        6.09563190862347
H            5.80163716985490       -1.89924977047865        7.48415128337718
H            5.36799005752925       -0.99470108591800        8.94479263414257
H            6.96524341610934       -0.81078265642232        8.23240138059102
H            5.29809445684512        2.38300576831562        7.31650100184083
H            6.63287570945558        1.64843000485211        8.20087071655580
H            4.98490389802819        1.51520555141744        8.81779515952575
H           -3.15639095822710       -3.42683952717361       10.46800419085323
H           -1.78950096185153       -4.50559244953314       10.20170968644083
H           -3.39348096640415       -5.17595415040332       10.49252864526466
H           -2.86330696454112       -5.65928410618572        6.79425220675463
H           -3.23145292537757       -6.50665437720841        8.29838118265797
H           -1.62331092153005       -5.84068687278861        8.03304449579604
H           -4.91238209932845       -4.18662949432085        7.24270104707236
H           -5.05119972818228       -3.33243627204089        8.79091407008077
H           -5.16679723424864       -5.08382675709863        8.73530326654886
H           -1.82989490900484       -2.76175242766269        3.03809703858169
H           -1.66814689062635       -2.58218168450908        4.79269900918416
H           -0.49431987952914       -1.80640227599059        3.69739717344553
H           -4.67447352825883        0.91859337754499        5.52721937447459
H           -4.90949909450433       -0.08244533366992        6.97593314004215
H           -4.59331041916796       -0.85087311291386        5.38295759195019
152
 energy: -209.198149131606 gnorm: 0.010652648750 xtb: 6.7.1 (edcfbbe)
C           -3.26978874277538        2.58604844746074       -2.56980218003461
C           -3.07106398466561        1.35057461795961       -1.99817922869366
C           -2.01636917089987        1.15992386186524       -1.08339820563924
C           -0.99869189434335        2.16143830877993       -1.02893970641904
C           -1.21591494488981        3.39872251961880       -1.67775836117705
C           -2.36950467021220        3.65206463235857       -2.37698482424471
C           -1.85421564086407        0.03460471668276       -0.22598436090909
C           -0.56917688826597       -0.19898550725592        0.27257708548775
C            0.41564480070299        0.82340297975175        0.20116403674631
N            0.15671856044187        1.99802721030010       -0.37113214964898
C           -2.86724612122782       -0.87984993297351        0.19513821325417
C           -2.42819779834919       -2.16714121690803        0.62536709230438
N           -1.14085956790608       -2.45348610925629        0.87087401703629
C           -0.25545537305727       -1.45533363279998        0.85667306419547
C            1.03255486069867       -1.64082694478219        1.40079878417682
C            1.96471487810476       -0.60689105459436        1.44948159295459
C            1.65778553308231        0.60299239992810        0.83661110615752
C           -4.24055852956257       -0.57901751869456        0.29127502232979
C           -5.14244213123582       -1.57558719468608        0.59900103998363
C           -4.73527312646566       -2.89014378323893        0.86613923854060
C           -3.38854097162589       -3.16746470184319        0.88861813655109
O           -4.59103081465729        0.73100860390960        0.17930682969135
O           -3.90682609304425        0.32108949136162       -2.38913476645514
C           -2.67256882959814        5.00379021242850       -3.00787933674379
C           -5.75031166199499       -3.96841228546437        1.21962757732356
C            3.30540574632136       -0.82948143078811        2.14108778244873
C           -7.19925023350755       -3.49981500731464        1.04912817754999
C           -5.53491304023228       -5.18442092338830        0.31083781477216
C           -5.54190808107445       -4.36831626881032        2.68682714717709
C            4.22757098661542       -1.60332102210925        1.18885925392297
C            3.97265213693940        0.49744449973504        2.51467501867590
C            3.11531226662992       -1.64359877130249        3.42811855857362
C           -4.00581448028767        5.52601899033737       -2.45482641792483
C           -2.77418641335183        4.84727191073050       -4.53127005052144
C           -1.58777068966951        6.03895253346978       -2.70120907632261
H           -0.43012519002852        4.12901009748375       -1.59345571252888
H           -4.13281156873470        2.70351112873899       -3.20777247458913
H            2.35508407497585        1.42278715510356        0.82766792158684
H            1.25188570970166       -2.61176793313893        1.81519232976607
H           -3.02120624521987       -4.14002828825672        1.17617617994208
H           -6.18600523276331       -1.32792014516559        0.66124579287528
C           -5.95940126482234        1.04588358191130        0.10016409035039
C           -3.23751487470358       -0.79982240800733       -2.93197316942183
H           -1.47940849919853        6.18227218784996       -1.62912633774475
H           -1.85762894243406        6.99495407763052       -3.14574778423651
H           -0.63050818845698        5.73497413603176       -3.11662316449598
H           -3.58163705116456        4.17583966578028       -4.80961571855303
H           -1.84438083093692        4.45055691849021       -4.93297367519079
H           -2.96400153933263        5.81431110248074       -4.99296361710305
H           -4.82471744045936        4.85092646320834       -2.68710644268787
H           -4.23373122723812        6.49855355033941       -2.88712332838399
H           -3.94899199812593        5.63596215849475       -1.37411002371838
H            4.38983873265463       -1.04059859622122        0.27220042236697
H            3.79460288782541       -2.56648637002739        0.92891353043670
H            5.19163403640594       -1.77561473889388        1.66380726872562
H            2.81829794533624       -2.66829416917581        3.22332654216692
H            2.36039482739604       -1.18478089089893        4.06008561904128
H            4.04620294387215       -1.67789695043365        3.98984890513648
H            4.27850043168834        1.05128880354935        1.63097242563330
H            4.86499349390709        0.30191590108515        3.10492879406166
H            3.29658500927142        1.11181047132394        3.10369139418717
H           -5.67316568777684       -3.50402024268597        3.33493230680359
H           -4.54211366203036       -4.76199310163041        2.84598989260790
H           -6.26303655726187       -5.13074140795076        2.97515665298854
H           -5.65165983151124       -4.89969385333309       -0.73257960368951
H           -6.26463336424315       -5.95794498441629        0.54135623569603
H           -4.54207796025162       -5.60370356236613        0.44122435199581
H           -7.38620883312166       -3.17127844911619        0.02900754889338
H           -7.43780860899831       -2.69082167852163        1.73623856003704
H           -7.87603188736257       -4.32391059480978        1.26570460660739
H           -4.01319131875713       -1.49822745374123       -3.24616960040211
H           -2.59015968969476       -1.29858401287145       -2.20424991416276
H           -2.63435367795199       -0.51082827693809       -3.80068700430780
H           -6.01345840045389        2.11973106011297       -0.08454639964870
H           -6.48353175011441        0.81948265487650        1.03687674635625
H           -6.43098116100074        0.50815805266740       -0.72917856150713
C           -2.25455980321771        1.32541565549941        3.07072024291417