116
 energy: -22.928061455056 gnorm: 0.329736929581 xtb: 6.6.1 (8d0f1dd)
C           -3.31122850772930        0.79849766164622       -0.92477639677520
C           -2.44380812530352       -0.12270372891954       -0.27661132624697
C           -1.41337090092821        0.39579727573559        0.56335275196199
C           -0.89266158675590        1.65801491088749        0.27377586709581
C           -1.72665675402493        2.51431363229076       -0.49448366572522
C           -2.95444148494349        2.13954154133227       -1.01494489940871
C           -0.74098268209890       -0.43411532818871        1.49825021926784
C            0.56872586496315        0.03782116815119        1.86248088067890
C            1.03782416582094        1.29402317993033        1.50887470833621
N            0.31238977034758        2.07067427098208        0.65193736800696
C           -1.29695700510141       -1.39996043042223        2.41574187746061
C           -0.38243517664656       -2.18060797534842        3.13232615520648
N            0.91308504082021       -1.90366887689689        3.30325166013478
C            1.37712470144904       -0.74872102533751        2.81811050966982
C            2.52149331701875       -0.17739833758153        3.39379298866852
C            2.95849061756259        1.02681208890480        2.95105897606587
C            2.24288949469137        1.78498308775960        2.03503020483770
C           -2.74860936222260       -1.74497937691422        2.38401158947411
C           -3.09416315450955       -2.91614440870436        3.00571134491758
C           -2.16786021984049       -3.77788778654213        3.63251872101904
C           -0.85708937311598       -3.40495313382985        3.68547234358092
O           -3.71994433332149       -0.94984598373544        1.67726658385724
O           -2.55702603277562       -1.47241711578389       -0.57241635275616
C           -3.84297843593025        3.13357444054366       -1.60938954875544
C           -2.68769581069131       -5.03867041417370        4.30484659386931
H           -1.39666850744143        3.51251503834900       -0.76806311868865
H           -4.27662633836220        0.55105838579656       -1.33106614114542
H            2.66329581305412        2.73912661909249        1.72562431984580
H            3.05775395548473       -0.69369546277216        4.16536137542516
H           -0.24710966264510       -4.12034095424229        4.22946223699121
H           -4.11477991332403       -3.04712728052358        3.03244694615357
O           -4.21824883374556        4.03433712717988       -0.87713382485991
O           -4.44510595673734        2.90643496899600       -2.81853501752979
C           -5.44216520282800        3.83300025693726       -3.02488532025093
C            4.23586651889298        1.50004220933226        3.59165660008449
O            5.05927614697201        0.66079890002952        3.91714215179376
O            4.47001334453535        2.86385149488593        3.72605651435371
C            5.79457498613219        3.08584475587818        4.15829123132174
O           -3.82227255313510       -5.27347675879771        4.16636005494405
O           -1.85023202017753       -5.79767454267276        5.06656077253571
C           -2.55119635829503       -6.86252441382958        5.62930343183426
C           -5.07197156564436       -1.42399175670916        1.58830531863830
C           -1.33089900128490       -2.23622472573986       -0.99264499351172
H           -2.54510546830388       -7.76426885143998        4.99136022291012
H           -3.57194749219491       -6.44405511486021        5.74196173723541
H           -2.09133598235598       -7.02043774843818        6.64022264233588
H            5.72707967266424        3.46798026205549        5.10135971236643
H            6.34060091246885        3.78468702308830        3.50069950143490
H            6.17933064298187        2.03010500085905        4.19342358084693
H           -0.91862729772622       -2.57650129080332       -0.01361370304871
H           -0.49769766914251       -1.60651221708571       -1.34094446550576
H           -1.52632419730509       -2.94569707152159       -1.75361447637286
H           -5.11788846557077       -2.41810833635233        1.17520213188926
H           -5.67929807973498       -0.69619639428435        1.04301666067831
H           -5.57598832326623       -1.42383358739762        2.57928294206544
H           -6.13050215934830        3.76035386975488       -2.23272855695873
H           -5.86615610071888        3.45938329385866       -4.02668959924245
H           -5.13479557532099        4.87790991548477       -2.98314551356402
C           -1.38192942069774        3.73616555005018        2.91232598411686
C           -1.84821468128685        2.59982427735607        3.49755545445181
C           -1.05946531454833        2.05730632010638        4.60922730982276
C            0.19893954712228        2.69376791964407        4.86302140881997
C            0.50425395911860        3.94630308659851        4.28768785650746
C           -0.26031777722226        4.46998310053134        3.25072669343212
C           -1.20488993561782        0.74454293276906        5.14851520323437
C           -0.06287609782692        0.02744069315890        5.60930570802864
C            1.19208754369866        0.71421540266195        5.78882868583885
N            1.19428660993148        2.06344359410476        5.62744624321596
C           -2.41361422770794        0.07928500213936        5.25249410304426
C           -2.45851584031083       -1.32662100968547        5.60237876023992
N           -1.29466212405906       -1.98318595734370        5.89916817085159
C           -0.14475655767527       -1.32117560077092        5.98824682881008
C            0.97209270935794       -1.98958449505532        6.53157704134458
C            2.21982707914082       -1.36973967291181        6.68703967237737
C            2.30561929262884       -0.09745313075593        6.26436900324455
C           -3.73018485967715        0.71367583494582        5.25810242262992
C           -4.89964478833448       -0.06184623426677        5.21204641615509
C           -4.82617965800088       -1.39228978090841        5.46901303780036
C           -3.67144193418464       -1.98914944386360        5.67265433266067
O           -3.75568638935321        2.07705011038914        5.52067969627343
O           -2.94192434743730        1.91263938797883        3.01658762327703
C            0.21273512614467        5.50086066357994        2.34765104514621
C           -6.06660304520411       -2.17604633098929        5.80641622556876
H            1.41756699010566        4.38133362238595        4.66974005703471
H           -1.82880610647429        4.11982501512100        2.06992133318584
H            3.26888037378556        0.32655662585251        6.31721410015598
H            0.87146188387207       -3.08471526305024        6.57830423410869
H           -3.67716811065157       -3.05999292755990        5.83019634570050
H           -5.77379677507622        0.43595144608221        4.71017130754348
O            1.34459852619901        5.82615848916894        2.44941456579099
O           -0.74718748219123        6.07961784856304        1.59848183464284
C           -0.21473095568964        7.24015934882472        1.05753806029483
C            3.53228080814219       -2.00967610361154        7.02506769044485
O            3.64093082622715       -3.14437803815732        7.50071391725347
O            4.56565258381079       -1.22937033368332        6.69086985080897
C            5.72579357310716       -1.80692399125161        7.22246151275881
O           -7.04801223588612       -1.95726935745904        5.14194115322235
O           -6.01514389321278       -2.93743591896022        6.94765316328794
C           -7.21292732384718       -3.62681918543340        7.15115816329978
C           -4.95459780685163        2.65960679932188        5.86868674392943
C           -3.68284113682406        2.59129188358641        2.05479246020704
H           -7.43119628931628       -4.22607794725959        6.20622607140901
H           -8.06548455146707       -2.91765848248592        7.29781126410398
H           -7.07314693247270       -4.33087306029711        7.91223421050944
H            6.57332189837178       -1.29353136199234        6.78341268688262
H            5.74663761932316       -2.84282155125561        6.88089468184451
H            5.69426191474290       -1.72781984964892        8.29460302186842
H           -4.10481209541493        3.44288266176275        2.60483747673152
H           -4.49244774344916        1.87419893016926        1.82433103764650
H           -3.18901540870812        2.85154642679373        1.06781919454921
H           -5.55414326821421        2.76698137191684        4.93950725322359
H           -4.78658370641210        3.62090640967288        6.25983200635257
H           -5.43485580473958        1.97242995129449        6.65265772412460
H            0.89164886030839        7.38838561720231        1.13776105146914
H           -0.62894889903848        8.04195665205089        1.64837664327952
H           -0.59282546386754        7.45699159724320        0.03719083132488
116
 energy: -22.643211598398 gnorm: 0.496949925351 xtb: 6.6.1 (8d0f1dd)
C           -2.89684497070869        1.09248949202230       -1.68430360292085
C           -2.25724674882140        0.01530752200210       -0.95335886841946
C           -1.17716025350808        0.41160386798676       -0.07089996307888
C           -0.78033533059997        1.89776368050446        0.01151667973027
C           -1.64585166340187        2.88219266257804       -0.57906300089962
C           -2.68952324967181        2.50167348897789       -1.43535970967528
C           -0.41056288837405       -0.41902774331574        0.88406038174944
C            0.86512112414305        0.06766669866733        1.26232199744806
C            1.40185903331680        1.31893004948730        0.93549390760332
N            0.46055616585643        2.34767965267137        0.44069800706954
C           -0.98935510570281       -1.63084013336889        1.48791655138361
C           -0.08970399735493       -2.41491767616079        2.24406296023702
N            1.21025491482241       -1.98912611706952        2.57463482555911
C            1.65529019894315       -0.83555894305146        2.05215999916281
C            2.81672236719894       -0.30060241540138        2.75311606695011
C            3.32076975231641        0.98045367992732        2.58256820852534
C            2.45227550092604        1.73482981751998        1.77069096385083
C           -2.35297525645180       -2.01241348429421        1.45114977690000
C           -2.91467472159828       -3.11307191615009        2.08357050417895
C           -1.95136214122941       -4.05253562434933        2.61853146077554
C           -0.63141310384109       -3.60549090331353        2.68242816555140
O           -3.33757737145720       -1.05868264075168        1.06240350916119
O           -2.60287190837563       -1.32940865856550       -1.50268808057726
C           -3.67483170382222        3.42039063779246       -2.02591646063655
C           -2.40451799008040       -5.36053841132651        3.11980568949142
H           -1.09480310998443        3.81887079626401       -0.41209401959904
H           -3.76652459346692        0.93956620326695       -2.34393591483155
H            2.70902110020809        2.74895794218298        1.85118716086324
H            3.01499666709759       -0.68969206366827        3.77285647750683
H            0.30019331005941       -4.26887443235198        2.93432588005395
H           -3.94086012997204       -3.12300703428867        2.23539138996128
O           -3.34389219228880        4.47073060387258       -2.48577908105772
O           -4.96537731954935        3.02061706061105       -2.28998731082026
C           -5.95891217327858        3.95436303157193       -2.80386693195799
C            4.29505657721297        1.43735385431599        3.68418042789067
O            4.64694738239360        0.73190273959268        4.69780199729573
O            5.12022001811559        2.54535865397763        3.26970077790396
C            6.45577924670516        2.53258495487402        3.83947315455109
O           -3.29200239673566       -5.43668819556097        3.98554697812437
O           -1.69618431981770       -6.45395726649554        2.72166302881335
C           -2.30231347745237       -7.60530729679374        3.16534243734521
C           -4.56837678283401       -1.57608458019113        0.39056481852883
C           -1.67815958108007       -2.02952553240948       -2.23961072643127
H           -3.10218082912586       -7.92022656014470        2.34935408378548
H           -2.49181399777782       -7.51192736347296        4.37446119637665
H           -1.62389081806776       -8.51807270650641        3.06220327860208
H            6.92626830937584        1.91309942427110        3.06669980595919
H            6.53563663875370        2.33021771407574        4.86212426753771
H            6.64761886101891        3.74939702889467        3.87774764590267
H           -1.39391919517963       -1.70210785015150       -3.25943508999489
H           -1.84486193705420       -3.17845539183137       -2.03428629757075
H           -0.75816163638520       -1.89933637058642       -1.61310284714529
H           -4.50550781374864       -1.94364630419461       -0.61765172325887
H           -5.39326869324024       -1.04858944590249        0.82333409521779
H           -4.64452357598940       -2.55298817470181        0.98874551414603
H           -5.83223663097596        4.95871356451635       -2.40061427207709
H           -6.88266305349878        3.43594649666098       -2.46687807607454
H           -6.04000734754443        4.02638061455389       -3.92897210988320
C           -1.95130949724006        3.36914851561296        3.18413084253968
C           -2.09954341208802        2.21179482283841        3.91684612784380
C           -1.03055762071490        1.66700890517323        4.64590261885877
C            0.25877669464768        2.27865330285730        4.63734013328253
C            0.45304173580122        3.45033535559895        3.88152435901350
C           -0.70143564046797        3.98056983734311        3.13558003373951
C           -1.10189033210223        0.61009234197742        5.57391656056373
C            0.07366813951939       -0.01883549578504        6.10205064497917
C            1.35709364371561        0.46866459489369        5.79406944084483
N            1.40063258890172        1.67522193329463        5.20816123005708
C           -2.41618116862033        0.19866387782418        6.14458045473996
C           -2.44114041958092       -1.05329479896363        6.73903863626068
N           -1.34380983328890       -1.80056874452250        7.01357488373256
C           -0.16253258947913       -1.18087545810310        6.90955502470443
C            1.01394201095454       -1.66377062198498        7.33037248006934
C            2.27316607448048       -1.15386553331880        7.22240144192893
C            2.49041230624599       -0.20447925469978        6.28160597924501
C           -3.62614474491139        1.06223496288161        6.31403138984838
C           -4.83541378947345        0.52431089835642        6.77621192614761
C           -4.90743386945774       -0.79396236722285        7.20640865724447
C           -3.73357615740217       -1.51302889931766        7.22751340384956
O           -3.53795293723278        2.46028166070324        6.24555058298375
O           -3.38649191117600        1.63201371804213        3.59450642463865
C           -0.66477565317769        5.04793944058829        2.24943828851707
C           -6.07994923776653       -1.65688543814727        7.31517672736182
H            1.12912687823929        4.11768123211275        4.21358831752834
H           -2.87402587276173        3.80227991693930        2.82368753043404
H            3.54330091122548       -0.09687984406808        5.99884077486595
H            0.97757228122683       -2.55125730234065        7.95623238114670
H           -3.67740598828276       -2.31930341950534        8.02471130591323
H           -5.84774551566980        1.21685468055610        6.73361127057743
O            0.31926990404608        5.76477169981842        2.55038588261706
O           -1.45220716017189        5.46196178411644        1.27165620118410
C           -1.08945194846638        6.70326402275968        0.95047321834858
C            3.27636790965942       -1.75065469535114        8.08694845859040
O            2.85994863248558       -2.65273359895050        8.74953517556882
O            4.48304002055963       -1.11542282390396        8.17907968454411
C            5.30296399375993       -1.62075254686857        9.16354853463819
O           -6.07415177593731       -2.81644392656328        7.02130899808123
O           -7.29715546498271       -1.09321806480192        7.70102145534975
C           -8.26791510723623       -2.03027641591578        8.11600425992584
C           -4.61996077259192        3.21782201671052        6.64293826010606
C           -3.73490427955834        1.63401783924678        2.18991656579681
H           -8.64565875607041       -2.45783277313479        7.19366481975941
H           -9.02110114060796       -1.45727695928327        8.67343167818798
H           -7.89253998212854       -2.96170867318302        8.60576389207540
H            4.87057114366059       -2.38765382790712        9.79438870056458
H            5.59268874769167       -0.70588180003839        9.75758547014398
H            6.24626373943704       -1.97910201058791        8.72722056407083
H           -4.27048875662982        2.50545877436317        1.70117200859997
H           -4.41184843223848        0.84709014766322        1.89493413285963
H           -2.81118809020053        1.48931292178545        1.62303535754592
H           -5.61729999868364        2.94026323942836        6.20007079058371
H           -4.23875813952323        4.22818867451391        6.34445668424593
H           -4.81860971869302        2.87885024529605        7.77920149578465
H           -1.87296770901853        7.28818492012807        1.02182816042448
H           -0.72082820899719        6.56043340682769       -0.07846480707837
H           -0.39274215144576        7.06917830697469        1.71955990659478
116
 energy: -22.741763330884 gnorm: 0.414771992266 xtb: 6.6.1 (8d0f1dd)
C           -3.00225890581493        0.84508978959454       -1.75554438579466
C           -2.41569254028421       -0.00574359471037       -0.88157386861530
C           -1.52627421890329        0.45307754087928        0.21549561303341
C           -1.09955083912401        1.84248363334801        0.14519612849884
C           -1.64085226729390        2.58403896121231       -0.91853073583236
C           -2.63064054241366        2.10160016331869       -1.72101224486085
C           -0.82459198145484       -0.31199497045500        1.25730657172822
C            0.38590810262512        0.20442680586189        1.74713726440658
C            0.90181059491436        1.42087706809656        1.36310868176514
N            0.13672508775359        2.21469215370111        0.59774345061978
C           -1.21198897049822       -1.57748004649826        1.65419844052860
C           -0.15669971529704       -2.42576809203050        2.11036963156096
N            1.00907262956412       -2.10682745613858        2.59479609641085
C            1.29675837395852       -0.77000237870710        2.36169594834172
C            2.55124219032764       -0.28313817893450        2.81863338248377
C            3.00817795922753        0.97786151956985        2.36511640965797
C            2.11145872715089        1.84796592492061        1.86413170102331
C           -2.57468490791564       -2.12930722310771        1.41790368130381
C           -2.70893574548771       -3.51275547595640        1.38710076639289
C           -1.63467440319485       -4.46650059934699        1.64477641714559
C           -0.38358173031106       -3.82752850069300        1.96404359708452
O           -3.66646430512758       -1.28827593495016        1.26332339960098
O           -2.77056758235444       -1.32601396004335       -1.06617439456093
C           -3.39367323330305        3.09812405440286       -2.67366293363441
C           -1.48470941873117       -5.95496762011026        1.60964415397289
H           -1.37923182466523        3.59592061232796       -1.12497757351865
H           -3.70654332338503        0.45907434655770       -2.52937151655173
H            2.48047741739838        2.77023172705024        1.37154887628479
H            3.18295471391498       -1.08673240083731        3.12625957963761
H            0.52122093915263       -4.47744437169844        2.17374152075475
H           -3.57155024900923       -3.97601411620324        1.10010183874120
O           -3.49992842081151        4.32654840862413       -2.51668326275032
O           -3.95918459451355        2.53843823144881       -3.71082070584210
C           -4.54163047754198        3.48272895452403       -4.46280832129337
C            4.40583470194265        1.35241728356502        2.65879596857750
O            5.10136155470445        0.46896215549034        3.19845487856164
O            4.71470800924163        2.65799161023901        2.44108535061793
C            6.01315830736797        2.85017294458885        2.29328720493497
O           -1.59465672620216       -6.67197635974467        0.66716505034069
O           -1.17343075225578       -6.40881848224864        2.88834971718544
C           -1.55210616238986       -7.71918079361681        2.89520689705980
C           -4.90813854671422       -1.90991407206968        1.31591742906097
C           -1.74565736624317       -2.11166992014204       -1.65131419156881
H           -0.96060163498916       -8.61287878006934        2.53128263214308
H           -2.53024359101254       -7.70616095885783        2.38938050857895
H           -1.78224341558602       -8.06990204714545        3.86009271977007
H            6.47228126075240        3.17137688117581        3.31292693703540
H            6.10401853333783        3.80122697628948        1.83331958406947
H            6.38534029650404        1.82623155782520        2.13675363882157
H           -0.76008922848798       -1.72394710093990       -1.29428028218435
H           -1.86405049252675       -1.91973527673260       -2.68654580157295
H           -1.89765388257088       -3.19446212382031       -1.42058073954063
H           -5.57218896232989       -1.07864140951012        1.75948684093408
H           -4.75509226537571       -2.47842851371202        2.21959405970224
H           -5.45828727512773       -2.51344993958540        0.50133965512806
H           -5.20557600864210        4.17848393697213       -3.74087922270180
H           -5.09864080376764        2.93242144699059       -5.20751622398896
H           -3.84426787457946        4.19952296088573       -4.91589219531939
C           -1.70087024258880        3.76887821182226        3.43464936442939
C           -2.08630887533864        2.63608953278039        4.15910271605093
C           -1.09690408589779        1.92588083216070        4.94657592271380
C            0.20057309429631        2.42758175983298        4.88189775776715
C            0.58574193536208        3.48929272453914        4.02072588057413
C           -0.41375025093752        4.32679775852408        3.48165712098875
C           -1.35458359301328        0.94627595874906        5.96981242665068
C           -0.31802145479987        0.18676175600065        6.49874309106413
C            0.99828440568009        0.72048567414835        6.22884912280354
N            1.19872641616939        1.92703176495949        5.63419358147795
C           -2.61536492912763        0.50178756891883        6.65193011545778
C           -2.74657298368296       -0.88001618126612        7.08507096852507
N           -1.65532304905838       -1.57294395780129        7.53686194004475
C           -0.46470368678365       -1.05495322937003        7.18429210311798
C            0.66770085792838       -1.74323902793165        7.52404683738803
C            1.92063759979740       -1.10313772845843        7.32782101449313
C            2.18206523850800        0.14168805226977        6.71730049585892
C           -3.80807587542040        1.25545010799429        6.77750726440804
C           -5.00163622046550        0.72082476019751        7.30065377591288
C           -5.09253826872438       -0.60891804661411        7.81419014744450
C           -3.98258427917570       -1.38654359160425        7.66513622679771
O           -3.59369437350548        2.57963830936066        6.41065320550696
O           -3.28829670394854        1.94072601308899        3.91016022461299
C           -0.06141166278324        5.66866973793265        2.91434557217205
C           -6.32310158487553       -1.41100753732046        8.33712499026700
H            1.67840054176420        3.80202718882986        4.21293547220539
H           -2.45446697390716        4.30954751599337        2.90840714027524
H            3.26512013904466        0.52415776435919        6.59387815522018
H            0.59050895193795       -2.81562848168202        7.93163366342916
H           -3.86217998383046       -2.40560157209892        8.12481409377523
H           -5.93934522234817        1.41428901247382        7.16492982125074
O            0.97847189754326        6.31992243760917        2.98947167472908
O           -1.19571719047685        6.05243501641604        2.21974041492395
C           -1.11834861866283        7.23385217729570        1.52467465606911
C            2.95984267163396       -1.85882245220416        8.02160097319675
O            2.81653966205611       -3.05965380002707        8.14361126346132
O            4.12765964640204       -1.29796335773479        8.56354310614106
C            4.87696556325396       -2.36666247319110        8.90657881110753
O           -6.20734630154103       -2.59461136542847        8.63611266466827
O           -7.51057806740442       -0.76927482750734        8.26756952846393
C           -8.36260532908548       -1.40645525089275        9.16981175028859
C           -4.82335104057753        3.33809173191102        6.32433498121570
C           -3.14269745905238        1.30274277454660        2.58247788108513
H           -8.96285184221605       -2.16753535557533        8.72989979823066
H           -9.00594423655896       -0.79208862535859        9.80665814760467
H           -7.75187662479503       -2.01673551326402        9.85071900533688
H            5.95625878603792       -2.12867478131216        9.09366849808206
H            4.74499435930901       -2.96573863368296        8.04576029483572
H            4.55625367152991       -2.65598904972868        9.90833344148420
H           -3.12678752475100        2.16028589011635        1.85836520758298
H           -3.84036068940345        0.57748538815439        2.13827328718865
H           -2.24454104486746        0.77498005524115        2.57739774813345
H           -5.55855434108171        2.69984627909185        5.77527204851281
H           -4.49548601989643        4.07895133793268        5.64326320636187
H           -5.13107819865454        3.47107372399852        7.37574130977779
H           -2.13282865774496        7.51330861710318        1.35690770555236
H           -0.73778222841962        6.89234360798391        0.46845331976316
H           -0.51397720470899        7.81800914487699        2.24464491188023
116
 energy: -22.680510710122 gnorm: 0.517025434278 xtb: 6.6.1 (8d0f1dd)
C           -2.53583408905655        0.72488490155029       -2.03118444460291
C           -2.06884598622206       -0.19062201506063       -1.10640878499665
C           -1.37322824200584        0.40905923808758        0.01925297783511
C           -0.98794561041362        1.75577829160250        0.09242316696441
C           -1.66698369584217        2.63857273082769       -0.79211914109337
C           -2.48949551152996        2.10365406354037       -1.81177762418075
C           -0.77060588240645       -0.61349683531660        0.93809739648037
C            0.20683673868591       -0.01518006003120        1.76745120604724
C            0.44455913372742        1.45463309491909        1.65243874921397
N           -0.20228295743074        2.36018235036337        0.89985851930413
C           -1.24821865608747       -1.84528752330575        1.43548860419900
C           -0.23538104700112       -2.57095632334339        2.24086827703649
N            0.97740360035379       -2.06632914131244        2.71383041570451
C            0.98439250680830       -0.76421102898583        2.71684016126952
C            2.22799833922266       -0.17546265070537        3.21674943842325
C            2.49796928491588        1.15108389030661        2.98401223269653
C            1.53626052907193        1.96831661929108        2.34186750635320
C           -2.53572806741351       -2.41704314941743        1.24580062846222
C           -2.69362265578943       -3.74336193677866        1.50350258354822
C           -1.65078974702749       -4.49488424718822        1.97992830436010
C           -0.49765802403419       -3.88017012030119        2.46307662976656
O           -3.62554364880128       -1.72271139367853        0.78821085759007
O           -2.15141138289642       -1.57855191833438       -1.36355644955922
C           -3.47551718640288        2.89159240497998       -2.61201691983384
C           -1.63510108213916       -5.99627346241530        2.43777247861583
H           -1.03298459085550        3.53475995398459       -0.84700993474801
H           -3.28638808422270        0.30665247482554       -2.75655590484839
H            1.58997151686597        3.06063754320307        2.62859480720838
H            2.77084832049887       -0.71304803702683        4.00004880219291
H            0.23300026376467       -4.55159172786068        2.90875718541233
H           -3.59464670433680       -4.13667729001134        1.31719715064824
O           -3.86878406941840        3.93414641918021       -2.27226317924209