Optimization of monomers started
      -----------------------------------------------------------      
     |                   =====================                   |     
     |                           x T B                           |     
     |                   =====================                   |     
     |                         S. Grimme                         |     
     |          Mulliken Center for Theoretical Chemistry        |     
     |                    University of Bonn                     |     
      -----------------------------------------------------------      

   * xtb version 6.7.1 (edcfbbe) compiled by 'runner@Mac-1732539442253.local' on 2024-11-25

   xtb is free software: you can redistribute it and/or modify it under
   the terms of the GNU Lesser General Public License as published by
   the Free Software Foundation, either version 3 of the License, or
   (at your option) any later version.
   
   xtb is distributed in the hope that it will be useful,
   but WITHOUT ANY WARRANTY; without even the implied warranty of
   MERCHANTABILITY or FITNESS FOR A PARTICULAR PURPOSE.  See the
   GNU Lesser General Public License for more details.
   
   Cite this work as:
   * C. Bannwarth, E. Caldeweyher, S. Ehlert, A. Hansen, P. Pracht,
     J. Seibert, S. Spicher, S. Grimme, WIREs Comput. Mol. Sci., 2020, 11,
     e01493. DOI: 10.1002/wcms.1493
   
   for GFN2-xTB:
   * C. Bannwarth, S. Ehlert and S. Grimme., J. Chem. Theory Comput., 2019,
     15, 1652-1671. DOI: 10.1021/acs.jctc.8b01176
   for GFN1-xTB:
   * S. Grimme, C. Bannwarth, P. Shushkov, J. Chem. Theory Comput., 2017,
     13, 1989-2009. DOI: 10.1021/acs.jctc.7b00118
   for GFN0-xTB:
   * P. Pracht, E. Caldeweyher, S. Ehlert, S. Grimme, ChemRxiv, 2019, preprint.
     DOI: 10.26434/chemrxiv.8326202.v1
   for GFN-FF:
   * S. Spicher and S. Grimme, Angew. Chem. Int. Ed., 2020, 59, 15665-15673.
     DOI: 10.1002/anie.202004239
   
   for ALPB and GBSA implicit solvation:
   * S. Ehlert, M. Stahn, S. Spicher, S. Grimme, J. Chem. Theory Comput.,
     2021, 17, 4250-4261. DOI: 10.1021/acs.jctc.1c00471
   
   for ddCOSMO and CPCM-X implicit solvation:
   * M. Stahn, S. Ehlert, S. Grimme, J. Phys. Chem. A,
     2023, XX, XXXX-XXXX. DOI: 10.1021/acs.jpca.3c04382
   
   for DFT-D4:
   * E. Caldeweyher, C. Bannwarth and S. Grimme, J. Chem. Phys., 2017,
     147, 034112. DOI: 10.1063/1.4993215
   * E. Caldeweyher, S. Ehlert, A. Hansen, H. Neugebauer, S. Spicher,
     C. Bannwarth and S. Grimme, J. Chem. Phys., 2019, 150, 154122.
     DOI: 10.1063/1.5090222
   * E. Caldeweyher, J.-M. Mewes, S. Ehlert and S. Grimme, Phys. Chem. Chem. Phys.
     2020, 22, 8499-8512. DOI: 10.1039/D0CP00502A
   
   for sTDA-xTB:
   * S. Grimme and C. Bannwarth, J. Chem. Phys., 2016, 145, 054103.
     DOI: 10.1063/1.4959605
   
   in the mass-spec context:
   * V. Asgeirsson, C. Bauer and S. Grimme, Chem. Sci., 2017, 8, 4879.
     DOI: 10.1039/c7sc00601b
   * J. Koopman and S. Grimme, ACS Omega 2019, 4, 12, 15120-15133.
     DOI: 10.1021/acsomega.9b02011
   
   for metadynamics refer to:
   * S. Grimme, J. Chem. Theory Comput., 2019, 155, 2847-2862
     DOI: 10.1021/acs.jctc.9b00143
   
   for SPH calculations refer to:
   * S. Spicher and S. Grimme, J. Chem. Theory Comput., 2021, 17, 1701-1714
     DOI: 10.1021/acs.jctc.0c01306
   
   for ONIOM refer to:
   * C. Plett, A. Katbashev, S. Ehlert, S. Grimme, M. Bursch,
     Phys. Chem. Chem. Phys., 2023, 25, 17860-17868. DOI: 10.1039/D3CP02178E
   
   for DIPRO refer to:
   * J. Kohn, N. Gildemeister, S. Grimme, D. Fazzi, A. Hansen,
     J. Chem. Phys., 2023, just accepted.
   
   for PTB refer to:
   * S. Grimme, M. Mueller, A. Hansen, J. Chem. Phys., 2023, 158, 124111.
     DOI: 10.1063/5.0137838
   
   with help from (in alphabetical order)
   P. Atkinson, C. Bannwarth, F. Bohle, G. Brandenburg, E. Caldeweyher
   M. Checinski, S. Dohm, S. Ehlert, S. Ehrlich, I. Gerasimov, C. Hölzer
   A. Katbashev, J. Kohn, J. Koopman, C. Lavigne, S. Lehtola, F. März, M. Müller,
   F. Musil, H. Neugebauer, J. Pisarek, C. Plett, P. Pracht, F. Pultar,
   J. Seibert, P. Shushkov, S. Spicher, M. Stahn, M. Steiner, T. Strunk,
   J. Stückrath, T. Rose, and J. Unsleber
   
 * started run on 2025/03/04 at 12:26:46.145     
   ID    Z sym.   atoms
    1    6 C      1-9, 11, 12, 14-21, 34, 38, 41-43
    2    7 N      10, 13
    3    8 O      22, 23, 32, 33, 36, 37, 39, 40
    4   16 S      24, 25, 35
    5    1 H      26-31, 44-58

           -------------------------------------------------
          |                Calculation Setup                |
           -------------------------------------------------

          program call               : xtb Base3SO2Me.mol --opt tight --cycles 500 --chrg 0 --uhf 1 --spinpol --tblite
          coordinate file            : Base3SO2Me.mol
          omp threads                :                     8

repulsion energy          1.1532234384035E+00 Eh
dispersion energy         7.2386336977476E-04 Eh
interaction energy        0.0000000000000E+00 Eh
number of electrons       1.9300000000000E+02 e
integral cutoff           1.8403572253217E+01 bohr

------------------------------------------------------------
  cycle        total energy    energy error   density error
------------------------------------------------------------
      1     -109.5325760499  -1.1068652E+02   1.5996610E-01
      2     -110.0403803482  -5.0780430E-01   7.3329340E-02
      3     -110.0473300648  -6.9497166E-03   3.8036771E-02
      4     -110.0891529557  -4.1822891E-02   2.1413194E-02
      5     -110.1204788115  -3.1325856E-02   7.9750072E-03
      6     -110.1240564365  -3.5776250E-03   4.2220911E-03
      7     -110.1240774283  -2.0991803E-05   3.0121594E-03
      8     -110.1250123775  -9.3494923E-04   1.3957156E-03
      9     -110.1251390393  -1.2666178E-04   7.6537744E-04
     10     -110.1251658901  -2.6850750E-05   3.0653422E-04
     11     -110.1251692719  -3.3818747E-06   2.1294306E-04
     12     -110.1251713602  -2.0882621E-06   9.9090649E-05
     13     -110.1251716095  -2.4926236E-07   5.7905600E-05
     14     -110.1251716985  -8.9068379E-08   2.5955240E-05
     15     -110.1251717151  -1.6570795E-08   1.3334990E-05
------------------------------------------------------------

electronic energy        -1.1127911901689E+02 Eh
total energy             -1.1012517171511E+02 Eh

 total:                                   0.599 sec
 - repulsion                              0.000 sec (  0%)
 - dispersion                             0.003 sec (  0%)
 - coulomb                                0.001 sec (  0%)
 - hamiltonian                            0.007 sec (  1%)
 - scc                                    0.587 sec ( 98%)

      ----------------------------------------------------------- 
     |                   =====================                   |
     |                        A N C O P T                        |
     |                   =====================                   |
     |               Approximate Normal Coordinate               |
     |                Rational Function Optimizer                |
      ----------------------------------------------------------- 
      ----------------------------------------------------------- 
     |                   =====================                   |
     |                        A N C O P T                        |
     |                   =====================                   |
     |               Approximate Normal Coordinate               |
     |                Rational Function Optimizer                |
      ----------------------------------------------------------- 

          ...................................................
          :                      SETUP                      :
          :.................................................:
          :   optimization level             tight          :
          :   max. optcycles                   500          :
          :   ANC micro-cycles                  20          :
          :   degrees of freedom               168          :
          :.................................................:
          :   RF solver                   davidson          :
          :   write xtbopt.log                true          :
          :   linear?                        false          :
          :   energy convergence         0.1000000E-05 Eh   :
          :   grad. convergence          0.8000000E-03 Eh/α :
          :   maxmium RF displ.          1.0000000          :
          :   Hlow (freq-cutoff)         0.1000000E-01      :
          :   Hmax (freq-cutoff)         5.0000000          :
          :   S6 in model hess.         20.0000000          :
          ...................................................

generating ANC from exact Hessian ...
Using Lindh-Hessian (1995)
 Shifting diagonal of input Hessian by    9.8479454768016401E-003
 Lowest  eigenvalues of input Hessian
    0.000000    0.000000    0.000000    0.000000    0.000000    0.000000
    0.010000    0.010087    0.010159    0.010214    0.010408    0.010619
    0.010799    0.011324    0.011655    0.012172    0.013096    0.013142
 Highest eigenvalues
    1.998203    2.001135    2.019775    2.051370    2.171033    2.174787


........................................................................
.............................. CYCLE    1 ..............................
........................................................................
------------------------------------------------------------
  cycle        total energy    energy error   density error
------------------------------------------------------------
      1     -110.1251716541  -1.1127912E+02   2.2039032E-05
      2     -110.1251716609  -6.8086052E-09   1.8959460E-05
------------------------------------------------------------

 total:                                   0.090 sec
 * total energy  :  -110.1251717 Eh     change        0.5419678E-07 Eh
   gradient norm :     0.2637200 Eh/α   predicted     0.0000000E+00 (-100.00%)
   displ. norm   :     0.4471255 α      lambda       -0.7225119E-01
   maximum displ.:     0.1662142 α      in ANC's #75, #56, #64, ...

........................................................................
.............................. CYCLE    2 ..............................
........................................................................
------------------------------------------------------------
  cycle        total energy    energy error   density error
------------------------------------------------------------
      1     -110.1769411494  -1.1137310E+02   1.0576182E-02
      2     -110.1781424842  -1.2013348E-03   5.8501566E-03
      3     -110.1781494446  -6.9603813E-06   3.2759848E-03
      4     -110.1782589815  -1.0953691E-04   1.4538838E-03
      5     -110.1784699156  -2.1093413E-04   4.9172403E-04
      6     -110.1784793684  -9.4527674E-06   2.6980562E-04
      7     -110.1784852473  -5.8789340E-06   1.2789729E-04
      8     -110.1784865482  -1.3009005E-06   6.8777507E-05
      9     -110.1784867860  -2.3772959E-07   3.3336819E-05
     10     -110.1784868129  -2.6909788E-08   1.4373248E-05
------------------------------------------------------------

 total:                                   0.441 sec
 * total energy  :  -110.1784868 Eh     change       -0.5331515E-01 Eh
   gradient norm :     0.1605624 Eh/α   predicted    -0.4338756E-01 ( -18.62%)
   displ. norm   :     0.4151677 α      lambda       -0.4004457E-01
   maximum displ.:     0.1381043 α      in ANC's #34, #36, #40, ...

........................................................................
.............................. CYCLE    3 ..............................
........................................................................
------------------------------------------------------------
  cycle        total energy    energy error   density error
------------------------------------------------------------
      1     -110.2002608063  -1.1144511E+02   8.3603068E-03
      2     -110.2018448649  -1.5840586E-03   5.3824604E-03
      3     -110.2020222348  -1.7736990E-04   3.0778777E-03
      4     -110.2018639015   1.5833327E-04   1.3920501E-03
      5     -110.2020909355  -2.2703398E-04   2.8933078E-04
      6     -110.2020951402  -4.2046975E-06   1.6890790E-04
      7     -110.2020960073  -8.6714948E-07   6.2137759E-05
      8     -110.2020961480  -1.4067372E-07   2.7948583E-05
      9     -110.2020961689  -2.0897517E-08   1.7756213E-05
------------------------------------------------------------

 total:                                   0.346 sec
 * total energy  :  -110.2020962 Eh     change       -0.2360936E-01 Eh
   gradient norm :     0.0324263 Eh/α   predicted    -0.2347343E-01 (  -0.58%)
   displ. norm   :     0.3815895 α      lambda       -0.5783068E-02
   maximum displ.:     0.1439325 α      in ANC's #34, #21, #33, ...

........................................................................
.............................. CYCLE    4 ..............................
........................................................................
------------------------------------------------------------
  cycle        total energy    energy error   density error
------------------------------------------------------------
      1     -110.2062697208  -1.1145958E+02   3.3244533E-03
      2     -110.2063000489  -3.0328069E-05   1.8701701E-03
      3     -110.2062706700   2.9378931E-05   6.6046254E-04
      4     -110.2062991604  -2.8490439E-05   3.2129509E-04
      5     -110.2063094344  -1.0274010E-05   1.0794976E-04
      6     -110.2063096823  -2.4786368E-07   6.3802616E-05
      7     -110.2063101386  -4.5633838E-07   2.6151043E-05
      8     -110.2063101632  -2.4632840E-08   1.5829389E-05
------------------------------------------------------------

 total:                                   0.270 sec
 * total energy  :  -110.2063102 Eh     change       -0.4213994E-02 Eh
   gradient norm :     0.0205683 Eh/α   predicted    -0.3312570E-02 ( -21.39%)
   displ. norm   :     0.4338443 α      lambda       -0.3279505E-02
   maximum displ.:     0.1855218 α      in ANC's #21, #8, #31, ...

........................................................................
.............................. CYCLE    5 ..............................
........................................................................
------------------------------------------------------------
  cycle        total energy    energy error   density error
------------------------------------------------------------
      1     -110.2084951435  -1.1146573E+02   2.9893584E-03
      2     -110.2085265374  -3.1393958E-05   1.6828311E-03
      3     -110.2085086986   1.7838856E-05   5.6736852E-04
      4     -110.2085250110  -1.6312424E-05   2.7906622E-04
      5     -110.2085334284  -8.4173478E-06   1.1627921E-04
      6     -110.2085338895  -4.6110135E-07   6.3662229E-05
      7     -110.2085343115  -4.2201538E-07   2.7061717E-05
      8     -110.2085343343  -2.2778565E-08   1.7967807E-05
------------------------------------------------------------

 total:                                   0.302 sec
 * total energy  :  -110.2085343 Eh     change       -0.2224171E-02 Eh
   gradient norm :     0.0126532 Eh/α   predicted    -0.1948388E-02 ( -12.40%)
   displ. norm   :     0.3596038 α      lambda       -0.1300669E-02
   maximum displ.:     0.1802181 α      in ANC's #8, #21, #4, ...

........................................................................
.............................. CYCLE    6 ..............................
........................................................................
------------------------------------------------------------
  cycle        total energy    energy error   density error
------------------------------------------------------------
      1     -110.2094921898  -1.1146961E+02   2.0833741E-03
      2     -110.2095049468  -1.2757009E-05   1.1705674E-03
      3     -110.2094924422   1.2504650E-05   4.4089330E-04
      4     -110.2095045377  -1.2095558E-05   1.9540181E-04
      5     -110.2095089732  -4.4354543E-06   7.4827988E-05
      6     -110.2095092663  -2.9313155E-07   4.0803473E-05
      7     -110.2095094055  -1.3918317E-07   1.7579160E-05
------------------------------------------------------------

 total:                                   0.272 sec
 * total energy  :  -110.2095094 Eh     change       -0.9750713E-03 Eh
   gradient norm :     0.0109417 Eh/α   predicted    -0.7344587E-03 ( -24.68%)
   displ. norm   :     0.4334111 α      lambda       -0.1097503E-02
   maximum displ.:     0.2518728 α      in ANC's #8, #21, #4, ...

........................................................................
.............................. CYCLE    7 ..............................
........................................................................
------------------------------------------------------------
  cycle        total energy    energy error   density error
------------------------------------------------------------
      1     -110.2103467917  -1.1147095E+02   2.4445047E-03
      2     -110.2103596801  -1.2888456E-05   1.3333347E-03
      3     -110.2103459790   1.3701111E-05   4.7887604E-04
      4     -110.2103602042  -1.4225205E-05   2.1197719E-04
      5     -110.2103642364  -4.0322088E-06   8.1460241E-05
      6     -110.2103644666  -2.3016814E-07   4.2311863E-05
      7     -110.2103646681  -2.0151654E-07   1.6960928E-05
------------------------------------------------------------

 total:                                   0.277 sec
 * total energy  :  -110.2103647 Eh     change       -0.8552626E-03 Eh
   gradient norm :     0.0107037 Eh/α   predicted    -0.6518360E-03 ( -23.79%)
   displ. norm   :     0.4643405 α      lambda       -0.9485801E-03
   maximum displ.:     0.2800620 α      in ANC's #8, #4, #21, ...

........................................................................
.............................. CYCLE    8 ..............................
........................................................................
------------------------------------------------------------
  cycle        total energy    energy error   density error
------------------------------------------------------------
      1     -110.2110922903  -1.1147100E+02   2.5190550E-03
      2     -110.2111056138  -1.3323516E-05   1.3805267E-03
      3     -110.2110929314   1.2682416E-05   4.7115957E-04
      4     -110.2111033558  -1.0424462E-05   2.4152191E-04
      5     -110.2111094857  -6.1299158E-06   8.4467197E-05
      6     -110.2111096759  -1.9011492E-07   4.8231414E-05
      7     -110.2111099834  -3.0759502E-07   1.4893636E-05
------------------------------------------------------------

 total:                                   0.403 sec
 * total energy  :  -110.2111100 Eh     change       -0.7453153E-03 Eh
   gradient norm :     0.0090310 Eh/α   predicted    -0.5765550E-03 ( -22.64%)
   displ. norm   :     0.4625684 α      lambda       -0.7541665E-03
   maximum displ.:     0.2941817 α      in ANC's #8, #4, #13, ...

........................................................................
.............................. CYCLE    9 ..............................
........................................................................
------------------------------------------------------------
  cycle        total energy    energy error   density error
------------------------------------------------------------
      1     -110.2116573516  -1.1147081E+02   2.3874520E-03
      2     -110.2116674728  -1.0121233E-05   1.3081354E-03
      3     -110.2116496598   1.7812958E-05   4.6574222E-04
      4     -110.2116636065  -1.3946701E-05   2.5506839E-04
      5     -110.2116711871  -7.5805148E-06   8.0677283E-05
      6     -110.2116714024  -2.1538936E-07   4.0780545E-05
      7     -110.2116716246  -2.2213362E-07   1.3310302E-05
------------------------------------------------------------

 total:                                   0.307 sec
 * total energy  :  -110.2116716 Eh     change       -0.5616411E-03 Eh
   gradient norm :     0.0081800 Eh/α   predicted    -0.4577725E-03 ( -18.49%)
   displ. norm   :     0.3699659 α      lambda       -0.4574519E-03
   maximum displ.:     0.2520393 α      in ANC's #8, #4, #9, ...

........................................................................
.............................. CYCLE   10 ..............................
........................................................................
------------------------------------------------------------
  cycle        total energy    energy error   density error
------------------------------------------------------------
      1     -110.2119842424  -1.1147275E+02   1.6493609E-03
      2     -110.2119912379  -6.9954869E-06   9.5622267E-04
      3     -110.2119791902   1.2047726E-05   3.6661768E-04
      4     -110.2119887483  -9.5581170E-06   1.8644043E-04
      5     -110.2119937038  -4.9555484E-06   5.2456644E-05
      6     -110.2119936961   7.7564550E-09   3.4755298E-05
      7     -110.2119938541  -1.5806052E-07   9.6924524E-06
------------------------------------------------------------

 total:                                   0.334 sec
 * total energy  :  -110.2119939 Eh     change       -0.3222295E-03 Eh
   gradient norm :     0.0078743 Eh/α   predicted    -0.2600428E-03 ( -19.30%)
   displ. norm   :     0.2925096 α      lambda       -0.2766670E-03
   maximum displ.:     0.2090947 α      in ANC's #8, #9, #13, ...

........................................................................
.............................. CYCLE   11 ..............................
........................................................................
------------------------------------------------------------
  cycle        total energy    energy error   density error
------------------------------------------------------------
      1     -110.2121749829  -1.1147337E+02   1.2940315E-03
      2     -110.2121774375  -2.4546024E-06   7.2967099E-04
      3     -110.2121659115   1.1525961E-05   3.1184141E-04
      4     -110.2121787462  -1.2834706E-05   1.0345291E-04
      5     -110.2121792582  -5.1192977E-07   4.4179776E-05
      6     -110.2121793532  -9.5047142E-08   2.4023796E-05
      7     -110.2121794315  -7.8328085E-08   8.6946068E-06
------------------------------------------------------------

 total:                                   0.300 sec
 * total energy  :  -110.2121794 Eh     change       -0.1855774E-03 Eh
   gradient norm :     0.0052982 Eh/α   predicted    -0.1501750E-03 ( -19.08%)
   displ. norm   :     0.2179679 α      lambda       -0.1901914E-03
   maximum displ.:     0.1572629 α      in ANC's #8, #13, #9, ...

........................................................................
.............................. CYCLE   12 ..............................
........................................................................
------------------------------------------------------------
  cycle        total energy    energy error   density error
------------------------------------------------------------
      1     -110.2123043134  -1.1147568E+02   8.3791665E-04
      2     -110.2123061358  -1.8224192E-06   4.9057417E-04
      3     -110.2122996557   6.4801777E-06   2.4827422E-04
      4     -110.2123068592  -7.2035845E-06   8.5243552E-05
      5     -110.2123077876  -9.2840071E-07   2.7348941E-05
      6     -110.2123077885  -9.0786045E-10   1.7327399E-05
------------------------------------------------------------

 total:                                   0.309 sec
 * total energy  :  -110.2123078 Eh     change       -0.1283570E-03 Eh
   gradient norm :     0.0048584 Eh/α   predicted    -0.9961422E-04 ( -22.39%)
   displ. norm   :     0.1949432 α      lambda       -0.1155957E-03
   maximum displ.:     0.1344914 α      in ANC's #8, #13, #9, ...

........................................................................
.............................. CYCLE   13 ..............................
........................................................................
------------------------------------------------------------
  cycle        total energy    energy error   density error
------------------------------------------------------------
      1     -110.2123857180  -1.1147496E+02   7.0388652E-04
      2     -110.2123863766  -6.5852514E-07   4.0174316E-04
      3     -110.2123786704   7.7061899E-06   2.5004010E-04
      4     -110.2123875353  -8.8649669E-06   7.1505686E-05
      5     -110.2123879974  -4.6203157E-07   2.7835820E-05
      6     -110.2123880258  -2.8464541E-08   1.5415871E-05
------------------------------------------------------------

 total:                                   0.224 sec
 * total energy  :  -110.2123880 Eh     change       -0.8023729E-04 Eh
   gradient norm :     0.0044565 Eh/α   predicted    -0.6000126E-04 ( -25.22%)
   displ. norm   :     0.1863347 α      lambda       -0.1087471E-03
   maximum displ.:     0.1230120 α      in ANC's #8, #3, #11, ...

........................................................................
.............................. CYCLE   14 ..............................
........................................................................
------------------------------------------------------------
  cycle        total energy    energy error   density error
------------------------------------------------------------
      1     -110.2124322486  -1.1147621E+02   8.1252221E-04
      2     -110.2124338424  -1.5938467E-06   4.5592547E-04
      3     -110.2124280212   5.8212588E-06   2.3777957E-04
      4     -110.2124337445  -5.7233837E-06   9.8034934E-05
      5     -110.2124350162  -1.2716728E-06   2.7697360E-05
      6     -110.2124350292  -1.3015082E-08   1.5165107E-05
------------------------------------------------------------

 total:                                   0.231 sec
 * total energy  :  -110.2124350 Eh     change       -0.4700339E-04 Eh
   gradient norm :     0.0040144 Eh/α   predicted    -0.5626343E-04 (  19.70%)
   displ. norm   :     0.1054776 α      lambda       -0.5941805E-04
   maximum displ.:     0.0529930 α      in ANC's #8, #13, #11, ...

........................................................................
.............................. CYCLE   15 ..............................
........................................................................
------------------------------------------------------------
  cycle        total energy    energy error   density error
------------------------------------------------------------
      1     -110.2124690682  -1.1147469E+02   4.4791714E-04
      2     -110.2124693843  -3.1605127E-07   2.5988106E-04
      3     -110.2124663174   3.0668205E-06   1.5971008E-04
      4     -110.2124698528  -3.5353417E-06   3.6272455E-05
      5     -110.2124699227  -6.9906648E-08   1.9543571E-05
------------------------------------------------------------

 total:                                   0.191 sec
 * total energy  :  -110.2124699 Eh     change       -0.3489345E-04 Eh
   gradient norm :     0.0028688 Eh/α   predicted    -0.3004500E-04 ( -13.90%)
   displ. norm   :     0.0590917 α      lambda       -0.3312780E-04
   maximum displ.:     0.0263638 α      in ANC's #14, #11, #17, ...

........................................................................
.............................. CYCLE   16 ..............................
........................................................................
------------------------------------------------------------
  cycle        total energy    energy error   density error
------------------------------------------------------------
      1     -110.2124959433  -1.1147441E+02   3.8969898E-04
      2     -110.2124961617  -2.1845510E-07   2.3398019E-04
      3     -110.2124934705   2.6911918E-06   1.6158712E-04
      4     -110.2124969098  -3.4392517E-06   3.2821493E-05
      5     -110.2124970116  -1.0184193E-07   1.5837790E-05
------------------------------------------------------------

 total:                                   0.175 sec
 * total energy  :  -110.2124970 Eh     change       -0.2708893E-04 Eh
   gradient norm :     0.0024339 Eh/α   predicted    -0.1662327E-04 ( -38.63%)
   displ. norm   :     0.1489709 α      lambda       -0.6088315E-04
   maximum displ.:     0.0662603 α      in ANC's #14, #11, #17, ...

........................................................................
.............................. CYCLE   17 ..............................
........................................................................
------------------------------------------------------------
  cycle        total energy    energy error   density error
------------------------------------------------------------
      1     -110.2125338589  -1.1147436E+02   9.2716326E-04
      2     -110.2125346922  -8.3329360E-07   5.3261901E-04
      3     -110.2125238816   1.0810575E-05   2.8184116E-04
      4     -110.2125359432  -1.2061630E-05   6.5891606E-05
      5     -110.2125362645  -3.2126712E-07   3.2133640E-05
      6     -110.2125363696  -1.0516459E-07   1.1059057E-05
------------------------------------------------------------

 total:                                   0.212 sec
 * total energy  :  -110.2125364 Eh     change       -0.3935803E-04 Eh
   gradient norm :     0.0028960 Eh/α   predicted    -0.3111790E-04 ( -20.94%)
   displ. norm   :     0.1125390 α      lambda       -0.2724638E-04
   maximum displ.:     0.0412007 α      in ANC's #11, #3, #14, ...

........................................................................
.............................. CYCLE   18 ..............................
........................................................................
------------------------------------------------------------
  cycle        total energy    energy error   density error
------------------------------------------------------------
      1     -110.2125542240  -1.1147412E+02   6.2144764E-04
      2     -110.2125545398  -3.1572833E-07   3.5299953E-04
      3     -110.2125523236   2.2161427E-06   1.2966062E-04
      4     -110.2125546500  -2.3263709E-06   4.5240539E-05
      5     -110.2125548022  -1.5222378E-07   1.6579204E-05
------------------------------------------------------------

 total:                                   0.194 sec
 * total energy  :  -110.2125548 Eh     change       -0.1843256E-04 Eh
   gradient norm :     0.0029763 Eh/α   predicted    -0.1379652E-04 ( -25.15%)
   displ. norm   :     0.1534714 α      lambda       -0.3591987E-04
   maximum displ.:     0.0561982 α      in ANC's #3, #14, #6, ...

........................................................................
.............................. CYCLE   19 ..............................
........................................................................
------------------------------------------------------------
  cycle        total energy    energy error   density error
------------------------------------------------------------
      1     -110.2125700757  -1.1147490E+02   8.5598691E-04
      2     -110.2125710203  -9.4461079E-07   4.8319436E-04
      3     -110.2125661886   4.8316552E-06   1.9862035E-04
      4     -110.2125715107  -5.3220529E-06   6.5015013E-05
      5     -110.2125717328  -2.2211523E-07   3.3029349E-05
      6     -110.2125718558  -1.2302375E-07   1.2120923E-05
------------------------------------------------------------

 total:                                   0.282 sec
 * total energy  :  -110.2125719 Eh     change       -0.1705363E-04 Eh
   gradient norm :     0.0021724 Eh/α   predicted    -0.1838554E-04 (   7.81%)
   displ. norm   :     0.0534706 α      lambda       -0.1786383E-04
   maximum displ.:     0.0213005 α      in ANC's #3, #2, #15, ...

........................................................................
.............................. CYCLE   20 ..............................
........................................................................
------------------------------------------------------------
  cycle        total energy    energy error   density error
------------------------------------------------------------
      1     -110.2125824777  -1.1147515E+02   2.7446904E-04
      2     -110.2125825537  -7.5949728E-08   1.5252079E-04
      3     -110.2125810634   1.4902773E-06   1.1731550E-04
      4     -110.2125829684  -1.9049708E-06   2.5111017E-05
      5     -110.2125829910  -2.2647498E-08   1.3802689E-05
------------------------------------------------------------

 total:                                   0.233 sec
 * total energy  :  -110.2125830 Eh     change       -0.1113518E-04 Eh
   gradient norm :     0.0014042 Eh/α   predicted    -0.8960212E-05 ( -19.53%)
   displ. norm   :     0.0553969 α      lambda       -0.1020077E-04
   maximum displ.:     0.0221351 α      in ANC's #2, #15, #14, ...
 * RMSD in coord.:     0.4931787 α      energy gain  -0.8741128E-01 Eh

generating ANC from exact Hessian ...
Using Lindh-Hessian (1995)
 Shifting diagonal of input Hessian by    9.8157197844763993E-003
 Lowest  eigenvalues of input Hessian
    0.000000    0.000000    0.000000    0.000000    0.000000    0.000000
    0.010000    0.010072    0.010157    0.010221    0.010467    0.010744
    0.010813    0.011008    0.011657    0.011867    0.013494    0.013684
 Highest eigenvalues
    2.119191    2.199287    2.208549    2.637245    2.659574    2.668341


........................................................................
.............................. CYCLE   21 ..............................
........................................................................
------------------------------------------------------------
  cycle        total energy    energy error   density error
------------------------------------------------------------
      1     -110.2125909693  -1.1147529E+02   3.4055851E-04
      2     -110.2125913133  -3.4391897E-07   1.8696154E-04
      3     -110.2125901735   1.1397341E-06   1.0256247E-04
      4     -110.2125916306  -1.4571183E-06   3.0390098E-05
      5     -110.2125916812  -5.0597677E-08   1.4736233E-05
------------------------------------------------------------

 total:                                   0.168 sec
 * total energy  :  -110.2125917 Eh     change       -0.8690231E-05 Eh
   gradient norm :     0.0017530 Eh/α   predicted     0.0000000E+00 (-100.00%)
   displ. norm   :     0.0244849 α      lambda       -0.5776383E-05
   maximum displ.:     0.0097015 α      in ANC's #2, #4, #21, ...

........................................................................
.............................. CYCLE   22 ..............................
........................................................................
------------------------------------------------------------
  cycle        total energy    energy error   density error
------------------------------------------------------------
      1     -110.2125992948  -1.1147529E+02   1.8907047E-04
      2     -110.2125993808  -8.5984823E-08   1.0516881E-04
      3     -110.2125989247   4.5609940E-07   7.4188895E-05
      4     -110.2125996270  -7.0229109E-07   2.0682768E-05
      5     -110.2125996485  -2.1529416E-08   1.0435850E-05
------------------------------------------------------------

 total:                                   0.203 sec
 * total energy  :  -110.2125996 Eh     change       -0.7967299E-05 Eh
   gradient norm :     0.0005898 Eh/α   predicted    -0.3726106E-05 ( -53.23%)
   displ. norm   :     0.0518843 α      lambda       -0.7232971E-05
   maximum displ.:     0.0219184 α      in ANC's #2, #4, #6, ...

........................................................................
.............................. CYCLE   23 ..............................
........................................................................
------------------------------------------------------------
  cycle        total energy    energy error   density error
------------------------------------------------------------
      1     -110.2126071165  -1.1147518E+02   3.0202663E-04
      2     -110.2126073242  -2.0771550E-07   1.6095759E-04
      3     -110.2126063792   9.4500132E-07   9.7775311E-05
      4     -110.2126075135  -1.1343489E-06   3.4515378E-05
      5     -110.2126076023  -8.8776346E-08   1.7246443E-05
------------------------------------------------------------

 total:                                   0.171 sec
 * total energy  :  -110.2126076 Eh     change       -0.7953778E-05 Eh
   gradient norm :     0.0009361 Eh/α   predicted    -0.3621075E-05 ( -54.47%)
   displ. norm   :     0.0794081 α      lambda       -0.7144692E-05
   maximum displ.:     0.0345349 α      in ANC's #2, #6, #4, ...

........................................................................
.............................. CYCLE   24 ..............................
........................................................................
------------------------------------------------------------
  cycle        total energy    energy error   density error
------------------------------------------------------------
      1     -110.2126148641  -1.1147511E+02   4.3393821E-04
      2     -110.2126151518  -2.8775979E-07   2.2830332E-04
      3     -110.2126129132   2.2385829E-06   1.4608696E-04
      4     -110.2126156623  -2.7490998E-06   4.4532237E-05
      5     -110.2126157458  -8.3434045E-08   2.4418817E-05
      6     -110.2126157985  -5.2707875E-08   8.1887241E-06
------------------------------------------------------------

 total:                                   0.234 sec
 * total energy  :  -110.2126158 Eh     change       -0.8196165E-05 Eh
   gradient norm :     0.0014100 Eh/α   predicted    -0.3586294E-05 ( -56.24%)
   displ. norm   :     0.1041651 α      lambda       -0.7581432E-05
   maximum displ.:     0.0467956 α      in ANC's #2, #6, #4, ...

........................................................................
.............................. CYCLE   25 ..............................
........................................................................
------------------------------------------------------------
  cycle        total energy    energy error   density error
------------------------------------------------------------
      1     -110.2126238150  -1.1147508E+02   5.2503839E-04
      2     -110.2126241945  -3.7951371E-07   2.7325079E-04
      3     -110.2126236034   5.9115591E-07   8.9814944E-05
      4     -110.2126241005  -4.9708733E-07   5.3763209E-05
      5     -110.2126243499  -2.4942833E-07   1.8001874E-05
------------------------------------------------------------

 total:                                   0.190 sec
 * total energy  :  -110.2126243 Eh     change       -0.8551390E-05 Eh
   gradient norm :     0.0012092 Eh/α   predicted    -0.3821543E-05 ( -55.31%)
   displ. norm   :     0.0950500 α      lambda       -0.5991033E-05
   maximum displ.:     0.0453789 α      in ANC's #2, #6, #4, ...

........................................................................
.............................. CYCLE   26 ..............................
........................................................................
------------------------------------------------------------
  cycle        total energy    energy error   density error
------------------------------------------------------------
      1     -110.2126303934  -1.1147517E+02   4.7092828E-04
      2     -110.2126306669  -2.7345921E-07   2.4710834E-04
      3     -110.2126282083   2.4585604E-06   1.3896125E-04
      4     -110.2126310458  -2.8374900E-06   4.5642361E-05
      5     -110.2126311177  -7.1830641E-08   2.1512129E-05
      6     -110.2126311490  -3.1316944E-08   7.1158936E-06
------------------------------------------------------------

 total:                                   0.200 sec
 * total energy  :  -110.2126311 Eh     change       -0.6799091E-05 Eh
   gradient norm :     0.0005497 Eh/α   predicted    -0.3019781E-05 ( -55.59%)
   displ. norm   :     0.0752909 α      lambda       -0.4288731E-05
   maximum displ.:     0.0393085 α      in ANC's #6, #2, #4, ...

........................................................................
.............................. CYCLE   27 ..............................
........................................................................
------------------------------------------------------------
  cycle        total energy    energy error   density error
------------------------------------------------------------
      1     -110.2126358454  -1.1147528E+02   3.5489384E-04
      2     -110.2126360220  -1.7658164E-07   1.8224047E-04
      3     -110.2126359935   2.8449350E-08   4.5104740E-05
      4     -110.2126359529   4.0589100E-08   3.2907017E-05
      5     -110.2126360659  -1.1294721E-07   1.1220770E-05
------------------------------------------------------------

 total:                                   0.171 sec
 * total energy  :  -110.2126361 Eh     change       -0.4916918E-05 Eh
   gradient norm :     0.0004268 Eh/α   predicted    -0.2154276E-05 ( -56.19%)
   displ. norm   :     0.0626673 α      lambda       -0.3384529E-05
   maximum displ.:     0.0354289 α      in ANC's #6, #2, #4, ...

........................................................................
.............................. CYCLE   28 ..............................
........................................................................
------------------------------------------------------------
  cycle        total energy    energy error   density error
------------------------------------------------------------
      1     -110.2126397724  -1.1147534E+02   3.0707328E-04
      2     -110.2126398467  -7.4289886E-08   1.6023165E-04
      3     -110.2126384617   1.3849929E-06   1.0369800E-04
      4     -110.2126400924  -1.6307162E-06   2.8137407E-05
      5     -110.2126401089  -1.6493132E-08   1.0968151E-05
------------------------------------------------------------

 total:                                   0.177 sec
 * total energy  :  -110.2126401 Eh     change       -0.4042995E-05 Eh
   gradient norm :     0.0006911 Eh/α   predicted    -0.1698879E-05 ( -57.98%)
   displ. norm   :     0.0643883 α      lambda       -0.3280325E-05
   maximum displ.:     0.0374238 α      in ANC's #6, #2, #4, ...

........................................................................
.............................. CYCLE   29 ..............................
........................................................................
------------------------------------------------------------
  cycle        total energy    energy error   density error
------------------------------------------------------------
      1     -110.2126437524  -1.1147532E+02   3.2632091E-04
      2     -110.2126439342  -1.8178022E-07   1.7108637E-04
      3     -110.2126432402   6.9397980E-07   8.3802497E-05
      4     -110.2126440493  -8.0913384E-07   3.2394056E-05
      5     -110.2126440841  -3.4836546E-08   1.7300426E-05
------------------------------------------------------------

 total:                                   0.188 sec
 * total energy  :  -110.2126441 Eh     change       -0.3975266E-05 Eh
   gradient norm :     0.0006806 Eh/α   predicted    -0.1647430E-05 ( -58.56%)
   displ. norm   :     0.0775278 α      lambda       -0.3508992E-05
   maximum displ.:     0.0452162 α      in ANC's #6, #2, #4, ...

........................................................................
.............................. CYCLE   30 ..............................
........................................................................
------------------------------------------------------------
  cycle        total energy    energy error   density error
------------------------------------------------------------
      1     -110.2126476173  -1.1147524E+02   4.1714386E-04
      2     -110.2126478130  -1.9572512E-07   2.2210236E-04
      3     -110.2126449966   2.8164554E-06   1.5003438E-04
      4     -110.2126484050  -3.4084839E-06   4.0580606E-05
      5     -110.2126484517  -4.6689678E-08   2.1466388E-05
      6     -110.2126484866  -3.4851055E-08   8.0679784E-06
------------------------------------------------------------

 total:                                   0.348 sec
 * total energy  :  -110.2126485 Eh     change       -0.4402432E-05 Eh
   gradient norm :     0.0005114 Eh/α   predicted    -0.1762190E-05 ( -59.97%)
   displ. norm   :     0.0982068 α      lambda       -0.4079208E-05
   maximum displ.:     0.0574277 α      in ANC's #6, #2, #4, ...

........................................................................
.............................. CYCLE   31 ..............................
........................................................................
------------------------------------------------------------
  cycle        total energy    energy error   density error
------------------------------------------------------------
      1     -110.2126528879  -1.1147513E+02   5.3987714E-04
      2     -110.2126534302  -5.4226511E-07   2.7856400E-04
      3     -110.2126533280   1.0212119E-07   7.4081633E-05
      4     -110.2126533309  -2.8693563E-09   5.0190470E-05
      5     -110.2126535316  -2.0073628E-07   2.0673623E-05
      6     -110.2126535560  -2.4323967E-08   9.7055146E-06
------------------------------------------------------------

 total:                                   0.217 sec
 * total energy  :  -110.2126536 Eh     change       -0.5069384E-05 Eh
   gradient norm :     0.0004697 Eh/α   predicted    -0.2056772E-05 ( -59.43%)
   displ. norm   :     0.1322512 α      lambda       -0.4910084E-05
   maximum displ.:     0.0772520 α      in ANC's #6, #2, #4, ...

........................................................................
.............................. CYCLE   32 ..............................
........................................................................
------------------------------------------------------------
  cycle        total energy    energy error   density error
------------------------------------------------------------
      1     -110.2126579737  -1.1147501E+02   7.4425527E-04
      2     -110.2126589452  -9.7152916E-07   3.8023462E-04
      3     -110.2126572693   1.6759518E-06   1.3662573E-04
      4     -110.2126586898  -1.4205277E-06   8.2437531E-05
      5     -110.2126593754  -6.8560772E-07   2.7244137E-05
      6     -110.2126593879  -1.2503321E-08   1.2920759E-05
------------------------------------------------------------

 total:                                   0.222 sec
 * total energy  :  -110.2126594 Eh     change       -0.5831938E-05 Eh
   gradient norm :     0.0006482 Eh/α   predicted    -0.2476010E-05 ( -57.54%)
   displ. norm   :     0.1466934 α      lambda       -0.4544447E-05
   maximum displ.:     0.0860774 α      in ANC's #6, #2, #4, ...

........................................................................
.............................. CYCLE   33 ..............................
........................................................................
------------------------------------------------------------
  cycle        total energy    energy error   density error
------------------------------------------------------------
      1     -110.2126627163  -1.1147493E+02   8.2876041E-04
      2     -110.2126639751  -1.2588771E-06   4.1712341E-04
      3     -110.2126629290   1.0461156E-06   1.3665043E-04
      4     -110.2126637903  -8.6131273E-07   8.5186016E-05
      5     -110.2126643724  -5.8203791E-07   3.2942712E-05
      6     -110.2126644164  -4.4083833E-08   1.7104511E-05
------------------------------------------------------------

 total:                                   0.209 sec
 * total energy  :  -110.2126644 Eh     change       -0.5028544E-05 Eh
   gradient norm :     0.0007388 Eh/α   predicted    -0.2298781E-05 ( -54.29%)
   displ. norm   :     0.1142513 α      lambda       -0.3011666E-05
   maximum displ.:     0.0677753 α      in ANC's #6, #2, #4, ...

........................................................................
.............................. CYCLE   34 ..............................
........................................................................
------------------------------------------------------------
  cycle        total energy    energy error   density error
------------------------------------------------------------
      1     -110.2126661580  -1.1147501E+02   6.4659297E-04
      2     -110.2126667181  -5.6003256E-07   3.2692241E-04
      3     -110.2126620918   4.6263269E-06   1.8894237E-04
      4     -110.2126675508  -5.4590509E-06   6.1658239E-05
      5     -110.2126676694  -1.1862565E-07   2.8476101E-05
      6     -110.2126677170  -4.7615444E-08   1.3289863E-05
------------------------------------------------------------

 total:                                   0.296 sec
 * total energy  :  -110.2126677 Eh     change       -0.3300598E-05 Eh
   gradient norm :     0.0005506 Eh/α   predicted    -0.1517122E-05 ( -54.03%)
   displ. norm   :     0.0759952 α      lambda       -0.1921538E-05
   maximum displ.:     0.0456622 α      in ANC's #6, #2, #4, ...

........................................................................
.............................. CYCLE   35 ..............................
........................................................................
------------------------------------------------------------
  cycle        total energy    energy error   density error
------------------------------------------------------------
      1     -110.2126691687  -1.1147516E+02   4.2774638E-04
      2     -110.2126694631  -2.9440213E-07   2.1154763E-04
      3     -110.2126682862   1.1769679E-06   1.0875050E-04
      4     -110.2126697160  -1.4298681E-06   3.9853151E-05
      5     -110.2126697370  -2.0938089E-08   2.1608356E-05
      6     -110.2126697889  -5.1955425E-08   8.2746314E-06
------------------------------------------------------------

 total:                                   0.260 sec
 * total energy  :  -110.2126698 Eh     change       -0.2071883E-05 Eh
   gradient norm :     0.0002830 Eh/α   predicted    -0.9636285E-06 ( -53.49%)
   displ. norm   :     0.0551083 α      lambda       -0.1172162E-05
   maximum displ.:     0.0335569 α      in ANC's #6, #2, #4, ...

........................................................................
.............................. CYCLE   36 ..............................
........................................................................
------------------------------------------------------------
  cycle        total energy    energy error   density error
------------------------------------------------------------
      1     -110.2126707764  -1.1147523E+02   3.1745198E-04
      2     -110.2126709043  -1.2788750E-07   1.5954669E-04
      3     -110.2126701210   7.8326433E-07   7.9547037E-05
      4     -110.2126710375  -9.1655201E-07   2.8400386E-05
      5     -110.2126710521  -1.4518747E-08   1.2120070E-05
------------------------------------------------------------

 total:                                   0.171 sec
 * total energy  :  -110.2126711 Eh     change       -0.1263133E-05 Eh
   gradient norm :     0.0002424 Eh/α   predicted    -0.5874222E-06 ( -53.49%)
   displ. norm   :     0.0362973 α      lambda       -0.8415212E-06
   maximum displ.:     0.0213737 α      in ANC's #6, #2, #12, ...

........................................................................
.............................. CYCLE   37 ..............................
........................................................................
------------------------------------------------------------
  cycle        total energy    energy error   density error
------------------------------------------------------------
      1     -110.2126717474  -1.1147528E+02   2.1674258E-04
      2     -110.2126718292  -8.1876394E-08   1.1706425E-04
      3     -110.2126711521   6.7708260E-07   7.6586890E-05
      4     -110.2126720225  -8.7035060E-07   1.9790043E-05
------------------------------------------------------------

 total:                                   0.159 sec
 * total energy  :  -110.2126720 Eh     change       -0.9704363E-06 Eh
   gradient norm :     0.0002828 Eh/α   predicted    -0.4249631E-06 ( -56.21%)
   displ. norm   :     0.0351450 α      lambda       -0.7449218E-06
   maximum displ.:     0.0212962 α      in ANC's #6, #12, #2, ...

   *** GEOMETRY OPTIMIZATION CONVERGED AFTER 37 ITERATIONS ***

------------------------------------------------------------------------
 total energy gain   :        -0.0875003 Eh      -54.9073 kcal/mol
 total RMSD          :         0.5321342 a0        0.2816 Å
 total power (kW/mol):        -6.2089737 (step)  -25.4092 (real)
------------------------------------------------------------------------

 ANCopt (total)                0 d,  0 h,  0 min,  9.041 sec
 optimizer setup                ...        0 min,  0.001 sec (  0.011%)
 model hessian                  ...        0 min,  0.022 sec (  0.245%)
 ANC generation                 ...        0 min,  0.015 sec (  0.171%)
 coordinate transformation      ...        0 min,  0.001 sec (  0.006%)
 single point calculation       ...        0 min,  8.989 sec ( 99.425%)
 optimization log               ...        0 min,  0.005 sec (  0.057%)
 hessian update                 ...        0 min,  0.002 sec (  0.024%)
 rational function              ...        0 min,  0.004 sec (  0.039%)

================
 final structure:
================
 xtb: 6.7.1 (edcfbbe)
          03042512263D

 58 62  0     0  0            999 V2000
   -2.0933    1.5298   -2.6752 C   0  0  0  0  0  0  0  0  0  0  0  0
   -1.8735    0.6810   -1.6087 C   0  0  0  0  0  0  0  0  0  0  0  0
   -1.0442    1.1124   -0.5393 C   0  0  0  0  0  0  0  0  0  0  0  0
   -0.2451    2.2875   -0.7159 C   0  0  0  0  0  0  0  0  0  0  0  0
   -0.5190    3.1441   -1.8094 C   0  0  0  0  0  0  0  0  0  0  0  0
   -1.4515    2.7715   -2.7284 C   0  0  0  0  0  0  0  0  0  0  0  0
   -0.8744    0.4017    0.6874 C   0  0  0  0  0  0  0  0  0  0  0  0
    0.3193    0.6361    1.3881 C   0  0  0  0  0  0  0  0  0  0  0  0
    1.1391    1.7483    1.0320 C   0  0  0  0  0  0  0  0  0  0  0  0
    0.7814    2.6006    0.0753 N   0  0  0  0  0  0  0  0  0  0  0  0
   -1.7920   -0.5184    1.2802 C   0  0  0  0  0  0  0  0  0  0  0  0
   -1.2556   -1.4266    2.2492 C   0  0  0  0  0  0  0  0  0  0  0  0
   -0.0339   -1.3021    2.7719 N   0  0  0  0  0  0  0  0  0  0  0  0
    0.6978   -0.2405    2.4488 C   0  0  0  0  0  0  0  0  0  0  0  0
    1.9148    0.0089    3.1217 C   0  0  0  0  0  0  0  0  0  0  0  0
    2.6844    1.0982    2.7731 C   0  0  0  0  0  0  0  0  0  0  0  0
    2.3248    1.9728    1.7665 C   0  0  0  0  0  0  0  0  0  0  0  0
   -3.1917   -0.5187    1.0455 C   0  0  0  0  0  0  0  0  0  0  0  0
   -3.9566   -1.5514    1.5516 C   0  0  0  0  0  0  0  0  0  0  0  0
   -3.3729   -2.5432    2.3403 C   0  0  0  0  0  0  0  0  0  0  0  0
   -2.0670   -2.4824    2.7289 C   0  0  0  0  0  0  0  0  0  0  0  0
   -3.7030    0.5522    0.3916 O   0  0  0  0  0  0  0  0  0  0  0  0
   -2.3391   -0.5908   -1.5398 O   0  0  0  0  0  0  0  0  0  0  0  0
   -1.9139    3.8797   -4.1141 S   0  0  0  0  0  0  0  0  0  0  0  0
   -4.4269   -3.9398    2.9011 S   0  0  0  0  0  0  0  0  0  0  0  0
    0.0371    4.0611   -1.9192 H   0  0  0  0  0  0  0  0  0  0  0  0
   -2.7554    1.2665   -3.4843 H   0  0  0  0  0  0  0  0  0  0  0  0
    2.9422    2.8201    1.5150 H   0  0  0  0  0  0  0  0  0  0  0  0
    2.2324   -0.6491    3.9158 H   0  0  0  0  0  0  0  0  0  0  0  0
   -1.6383   -3.1954    3.4132 H   0  0  0  0  0  0  0  0  0  0  0  0
   -5.0170   -1.6301    1.3688 H   0  0  0  0  0  0  0  0  0  0  0  0
   -1.0562    5.0338   -3.9557 O   0  0  0  0  0  0  0  0  0  0  0  0
   -3.4250    4.2632   -3.4932 O   0  0  0  0  0  0  0  0  0  0  0  0
   -3.4378    5.1401   -2.3967 C   0  0  0  0  0  0  0  0  0  0  0  0
    4.2779    1.3998    3.6497 S   0  0  0  0  0  0  0  0  0  0  0  0
    4.3137    0.3714    4.6686 O   0  0  0  0  0  0  0  0  0  0  0  0
    5.2564    0.9082    2.3863 O   0  0  0  0  0  0  0  0  0  0  0  0
    5.3403   -0.4745    2.1574 C   0  0  0  0  0  0  0  0  0  0  0  0
   -5.7143   -3.6509    2.2953 O   0  0  0  0  0  0  0  0  0  0  0  0
   -3.6702   -5.1045    1.9719 O   0  0  0  0  0  0  0  0  0  0  0  0
   -3.8719   -5.0274    0.5856 C   0  0  0  0  0  0  0  0  0  0  0  0
   -5.0974    0.6288    0.2099 C   0  0  0  0  0  0  0  0  0  0  0  0
   -3.1255   -1.0810   -2.5988 C   0  0  0  0  0  0  0  0  0  0  0  0
   -3.7352   -6.0276    0.1770 H   0  0  0  0  0  0  0  0  0  0  0  0
   -3.1535   -4.3387    0.1282 H   0  0  0  0  0  0  0  0  0  0  0  0
   -4.8911   -4.6850    0.3756 H   0  0  0  0  0  0  0  0  0  0  0  0
    6.3175   -0.6777    1.7217 H   0  0  0  0  0  0  0  0  0  0  0  0
    4.5527   -0.8014    1.4711 H   0  0  0  0  0  0  0  0  0  0  0  0
    5.2440   -1.0158    3.1046 H   0  0  0  0  0  0  0  0  0  0  0  0
   -3.3789   -2.1048   -2.3264 H   0  0  0  0  0  0  0  0  0  0  0  0
   -2.5694   -1.0846   -3.5416 H   0  0  0  0  0  0  0  0  0  0  0  0
   -4.0447   -0.4999   -2.7217 H   0  0  0  0  0  0  0  0  0  0  0  0
   -5.2724    1.5663   -0.3162 H   0  0  0  0  0  0  0  0  0  0  0  0
   -5.6247    0.6450    1.1684 H   0  0  0  0  0  0  0  0  0  0  0  0
   -5.4722   -0.2031   -0.3941 H   0  0  0  0  0  0  0  0  0  0  0  0
   -4.3847    5.6780   -2.4155 H   0  0  0  0  0  0  0  0  0  0  0  0
   -2.6119    5.8540   -2.4806 H   0  0  0  0  0  0  0  0  0  0  0  0
   -3.3418    4.5864   -1.4569 H   0  0  0  0  0  0  0  0  0  0  0  0
  1  2  2  0  0  0  0
  1  6  1  0  0  0  0
  1 27  1  0  0  0  0
  2  3  1  0  0  0  0
  2 23  1  0  0  0  0
  3  4  2  0  0  0  0
  3  7  1  0  0  0  0
  4  5  1  0  0  0  0
  4 10  1  0  0  0  0
  5  6  2  0  0  0  0
  5 26  1  0  0  0  0
  6 24  1  0  0  0  0
  7  8  2  0  0  0  0
  7 11  1  0  0  0  0
  8  9  1  0  0  0  0
  8 14  1  0  0  0  0
  9 10  1  0  0  0  0
  9 17  2  0  0  0  0
 11 12  2  0  0  0  0
 11 18  1  0  0  0  0
 12 13  1  0  0  0  0
 12 21  1  0  0  0  0
 13 14  2  0  0  0  0
 14 15  1  0  0  0  0
 15 16  2  0  0  0  0
 15 29  1  0  0  0  0
 16 17  1  0  0  0  0
 16 35  1  0  0  0  0
 17 28  1  0  0  0  0
 18 19  2  0  0  0  0
 18 22  1  0  0  0  0
 19 20  1  0  0  0  0
 19 31  1  0  0  0  0
 20 21  2  0  0  0  0
 20 25  1  0  0  0  0
 21 30  1  0  0  0  0
 22 42  1  0  0  0  0
 23 43  1  0  0  0  0
 24 32  2  0  0  0  0
 24 33  1  0  0  0  0
 25 39  2  0  0  0  0
 25 40  1  0  0  0  0
 33 34  1  0  0  0  0
 34 56  1  0  0  0  0
 34 57  1  0  0  0  0
 34 58  1  0  0  0  0
 35 36  2  0  0  0  0
 35 37  1  0  0  0  0
 37 38  1  0  0  0  0
 38 47  1  0  0  0  0
 38 48  1  0  0  0  0
 38 49  1  0  0  0  0
 40 41  1  0  0  0  0
 41 44  1  0  0  0  0
 41 45  1  0  0  0  0
 41 46  1  0  0  0  0
 42 53  1  0  0  0  0
 42 54  1  0  0  0  0
 42 55  1  0  0  0  0
 43 50  1  0  0  0  0
 43 51  1  0  0  0  0
 43 52  1  0  0  0  0
M  END

 Bond Distances (Angstroems)
 ---------------------------
C1-C2=1.3807         C1-C6=1.3988         C1-H27=1.0781        C2-C1=1.3807         C2-C3=1.4204         C2-O23=1.3561        
C3-C2=1.4204         C3-C4=1.4320         C3-C7=1.4278         C4-C3=1.4320         C4-C5=1.4158         C4-N10=1.3333        
C5-C4=1.4158         C5-C6=1.3612         C5-H26=1.0780        C6-C1=1.3988         C6-C5=1.3612         C6-S24=1.8336        
C7-C3=1.4278         C7-C8=1.4039         C7-C11=1.4283        C8-C7=1.4039         C8-C9=1.4269         C8-C14=1.4271        
C9-C8=1.4269         C9-N10=1.3303        C9-C17=1.4127        N10-C4=1.3333        N10-C9=1.3303        C11-C7=1.4283        
C11-C12=1.4323       C11-C18=1.4193       C12-C11=1.4323       C12-N13=1.3346       C12-C21=1.4154       N13-C12=1.3346       
N13-C14=1.3292       C14-C8=1.4271        C14-N13=1.3292       C14-C15=1.4129       C15-C14=1.4129       C15-C16=1.3785       
C15-H29=1.0791       C16-C15=1.3785       C16-C17=1.3811       C16-S35=1.8435       C17-C9=1.4127        C17-C16=1.3811       
C17-H28=1.0781       C18-C11=1.4193       C18-C19=1.3812       C18-O22=1.3549       C19-C18=1.3812       C19-C20=1.3951       
C19-H31=1.0789       C20-C19=1.3951       C20-C21=1.3639       C20-S25=1.8373       C21-C12=1.4154       C21-C20=1.3639       
C21-H30=1.0772       O22-C18=1.3549       O22-C42=1.4083       O23-C2=1.3561        O23-C43=1.4072       S24-C6=1.8336        
S24-O32=1.4467       S24-O33=1.6781       S25-C20=1.8373       S25-O39=1.4518       S25-O40=1.6710       H26-C5=1.0780        
H27-C1=1.0781        H28-C17=1.0781       H29-C15=1.0791       H30-C21=1.0772       H31-C19=1.0789       O32-S24=1.4467       
O33-S24=1.6781       O33-C34=1.4041       C34-O33=1.4041       C34-H56=1.0891       C34-H57=1.0949       C34-H58=1.0949       
S35-C16=1.8435       S35-O36=1.4482       S35-O37=1.6720       O36-S35=1.4482       O37-S35=1.6720       O37-C38=1.4041       
C38-O37=1.4041       C38-H47=1.0891       C38-H48=1.0947       C38-H49=1.0952       O39-S25=1.4518       O40-S25=1.6710       
O40-C41=1.4030       C41-O40=1.4030       C41-H44=1.0891       C41-H45=1.0953       C41-H46=1.0955       C42-O22=1.4083       
C42-H53=1.0892       C42-H54=1.0941       C42-H55=1.0942       C43-O23=1.4072       C43-H50=1.0893       C43-H51=1.0946       
C43-H52=1.0943       H44-C41=1.0891       H45-C41=1.0953       H46-C41=1.0955       H47-C38=1.0891       H48-C38=1.0947       
H49-C38=1.0952       H50-C43=1.0893       H51-C43=1.0946       H52-C43=1.0943       H53-C42=1.0892       H54-C42=1.0941       
H55-C42=1.0942       H56-C34=1.0891       H57-C34=1.0949       H58-C34=1.0949       
 C  H  Rav=1.0887 sigma=0.0070  Rmin=1.0772  Rmax=1.0955    21
 C  C  Rav=1.4055 sigma=0.0223  Rmin=1.3612  Rmax=1.4323    21
 N  C  Rav=1.3319 sigma=0.0022  Rmin=1.3292  Rmax=1.3346     4
 O  C  Rav=1.3911 sigma=0.0226  Rmin=1.3549  Rmax=1.4083     7
 S  C  Rav=1.8381 sigma=0.0041  Rmin=1.8336  Rmax=1.8435     3
 S  O  Rav=1.5613 sigma=0.1124  Rmin=1.4467  Rmax=1.6781     6

 selected bond angles (degree)
 --------------------
C6-C1-C2=120.13                H27-C1-C2=121.83               H27-C1-C6=118.04               C3-C2-C1=119.20                
O23-C2-C1=124.13               O23-C2-C3=116.56               C4-C3-C2=118.83                C7-C3-C2=124.41                
C7-C3-C4=116.62                C5-C4-C3=118.93                N10-C4-C3=123.31               N10-C4-C5=117.72               
C6-C5-C4=119.23                H26-C5-C4=119.57               H26-C5-C6=121.16               C5-C6-C1=122.12                
S24-C6-C1=116.71               S24-C6-C5=121.17               C8-C7-C3=116.54                C11-C7-C3=126.93               
C11-C7-C8=116.53               C9-C8-C7=119.61                C14-C8-C7=119.60               C14-C8-C9=120.79               
N10-C9-C8=121.63               C17-C9-C8=118.45               C17-C9-N10=119.85              C9-N10-C4=118.90               

 selected dihedral angles (degree)
 ---------------------------------
C3-C2-C1-C6=  3.15            C3-C2-C1-H27=183.23           O23-C2-C1-C6=187.15           O23-C2-C1-H27=  7.23          
C4-C3-C2-C1=347.34            C4-C3-C2-O23=163.63           C7-C3-C2-C1=171.84            C7-C3-C2-O23=348.14           
C5-C4-C3-C2= 13.99            C5-C4-C3-C7=189.84            N10-C4-C3-C2=196.27           N10-C4-C3-C7= 12.12           
C6-C5-C4-C3=354.24            C6-C5-C4-N10=172.09           H26-C5-C4-C3=176.39           H26-C5-C4-N10=354.24          
C5-C6-C1-C2=  5.42            C5-C6-C1-H27=185.35           S24-C6-C1-C2=184.82           S24-C6-C1-H27=  4.75          
C1-C6-C5-C4=356.01            C1-C6-C5-H26=173.82           S24-C6-C5-C4=176.63           S24-C6-C5-H26=354.45          
C8-C7-C3-C2=155.28            C8-C7-C3-C4=339.70            C11-C7-C3-C2=335.03           C11-C7-C3-C4=159.44           
C9-C8-C7-C3= 13.95            C9-C8-C7-C11=194.18           C14-C8-C7-C3=193.90           C14-C8-C7-C11= 14.13          
N10-C9-C8-C7=  2.15           N10-C9-C8-C14=182.20          C17-C9-C8-C7=179.07           C17-C9-C8-C14=359.11          
C9-N10-C4-C3=  4.04           C9-N10-C4-C5=186.30           C4-N10-C9-C8=348.62           C4-N10-C9-C17=171.75          
           -------------------------------------------------
          |                Final Singlepoint                |
           -------------------------------------------------
repulsion energy          1.2616187085300E+00 Eh
dispersion energy         9.8717266331484E-04 Eh
interaction energy        0.0000000000000E+00 Eh
number of electrons       1.9300000000000E+02 e
integral cutoff           1.8403572253217E+01 bohr

------------------------------------------------------------
  cycle        total energy    energy error   density error
------------------------------------------------------------
      1     -110.2126717272  -1.1147528E+02   4.1299362E-05
      2     -110.2126716173   1.0993307E-07   4.7251460E-05
      3     -110.2126720394  -4.2212550E-07   2.5888540E-06
------------------------------------------------------------

electronic energy        -1.1147527792063E+02 Eh
total energy             -1.1021267203944E+02 Eh

 total:                                   0.108 sec
 - repulsion                              0.000 sec (  0%)
 - dispersion                             0.003 sec (  2%)
 - coulomb                                0.001 sec (  1%)
 - hamiltonian                            0.007 sec (  6%)
 - scc                                    0.096 sec ( 89%)

           -------------------------------------------------
          |                Property Printout                |
           -------------------------------------------------
           -------------------------------------------------
          |                Geometry Summary                 |
           -------------------------------------------------

      molecular mass/u    :      561.6274254
   center of mass at/Å    :       -0.9906628       0.3149272       0.5458292
  moments of inertia/u·Å² :        0.6449638E+04   0.6618982E+04   0.1205184E+05
rotational constants/cm⁻¹ :        0.2613733E-02   0.2546862E-02   0.1398760E-02

 * 56 selected distances

     #   Z          #   Z                                           value/Å
     1   6 C        2   6 C                                       1.3807280
     2   6 C        3   6 C                                       1.4203861
     3   6 C        4   6 C                                       1.4320198
     4   6 C        5   6 C                                       1.4158401
     1   6 C        6   6 C                                       1.3988055
     5   6 C        6   6 C                                       1.3611871
     3   6 C        7   6 C                                       1.4277885
     7   6 C        8   6 C                                       1.4039118
     8   6 C        9   6 C                                       1.4268618
     4   6 C       10   7 N                                       1.3333290
     9   6 C       10   7 N                                       1.3303324
     7   6 C       11   6 C                                       1.4282592
    11   6 C       12   6 C                                       1.4322588
    12   6 C       13   7 N                                       1.3346063
     8   6 C       14   6 C                                       1.4270531
    13   7 N       14   6 C                                       1.3292232
    14   6 C       15   6 C                                       1.4128840
    15   6 C       16   6 C                                       1.3784879
     9   6 C       17   6 C                                       1.4126950
    16   6 C       17   6 C                                       1.3811224
    11   6 C       18   6 C                                       1.4192646
    18   6 C       19   6 C                                       1.3812149
    19   6 C       20   6 C                                       1.3951470
    12   6 C       21   6 C                                       1.4153515
    20   6 C       21   6 C                                       1.3638660
    18   6 C       22   8 O                                       1.3548680
     2   6 C       23   8 O                                       1.3560700
     5   6 C       26   1 H                                       1.0780205
     1   6 C       27   1 H                                       1.0780710
    17   6 C       28   1 H                                       1.0781023
    15   6 C       29   1 H                                       1.0791286
    21   6 C       30   1 H                                       1.0772395 (min)
    19   6 C       31   1 H                                       1.0789211
    24  16 S       32   8 O                                       1.4466673
    33   8 O       34   6 C                                       1.4040684
    35  16 S       36   8 O                                       1.4481960
    37   8 O       38   6 C                                       1.4040793
    25  16 S       39   8 O                                       1.4518133 (max)
    40   8 O       41   6 C                                       1.4029988
    22   8 O       42   6 C                                       1.4082833
    23   8 O       43   6 C                                       1.4071716
    41   6 C       44   1 H                                       1.0890586
    41   6 C       45   1 H                                       1.0952997
    41   6 C       46   1 H                                       1.0955011
    38   6 C       47   1 H                                       1.0890571
    38   6 C       48   1 H                                       1.0947030
    38   6 C       49   1 H                                       1.0951784
    43   6 C       50   1 H                                       1.0892788
    43   6 C       51   1 H                                       1.0945946
    43   6 C       52   1 H                                       1.0943434
    42   6 C       53   1 H                                       1.0891965
    42   6 C       54   1 H                                       1.0941404
    42   6 C       55   1 H                                       1.0942371
    34   6 C       56   1 H                                       1.0891373
    34   6 C       57   1 H                                       1.0949316
    34   6 C       58   1 H                                       1.0949327

 * 5 distinct bonds (by element types)

   Z      Z             #   av. dist./Å        max./Å        min./Å
   1 H    6 C          21     1.0887178     1.0955011     1.0772395
   6 C    6 C          21     1.4054825     1.4322588     1.3611871
   6 C    7 N           4     1.3318727     1.3346063     1.3292232
   6 C    8 O           7     1.3910770     1.4082833     1.3548680
   8 O   16 S           3     1.4488922     1.4518133     1.4466673


optimized geometry written to: xtbopt.mol


           -------------------------------------------------
          | TOTAL ENERGY             -110.212672039439 Eh   |
          | GRADIENT NORM               0.000282376268 Eh/α |
           -------------------------------------------------

------------------------------------------------------------------------
Note: The following floating-point exceptions are signalling: IEEE_UNDERFLOW_FLAG
normal termination of xtb
 * finished run on 2025/03/04 at 12:26:55.911     
------------------------------------------------------------------------
 total:
 * wall-time:     0 d,  0 h,  0 min,  9.765 sec
 *  cpu-time:     0 d,  0 h,  0 min, 25.397 sec
 * ratio c/w:     2.601 speedup
 SCF:
 * wall-time:     0 d,  0 h,  0 min,  0.599 sec
 *  cpu-time:     0 d,  0 h,  0 min,  1.601 sec
 * ratio c/w:     2.672 speedup
 ANC optimizer:
 * wall-time:     0 d,  0 h,  0 min,  9.154 sec
 *  cpu-time:     0 d,  0 h,  0 min, 23.792 sec
 * ratio c/w:     2.599 speedup

      -----------------------------------------------------------      
     |                   =====================                   |     
     |                           x T B                           |     
     |                   =====================                   |     
     |                         S. Grimme                         |     
     |          Mulliken Center for Theoretical Chemistry        |     
     |                    University of Bonn                     |     
      -----------------------------------------------------------      

   * xtb version 6.7.1 (edcfbbe) compiled by 'runner@Mac-1732539442253.local' on 2024-11-25

   xtb is free software: you can redistribute it and/or modify it under
   the terms of the GNU Lesser General Public License as published by
   the Free Software Foundation, either version 3 of the License, or
   (at your option) any later version.
   
   xtb is distributed in the hope that it will be useful,
   but WITHOUT ANY WARRANTY; without even the implied warranty of
   MERCHANTABILITY or FITNESS FOR A PARTICULAR PURPOSE.  See the
   GNU Lesser General Public License for more details.
   
   Cite this work as:
   * C. Bannwarth, E. Caldeweyher, S. Ehlert, A. Hansen, P. Pracht,
     J. Seibert, S. Spicher, S. Grimme, WIREs Comput. Mol. Sci., 2020, 11,
     e01493. DOI: 10.1002/wcms.1493
   
   for GFN2-xTB:
   * C. Bannwarth, S. Ehlert and S. Grimme., J. Chem. Theory Comput., 2019,
     15, 1652-1671. DOI: 10.1021/acs.jctc.8b01176
   for GFN1-xTB:
   * S. Grimme, C. Bannwarth, P. Shushkov, J. Chem. Theory Comput., 2017,
     13, 1989-2009. DOI: 10.1021/acs.jctc.7b00118
   for GFN0-xTB:
   * P. Pracht, E. Caldeweyher, S. Ehlert, S. Grimme, ChemRxiv, 2019, preprint.
     DOI: 10.26434/chemrxiv.8326202.v1
   for GFN-FF:
   * S. Spicher and S. Grimme, Angew. Chem. Int. Ed., 2020, 59, 15665-15673.
     DOI: 10.1002/anie.202004239
   
   for ALPB and GBSA implicit solvation:
   * S. Ehlert, M. Stahn, S. Spicher, S. Grimme, J. Chem. Theory Comput.,
     2021, 17, 4250-4261. DOI: 10.1021/acs.jctc.1c00471
   
   for ddCOSMO and CPCM-X implicit solvation:
   * M. Stahn, S. Ehlert, S. Grimme, J. Phys. Chem. A,
     2023, XX, XXXX-XXXX. DOI: 10.1021/acs.jpca.3c04382
   
   for DFT-D4:
   * E. Caldeweyher, C. Bannwarth and S. Grimme, J. Chem. Phys., 2017,
     147, 034112. DOI: 10.1063/1.4993215
   * E. Caldeweyher, S. Ehlert, A. Hansen, H. Neugebauer, S. Spicher,
     C. Bannwarth and S. Grimme, J. Chem. Phys., 2019, 150, 154122.
     DOI: 10.1063/1.5090222
   * E. Caldeweyher, J.-M. Mewes, S. Ehlert and S. Grimme, Phys. Chem. Chem. Phys.
     2020, 22, 8499-8512. DOI: 10.1039/D0CP00502A
   
   for sTDA-xTB:
   * S. Grimme and C. Bannwarth, J. Chem. Phys., 2016, 145, 054103.
     DOI: 10.1063/1.4959605
   
   in the mass-spec context:
   * V. Asgeirsson, C. Bauer and S. Grimme, Chem. Sci., 2017, 8, 4879.
     DOI: 10.1039/c7sc00601b
   * J. Koopman and S. Grimme, ACS Omega 2019, 4, 12, 15120-15133.
     DOI: 10.1021/acsomega.9b02011
   
   for metadynamics refer to:
   * S. Grimme, J. Chem. Theory Comput., 2019, 155, 2847-2862
     DOI: 10.1021/acs.jctc.9b00143
   
   for SPH calculations refer to:
   * S. Spicher and S. Grimme, J. Chem. Theory Comput., 2021, 17, 1701-1714
     DOI: 10.1021/acs.jctc.0c01306
   
   for ONIOM refer to:
   * C. Plett, A. Katbashev, S. Ehlert, S. Grimme, M. Bursch,
     Phys. Chem. Chem. Phys., 2023, 25, 17860-17868. DOI: 10.1039/D3CP02178E
   
   for DIPRO refer to:
   * J. Kohn, N. Gildemeister, S. Grimme, D. Fazzi, A. Hansen,
     J. Chem. Phys., 2023, just accepted.
   
   for PTB refer to:
   * S. Grimme, M. Mueller, A. Hansen, J. Chem. Phys., 2023, 158, 124111.
     DOI: 10.1063/5.0137838
   
   with help from (in alphabetical order)
   P. Atkinson, C. Bannwarth, F. Bohle, G. Brandenburg, E. Caldeweyher
   M. Checinski, S. Dohm, S. Ehlert, S. Ehrlich, I. Gerasimov, C. Hölzer
   A. Katbashev, J. Kohn, J. Koopman, C. Lavigne, S. Lehtola, F. März, M. Müller,
   F. Musil, H. Neugebauer, J. Pisarek, C. Plett, P. Pracht, F. Pultar,
   J. Seibert, P. Shushkov, S. Spicher, M. Stahn, M. Steiner, T. Strunk,
   J. Stückrath, T. Rose, and J. Unsleber
   
 * started run on 2025/03/04 at 12:26:55.943     
   ID    Z sym.   atoms
    1    6 C      1-9, 11, 12, 14-21, 34, 38, 41-43
    2    7 N      10, 13
    3    8 O      22, 23, 32, 33, 36, 37, 39, 40
    4   16 S      24, 25, 35
    5    1 H      26-31, 44-58

           -------------------------------------------------
          |                Calculation Setup                |
           -------------------------------------------------

          program call               : xtb Base3SO2Me.mol --opt tight --cycles 500 --chrg -1 --uhf 0 --spinpol --tblite
          coordinate file            : Base3SO2Me.mol
          omp threads                :                     8

Wavefunction read from restart file
repulsion energy          1.1532234384035E+00 Eh
dispersion energy         7.2386336977476E-04 Eh
interaction energy        0.0000000000000E+00 Eh
number of electrons       1.9400000000000E+02 e
integral cutoff           1.8403572253217E+01 bohr

------------------------------------------------------------
  cycle        total energy    energy error   density error
------------------------------------------------------------
      1     -110.3914231901  -1.1154537E+02   3.4093682E-02
      2     -110.4139094646  -2.2486274E-02   2.0353948E-02
      3     -110.4121212859   1.7881787E-03   1.3764222E-02
      4     -110.4211431619  -9.0218760E-03   5.6858389E-03
      5     -110.4224959718  -1.3528099E-03   2.8000733E-03
      6     -110.4229739525  -4.7798064E-04   1.4676027E-03
      7     -110.4230614593  -8.7506848E-05   8.3410493E-04
      8     -110.4230801419  -1.8682553E-05   5.4605125E-04
      9     -110.4230918470  -1.1705080E-05   2.9564490E-04
     10     -110.4230977326  -5.8856599E-06   1.5150504E-04
     11     -110.4230993372  -1.6046084E-06   7.4855499E-05
     12     -110.4230995468  -2.0954681E-07   3.7024560E-05
     13     -110.4230996009  -5.4098194E-08   1.6120701E-05
------------------------------------------------------------

electronic energy        -1.1157704690266E+02 Eh
total energy             -1.1042309960088E+02 Eh

 total:                                   0.656 sec
 - repulsion                              0.000 sec (  0%)
 - dispersion                             0.003 sec (  0%)
 - coulomb                                0.001 sec (  0%)
 - hamiltonian                            0.011 sec (  1%)
 - scc                                    0.640 sec ( 97%)

      ----------------------------------------------------------- 
     |                   =====================                   |
     |                        A N C O P T                        |
     |                   =====================                   |
     |               Approximate Normal Coordinate               |
     |                Rational Function Optimizer                |
      ----------------------------------------------------------- 
      ----------------------------------------------------------- 
     |                   =====================                   |
     |                        A N C O P T                        |
     |                   =====================                   |
     |               Approximate Normal Coordinate               |
     |                Rational Function Optimizer                |
      ----------------------------------------------------------- 

[...]
    24  16 S       32   8 O                                       1.4455284
    33   8 O       34   6 C                                       1.4034563
    35  16 S       36   8 O                                       1.4556009
    37   8 O       38   6 C                                       1.4028435
    25  16 S       39   8 O                                       1.4511347
    40   8 O       41   6 C                                       1.3993078
    22   8 O       42   6 C                                       1.4086398
    23   8 O       43   6 C                                       1.4072861
    41   6 C       44   1 H                                       1.0901086
    41   6 C       45   1 H                                       1.0958221
    41   6 C       46   1 H                                       1.0954297
    38   6 C       47   1 H                                       1.0891370
    38   6 C       48   1 H                                       1.0949709
    38   6 C       49   1 H                                       1.0947949
    43   6 C       50   1 H                                       1.0889588
    43   6 C       51   1 H                                       1.0946897
    43   6 C       52   1 H                                       1.0941752
    42   6 C       53   1 H                                       1.0898128
    42   6 C       54   1 H                                       1.0941825
    42   6 C       55   1 H                                       1.0936879
    34   6 C       56   1 H                                       1.0893186
    34   6 C       57   1 H                                       1.0951035
    34   6 C       58   1 H                                       1.0952265
    59   6 C       60   6 C                                       1.3804362
    60   6 C       61   6 C                                       1.4233222
    61   6 C       62   6 C                                       1.4323457
    62   6 C       63   6 C                                       1.4150703
    59   6 C       64   6 C                                       1.3933175
    63   6 C       64   6 C                                       1.3633117
    61   6 C       65   6 C                                       1.4292609
    65   6 C       66   6 C                                       1.4041566
    66   6 C       67   6 C                                       1.4242142
    62   6 C       68   7 N                                       1.3404580
    67   6 C       68   7 N                                       1.3309202
    65   6 C       69   6 C                                       1.4276769
    69   6 C       70   6 C                                       1.4304737
    70   6 C       71   7 N                                       1.3314079
    66   6 C       72   6 C                                       1.4280261
    71   7 N       72   6 C                                       1.3302311
    72   6 C       73   6 C                                       1.4111970
    73   6 C       74   6 C                                       1.3807090
    67   6 C       75   6 C                                       1.4161459
    74   6 C       75   6 C                                       1.3800165
    69   6 C       76   6 C                                       1.4185067
    76   6 C       77   6 C                                       1.3798337
    77   6 C       78   6 C                                       1.4034708
    70   6 C       79   6 C                                       1.4179952
    78   6 C       79   6 C                                       1.3613176
    76   6 C       80   8 O                                       1.3532783
    60   6 C       81   8 O                                       1.3562350
    63   6 C       84   1 H                                       1.0780282
    59   6 C       85   1 H                                       1.0781689
Note: The following floating-point exceptions are signalling: IEEE_UNDERFLOW_FLAG
normal termination of xtb
    75   6 C       86   1 H                                       1.0770714
    73   6 C       87   1 H                                       1.0792410
    79   6 C       88   1 H                                       1.0761314 (min)
    77   6 C       89   1 H                                       1.0788001
    82  16 S       90   8 O                                       1.4460066
    91   8 O       92   6 C                                       1.4008296
    93  16 S       94   8 O                                       1.4509722
    95   8 O       96   6 C                                       1.4096177
    83  16 S       97   8 O                                       1.4667788 (max)
    98   8 O       99   6 C                                       1.4140710
    80   8 O      100   6 C                                       1.4074853
    81   8 O      101   6 C                                       1.4074609
    99   6 C      102   1 H                                       1.0932369
    99   6 C      103   1 H                                       1.0889895
    99   6 C      104   1 H                                       1.0922174
    96   6 C      105   1 H                                       1.0893231
    96   6 C      106   1 H                                       1.0913303
    96   6 C      107   1 H                                       1.0945521
   101   6 C      108   1 H                                       1.0897567
   101   6 C      109   1 H                                       1.0935939
   101   6 C      110   1 H                                       1.0948261
   100   6 C      111   1 H                                       1.0889366
   100   6 C      112   1 H                                       1.0946553
   100   6 C      113   1 H                                       1.0941474
    92   6 C      114   1 H                                       1.0899437
    92   6 C      115   1 H                                       1.0948052
    92   6 C      116   1 H                                       1.0956355

 * 5 distinct bonds (by element types)

   Z      Z             #   av. dist./Å        max./Å        min./Å
   1 H    6 C          42     1.0884927     1.0958221     1.0761314
   6 C    6 C          42     1.4055653     1.4355481     1.3613176
   6 C    7 N           8     1.3329037     1.3404580     1.3251394
   6 C    8 O          14     1.3917452     1.4140710     1.3529565
   8 O   16 S           6     1.4526703     1.4667788     1.4455284


optimized geometry written to: xtbopt.mol


           -------------------------------------------------
          | TOTAL ENERGY             -220.477226492688 Eh   |
          | GRADIENT NORM               0.000140875491 Eh/α |
           -------------------------------------------------

------------------------------------------------------------------------
 * finished run on 2025/03/04 at 12:29:51.487     
------------------------------------------------------------------------
 total:
 * wall-time:     0 d,  0 h,  2 min, 18.504 sec
 *  cpu-time:     0 d,  0 h,  6 min, 29.864 sec
 * ratio c/w:     2.815 speedup
 SCF:
 * wall-time:     0 d,  0 h,  0 min,  2.345 sec
 *  cpu-time:     0 d,  0 h,  0 min,  8.366 sec
 * ratio c/w:     3.568 speedup
 ANC optimizer:
 * wall-time:     0 d,  0 h,  2 min, 16.145 sec
 *  cpu-time:     0 d,  0 h,  6 min, 21.493 sec
 * ratio c/w:     2.802 speedup

      -----------------------------------------------------------      
     |                   =====================                   |     
     |                           x T B                           |     
     |                   =====================                   |     
     |                         S. Grimme                         |     
     |          Mulliken Center for Theoretical Chemistry        |     
     |                    University of Bonn                     |     
      -----------------------------------------------------------      

   * xtb version 6.7.1 (edcfbbe) compiled by 'runner@Mac-1732539442253.local' on 2024-11-25

   xtb is free software: you can redistribute it and/or modify it under
   the terms of the GNU Lesser General Public License as published by
   the Free Software Foundation, either version 3 of the License, or
   (at your option) any later version.
   
   xtb is distributed in the hope that it will be useful,
   but WITHOUT ANY WARRANTY; without even the implied warranty of
   MERCHANTABILITY or FITNESS FOR A PARTICULAR PURPOSE.  See the
   GNU Lesser General Public License for more details.
   
   Cite this work as:
   * C. Bannwarth, E. Caldeweyher, S. Ehlert, A. Hansen, P. Pracht,
     J. Seibert, S. Spicher, S. Grimme, WIREs Comput. Mol. Sci., 2020, 11,
     e01493. DOI: 10.1002/wcms.1493
   
   for GFN2-xTB:
   * C. Bannwarth, S. Ehlert and S. Grimme., J. Chem. Theory Comput., 2019,
     15, 1652-1671. DOI: 10.1021/acs.jctc.8b01176
   for GFN1-xTB:
   * S. Grimme, C. Bannwarth, P. Shushkov, J. Chem. Theory Comput., 2017,
     13, 1989-2009. DOI: 10.1021/acs.jctc.7b00118
   for GFN0-xTB:
   * P. Pracht, E. Caldeweyher, S. Ehlert, S. Grimme, ChemRxiv, 2019, preprint.
     DOI: 10.26434/chemrxiv.8326202.v1
   for GFN-FF:
   * S. Spicher and S. Grimme, Angew. Chem. Int. Ed., 2020, 59, 15665-15673.
     DOI: 10.1002/anie.202004239
   
   for ALPB and GBSA implicit solvation:
   * S. Ehlert, M. Stahn, S. Spicher, S. Grimme, J. Chem. Theory Comput.,
     2021, 17, 4250-4261. DOI: 10.1021/acs.jctc.1c00471
   
   for ddCOSMO and CPCM-X implicit solvation:
   * M. Stahn, S. Ehlert, S. Grimme, J. Phys. Chem. A,
     2023, XX, XXXX-XXXX. DOI: 10.1021/acs.jpca.3c04382
   
   for DFT-D4:
   * E. Caldeweyher, C. Bannwarth and S. Grimme, J. Chem. Phys., 2017,
     147, 034112. DOI: 10.1063/1.4993215
   * E. Caldeweyher, S. Ehlert, A. Hansen, H. Neugebauer, S. Spicher,
     C. Bannwarth and S. Grimme, J. Chem. Phys., 2019, 150, 154122.
     DOI: 10.1063/1.5090222
   * E. Caldeweyher, J.-M. Mewes, S. Ehlert and S. Grimme, Phys. Chem. Chem. Phys.
     2020, 22, 8499-8512. DOI: 10.1039/D0CP00502A
   
   for sTDA-xTB:
   * S. Grimme and C. Bannwarth, J. Chem. Phys., 2016, 145, 054103.
     DOI: 10.1063/1.4959605
   
   in the mass-spec context:
   * V. Asgeirsson, C. Bauer and S. Grimme, Chem. Sci., 2017, 8, 4879.
     DOI: 10.1039/c7sc00601b
   * J. Koopman and S. Grimme, ACS Omega 2019, 4, 12, 15120-15133.
     DOI: 10.1021/acsomega.9b02011
   
   for metadynamics refer to:
   * S. Grimme, J. Chem. Theory Comput., 2019, 155, 2847-2862
     DOI: 10.1021/acs.jctc.9b00143
   
   for SPH calculations refer to:
   * S. Spicher and S. Grimme, J. Chem. Theory Comput., 2021, 17, 1701-1714
     DOI: 10.1021/acs.jctc.0c01306
   
   for ONIOM refer to:
   * C. Plett, A. Katbashev, S. Ehlert, S. Grimme, M. Bursch,
     Phys. Chem. Chem. Phys., 2023, 25, 17860-17868. DOI: 10.1039/D3CP02178E
   
   for DIPRO refer to:
   * J. Kohn, N. Gildemeister, S. Grimme, D. Fazzi, A. Hansen,
     J. Chem. Phys., 2023, just accepted.
   
   for PTB refer to:
   * S. Grimme, M. Mueller, A. Hansen, J. Chem. Phys., 2023, 158, 124111.
     DOI: 10.1063/5.0137838
   
   with help from (in alphabetical order)
   P. Atkinson, C. Bannwarth, F. Bohle, G. Brandenburg, E. Caldeweyher
   M. Checinski, S. Dohm, S. Ehlert, S. Ehrlich, I. Gerasimov, C. Hölzer
   A. Katbashev, J. Kohn, J. Koopman, C. Lavigne, S. Lehtola, F. März, M. Müller,
   F. Musil, H. Neugebauer, J. Pisarek, C. Plett, P. Pracht, F. Pultar,
   J. Seibert, P. Shushkov, S. Spicher, M. Stahn, M. Steiner, T. Strunk,
   J. Stückrath, T. Rose, and J. Unsleber
   
 * started run on 2025/03/04 at 12:29:51.515     
   ID    Z sym.   atoms
    1    6 C      1-9, 11, 12, 14-21, 34, 38, 41-43, 59-67, 69, 70, 72-79,
                  92, 96, 99-101
    2    7 N      10, 13, 68, 71
    3    8 O      22, 23, 32, 33, 36, 37, 39, 40, 80, 81, 90, 91, 94, 95, 97,
                  98
    4   16 S      24, 25, 35, 82, 83, 93
    5    1 H      26-31, 44-58, 84-89, 102-116

           -------------------------------------------------
          |                Calculation Setup                |
           -------------------------------------------------

          program call               : xtb opt_dimer.mol --dipro 0.3 --chrg 0 --uhf 2 --spinpol --tblite
          coordinate file            : opt_dimer.mol
          omp threads                :                     8


molecular fragmentation (1/2 indicates fragments):
111111111111111111111111111111111111111111111111111111111122222222222222
22222222222222222222222222222222222222222222
# atoms in fragment 1/2:    58    58
 fragment masses (1/2) :      561.63      561.63
CMA distance (Bohr)    :   8.589
constraining FC (au)   :  0.0500
Wavefunction read from restart file
           -------------------------------------------------
          |                    D I P R O                    |
           -------------------------------------------------
Calculation for dimer 
--------------------- 
  
charge of dimer :   0.
unpaired e- of dimer :  2
repulsion energy          2.5208285134544E+00 Eh
dispersion energy         1.3567967286370E-02 Eh
number of electrons       3.8600000000000E+02 e
integral cutoff           1.8403572253217E+01 bohr

------------------------------------------------------------
  cycle        total energy    energy error   density error
------------------------------------------------------------
      1     -219.5815846238  -2.2211598E+02   2.2249357E-01
      2     -220.3290555043  -7.4747088E-01   1.0803149E-01
      3     -220.2435466046   8.5508900E-02   5.4417483E-02
      4     -220.1349783220   1.0856828E-01   3.7764202E-02
      5     -220.1917066401  -5.6728318E-02   3.1365191E-02
      6     -220.4449826065  -2.5327597E-01   1.5186874E-02
      7     -220.4701521181  -2.5169512E-02   8.2708201E-03
      8     -220.4715887299  -1.4366118E-03   5.3323668E-03
      9     -220.4726503313  -1.0616015E-03   3.3842350E-03
     10     -220.4732151882  -5.6485686E-04   1.3431685E-03
     11     -220.4734014826  -1.8629438E-04   5.8480338E-04
     12     -220.4734152922  -1.3809576E-05   3.6275766E-04
     13     -220.4734309192  -1.5627020E-05   1.5410155E-04
     14     -220.4734331451  -2.2259319E-06   9.3952639E-05
     15     -220.4734341442  -9.9913660E-07   4.9916229E-05
     16     -220.4734342867  -1.4249730E-07   2.2749015E-05
     17     -220.4734343138  -2.7091374E-08   1.0268336E-05
------------------------------------------------------------

electronic energy        -2.2300783079457E+02 Eh
total energy             -2.2047343431383E+02 Eh

 total:                                   1.436 sec
 - repulsion                              0.000 sec (  0%)
 - dispersion                             0.004 sec (  0%)
 - coulomb                                0.001 sec (  0%)
 - hamiltonian                            0.006 sec (  0%)
 - scc                                    1.424 sec ( 99%)

Found 2 fragments!
Fragment 1:  1-58
Fragment 2:  59-116

[Info] Fragment spin read from .UHFfrag
Calculation for fragment 1
 ------------------------------
   
charge of fragment :   0.
unpaired e- of fragment :  1
------------------------------------------------------------
  cycle        total energy    energy error   density error
------------------------------------------------------------
      1     -109.7423919459  -1.1100501E+02   2.2074301E-01
      2     -110.1380511330  -3.9565919E-01   1.0435945E-01
      3     -110.1283549310   9.6962021E-03   5.1183999E-02
      4     -110.1796310727  -5.1276142E-02   2.6203255E-02
      5     -110.2023718822  -2.2740809E-02   1.0172854E-02
      6     -110.2049934891  -2.6216069E-03   5.0141806E-03
      7     -110.2056593743  -6.6588520E-04   2.7185003E-03
      8     -110.2059898010  -3.3042670E-04   1.1689753E-03
      9     -110.2059797665   1.0034531E-05   7.5721807E-04
     10     -110.2060091789  -2.9412399E-05   2.8661236E-04
     11     -110.2060143776  -5.1987418E-06   1.3688111E-04
     12     -110.2060147553  -3.7769487E-07   7.1447889E-05
     13     -110.2060147920  -3.6649524E-08   2.9166991E-05
     14     -110.2060148017  -9.7440989E-09   1.6287859E-05
------------------------------------------------------------

 total:                                   0.326 sec
Calculation for fragment 2
 ------------------------------
   
charge of fragment :   0.
unpaired e- of fragment :  1
------------------------------------------------------------
  cycle        total energy    energy error   density error
------------------------------------------------------------
      1     -109.7242497217  -1.1098358E+02   2.2507344E-01
      2     -110.1224279173  -3.9817820E-01   1.0949302E-01
      3     -110.1125780541   9.8498633E-03   5.3951632E-02
      4     -110.1594525166  -4.6874463E-02   2.8797490E-02
      5     -110.1901386113  -3.0686095E-02   1.0294193E-02
      6     -110.1923555182  -2.2169068E-03   5.5550621E-03
      7     -110.1931498323  -7.9431408E-04   2.8148719E-03
      8     -110.1935348152  -3.8498297E-04   1.1337398E-03
      9     -110.1935275649   7.2502883E-06   6.9161801E-04
     10     -110.1935465414  -1.8976490E-05   2.7517673E-04
     11     -110.1935506572  -4.1157395E-06   1.4259333E-04
     12     -110.1935511866  -5.2939384E-07   7.3456311E-05
     13     -110.1935512200  -3.3394102E-08   3.1957342E-05
     14     -110.1935512315  -1.1526808E-08   1.8072682E-05
------------------------------------------------------------

 total:                                   0.403 sec
   
   ::::::::::::::::::::::::::::::::::::::::::::::
   ::     D I P R O      C O U P L I N G S     ::
   ::::::::::::::::::::::::::::::::::::::::::::::
   
energy threshhold for near-degenerate orbitals near HOMO and LUMO considered for DIPRO:  0.300 eV
no. of orbitals within energy window of frag 1         2
no. of orbitals within energy window of frag 2         2
   
  Fragment 1 SOMO   Fragment 2 SOMO 
--------------------------------------
E_mon(orb) frag1 frag2             -10.246   -10.210 eV
J(AB):               -0.013 eV
S(AB):             0.00076714 Eh
|J(AB,eff)|:            0.005 eV
   
  Fragment 1 SOMO   Fragment 2 LUMO 
--------------------------------------
E_mon(orb) frag1 frag2             -10.246    -9.818 eV
J(AB):                0.022 eV
S(AB):            -0.00098401 Eh
|J(AB,eff)|:            0.012 eV
   
  Fragment 1 LUMO   Fragment 2 SOMO 
--------------------------------------
E_mon(orb) frag1 frag2              -9.855   -10.210 eV
J(AB):                0.015 eV
S(AB):            -0.00063964 Eh
|J(AB,eff)|:            0.009 eV
   
  Fragment 1 LUMO   Fragment 2 LUMO 
--------------------------------------
E_mon(orb) frag1 frag2              -9.855    -9.818 eV
J(AB):                0.140 eV
S(AB):            -0.00594861 Eh
|J(AB,eff)|:            0.081 eV
   
..............................................................................
:  total |J(AB,eff)| for hole transport (occ. MOs) :               0.005 eV  :
:  total |J(AB,eff)| for charge transport (unocc. MOs) :           0.081 eV  :
:  total |J(AB,eff)| for charge transfer (CT) :                    0.015 eV  :
..............................................................................
  
 Please remember, DIPRO is not available for restart!
   
normal termination of dipro
----------------------------------------------------------
 * finished run on 2025/03/04 at 12:29:53.694     
----------------------------------------------------------
 dipro:
 * wall-time:     0 d,  0 h,  0 min,  2.176 sec
 *  cpu-time:     0 d,  0 h,  0 min,  7.963 sec
 * ratio c/w:     3.660 speedup
Reorganization energy (electron): 0.22153208247041234 eV
Reorganization energy (hole): 0.3134589600977083 eV
Electron Transfer integral J: 0.081 eV
Hole Transfer integral J: 0.005 eV
