116
 energy: -22.928061455056 gnorm: 0.329736929581 xtb: 6.6.1 (8d0f1dd)
C           -3.31122850772930        0.79849766164622       -0.92477639677520
C           -2.44380812530352       -0.12270372891954       -0.27661132624697
C           -1.41337090092821        0.39579727573559        0.56335275196199
C           -0.89266158675590        1.65801491088749        0.27377586709581
C           -1.72665675402493        2.51431363229076       -0.49448366572522
C           -2.95444148494349        2.13954154133227       -1.01494489940871
C           -0.74098268209890       -0.43411532818871        1.49825021926784
C            0.56872586496315        0.03782116815119        1.86248088067890
C            1.03782416582094        1.29402317993033        1.50887470833621
N            0.31238977034758        2.07067427098208        0.65193736800696
C           -1.29695700510141       -1.39996043042223        2.41574187746061
C           -0.38243517664656       -2.18060797534842        3.13232615520648
N            0.91308504082021       -1.90366887689689        3.30325166013478
C            1.37712470144904       -0.74872102533751        2.81811050966982
C            2.52149331701875       -0.17739833758153        3.39379298866852
C            2.95849061756259        1.02681208890480        2.95105897606587
C            2.24288949469137        1.78498308775960        2.03503020483770
C           -2.74860936222260       -1.74497937691422        2.38401158947411
C           -3.09416315450955       -2.91614440870436        3.00571134491758
C           -2.16786021984049       -3.77788778654213        3.63251872101904
C           -0.85708937311598       -3.40495313382985        3.68547234358092
O           -3.71994433332149       -0.94984598373544        1.67726658385724
O           -2.55702603277562       -1.47241711578389       -0.57241635275616
C           -3.84297843593025        3.13357444054366       -1.60938954875544
C           -2.68769581069131       -5.03867041417370        4.30484659386931
H           -1.39666850744143        3.51251503834900       -0.76806311868865
H           -4.27662633836220        0.55105838579656       -1.33106614114542
H            2.66329581305412        2.73912661909249        1.72562431984580
H            3.05775395548473       -0.69369546277216        4.16536137542516
H           -0.24710966264510       -4.12034095424229        4.22946223699121
H           -4.11477991332403       -3.04712728052358        3.03244694615357
O           -4.21824883374556        4.03433712717988       -0.87713382485991
O           -4.44510595673734        2.90643496899600       -2.81853501752979
C           -5.44216520282800        3.83300025693726       -3.02488532025093
C            4.23586651889298        1.50004220933226        3.59165660008449
O            5.05927614697201        0.66079890002952        3.91714215179376
O            4.47001334453535        2.86385149488593        3.72605651435371
C            5.79457498613219        3.08584475587818        4.15829123132174
O           -3.82227255313510       -5.27347675879771        4.16636005494405
O           -1.85023202017753       -5.79767454267276        5.06656077253571
C           -2.55119635829503       -6.86252441382958        5.62930343183426
C           -5.07197156564436       -1.42399175670916        1.58830531863830
C           -1.33089900128490       -2.23622472573986       -0.99264499351172
H           -2.54510546830388       -7.76426885143998        4.99136022291012
H           -3.57194749219491       -6.44405511486021        5.74196173723541
H           -2.09133598235598       -7.02043774843818        6.64022264233588
H            5.72707967266424        3.46798026205549        5.10135971236643
H            6.34060091246885        3.78468702308830        3.50069950143490
H            6.17933064298187        2.03010500085905        4.19342358084693
H           -0.91862729772622       -2.57650129080332       -0.01361370304871
H           -0.49769766914251       -1.60651221708571       -1.34094446550576
H           -1.52632419730509       -2.94569707152159       -1.75361447637286
H           -5.11788846557077       -2.41810833635233        1.17520213188926
H           -5.67929807973498       -0.69619639428435        1.04301666067831
H           -5.57598832326623       -1.42383358739762        2.57928294206544
H           -6.13050215934830        3.76035386975488       -2.23272855695873
H           -5.86615610071888        3.45938329385866       -4.02668959924245
H           -5.13479557532099        4.87790991548477       -2.98314551356402
C           -1.38192942069774        3.73616555005018        2.91232598411686
C           -1.84821468128685        2.59982427735607        3.49755545445181
C           -1.05946531454833        2.05730632010638        4.60922730982276
C            0.19893954712228        2.69376791964407        4.86302140881997
C            0.50425395911860        3.94630308659851        4.28768785650746
C           -0.26031777722226        4.46998310053134        3.25072669343212
C           -1.20488993561782        0.74454293276906        5.14851520323437
C           -0.06287609782692        0.02744069315890        5.60930570802864
C            1.19208754369866        0.71421540266195        5.78882868583885
N            1.19428660993148        2.06344359410476        5.62744624321596
C           -2.41361422770794        0.07928500213936        5.25249410304426
C           -2.45851584031083       -1.32662100968547        5.60237876023992
N           -1.29466212405906       -1.98318595734370        5.89916817085159
C           -0.14475655767527       -1.32117560077092        5.98824682881008
C            0.97209270935794       -1.98958449505532        6.53157704134458
C            2.21982707914082       -1.36973967291181        6.68703967237737
C            2.30561929262884       -0.09745313075593        6.26436900324455
C           -3.73018485967715        0.71367583494582        5.25810242262992
C           -4.89964478833448       -0.06184623426677        5.21204641615509
C           -4.82617965800088       -1.39228978090841        5.46901303780036
C           -3.67144193418464       -1.98914944386360        5.67265433266067
O           -3.75568638935321        2.07705011038914        5.52067969627343
O           -2.94192434743730        1.91263938797883        3.01658762327703
C            0.21273512614467        5.50086066357994        2.34765104514621
C           -6.06660304520411       -2.17604633098929        5.80641622556876
H            1.41756699010566        4.38133362238595        4.66974005703471
H           -1.82880610647429        4.11982501512100        2.06992133318584
H            3.26888037378556        0.32655662585251        6.31721410015598
H            0.87146188387207       -3.08471526305024        6.57830423410869
H           -3.67716811065157       -3.05999292755990        5.83019634570050
H           -5.77379677507622        0.43595144608221        4.71017130754348
O            1.34459852619901        5.82615848916894        2.44941456579099
O           -0.74718748219123        6.07961784856304        1.59848183464284
C           -0.21473095568964        7.24015934882472        1.05753806029483
C            3.53228080814219       -2.00967610361154        7.02506769044485
O            3.64093082622715       -3.14437803815732        7.50071391725347
O            4.56565258381079       -1.22937033368332        6.69086985080897
C            5.72579357310716       -1.80692399125161        7.22246151275881
O           -7.04801223588612       -1.95726935745904        5.14194115322235
O           -6.01514389321278       -2.93743591896022        6.94765316328794
C           -7.21292732384718       -3.62681918543340        7.15115816329978
C           -4.95459780685163        2.65960679932188        5.86868674392943
C           -3.68284113682406        2.59129188358641        2.05479246020704
H           -7.43119628931628       -4.22607794725959        6.20622607140901
H           -8.06548455146707       -2.91765848248592        7.29781126410398
H           -7.07314693247270       -4.33087306029711        7.91223421050944
H            6.57332189837178       -1.29353136199234        6.78341268688262
H            5.74663761932316       -2.84282155125561        6.88089468184451
H            5.69426191474290       -1.72781984964892        8.29460302186842
H           -4.10481209541493        3.44288266176275        2.60483747673152
H           -4.49244774344916        1.87419893016926        1.82433103764650
H           -3.18901540870812        2.85154642679373        1.06781919454921
H           -5.55414326821421        2.76698137191684        4.93950725322359
H           -4.78658370641210        3.62090640967288        6.25983200635257
H           -5.43485580473958        1.97242995129449        6.65265772412460
H            0.89164886030839        7.38838561720231        1.13776105146914
H           -0.62894889903848        8.04195665205089        1.64837664327952
H           -0.59282546386754        7.45699159724320        0.03719083132488
116
 energy: -22.611501115618 gnorm: 0.504744244008 xtb: 6.6.1 (8d0f1dd)
C           -2.84028397821354        0.15798567482774       -2.77953492031220
C           -2.14415274040240       -0.49684789156583       -1.73039792234422
C           -1.43290513404577        0.32776428385032       -0.88497162018383
C           -1.50372646744746        1.73841046566473       -0.94774987753142
C           -2.49410692284103        2.30549079757586       -1.82415146600255
C           -3.11024062569287        1.54529605887978       -2.86648217055022
C           -0.85872847204881       -0.21881224396686        0.29102657158576
C            0.07971614796281        0.56836523178076        0.93858785978904
C            0.22797097116152        1.98536610531423        0.66212336292848
N           -0.70422164391675        2.55558301194480       -0.15397124528960
C           -1.11875126838912       -1.50877303715388        0.93606632823669
C           -0.33240939104712       -1.95649413259009        2.02192753572709
N            0.90378754376503       -1.41808798284947        2.30304703529101
C            0.95540236686854       -0.09600083704667        1.83219974684573
C            2.15144642239057        0.57235652191642        2.17754443239466
C            2.31363648491708        1.84865191483152        1.79516152682193
C            1.34891889642798        2.64310197829759        1.15068892032873
C           -2.39353359355650       -2.09709214873493        0.95801341806929
C           -2.56038572010299       -3.39180256255362        1.43130793552482
C           -1.60393473793072       -3.97870846270095        2.24528816204458
C           -0.60392357898674       -3.10972510316506        2.74668641756744
O           -3.45206450312758       -1.24875467482623        0.52640136373262
O           -1.99145887653287       -1.90342540495078       -1.69723381756735
C           -3.66170358543302        1.98168104641630       -4.17023588175105
C           -1.51172264060142       -5.45802884970275        2.41173441496773
H           -2.48347713762680        3.36477564457084       -1.89505025484308
H           -3.15552569916942       -0.43128735151318       -3.68919487507312
H            1.46065778497296        3.65987823793844        0.92362018757107
H            2.75585881082092        0.10860996798960        2.85200663474420
H            0.46641195883863       -3.54212695968495        3.00802746638141
H           -3.17811473517740       -3.95991823748422        0.69974142564844
O           -4.35784472833847        1.30680497910176       -4.81065616932990
O           -3.31182205262652        3.34955797612444       -4.61842779112452
C           -3.23287483500496        3.56515078900496       -6.06903293384786
C            3.46924348266309        2.45929742575572        2.47770986848894
O            3.86529067844370        1.81405997794931        3.47313325905936
O            4.11208468974806        3.34219098371916        1.77689006542973
C            5.15156713532255        3.79849734202837        2.56766794195747
O           -1.22334716772580       -5.82385598936865        3.53546214713519
O           -1.81189867537724       -6.11014306008152        1.31868462840034
C           -1.70095164067373       -7.49207683906591        1.57618521667578
C           -4.74622891012665       -1.90709263038909        0.49827473151318
C           -3.25030554683700       -2.62060600361552       -1.95588235188054
H           -2.63720119795485       -7.55210115825108        2.36277585325770
H           -0.85278182054981       -8.07522591293272        1.95649074443665
H           -2.10002087249727       -8.12927973777615        0.80317918385300
H            6.01574786609817        4.29477281869726        1.99955645687654
H            5.90860396759026        3.02812766038233        2.99520613152725
H            4.79944132366464        4.46153536200600        3.37435204698962
H           -4.07442783745449       -1.85997013956219       -1.78171296287196
H           -3.09017936946864       -3.55707738079356       -1.34031695059861
H           -3.10731139929071       -2.95204997388733       -3.03903075511480
H           -4.78428589744707       -2.58137252407677       -0.40728027781402
H           -5.24031505502590       -1.09597366489789        0.13309380234907
H           -5.11017145495198       -2.16159776612689        1.59667864504092
H           -4.00144251274662        4.35841654818333       -6.26709873561481
H           -3.68876494597650        2.71276133508658       -6.68266687009192
H           -2.25789408016896        3.91088226291632       -6.48328875693491
C           -1.59986476798750        3.60276068171070        4.06719015076454
C           -1.82074378510040        2.31865313351933        4.65575488544848
C           -0.90406451019099        1.88384951705312        5.63198289392416
C            0.38029877697297        2.44073675559060        5.57497541757261
C            0.70480059133489        3.57650030742976        4.68714189096444
C           -0.39393257783821        4.24573121062341        4.21452650376527
C           -1.12517476694745        0.91099264308808        6.66830000565017
C            0.00788482827729        0.06822818273429        7.11233215363185
C            1.25080154066276        0.44675439347640        6.54537981501174
N            1.45001364631193        1.73013619616133        6.19793290680925
C           -2.47162426135119        0.59366533068796        7.29000127561976
C           -2.54975545288702       -0.70738880945415        7.82522148500684
N           -1.47293837233254       -1.36059597427538        8.28050429961898
C           -0.19124969439763       -1.05048365129007        7.96018711621006
C            0.91045431078339       -1.76888744604797        8.45725326679648
C            2.11901449886818       -1.59286253655675        7.86371983300741
C            2.29889136663487       -0.52528954889061        6.95999894470124
C           -3.66054215274907        1.42825654775804        7.38668847599903
C           -4.93852088342856        0.88416307825383        7.58825768643353
C           -4.96788810994813       -0.43725677671688        7.90674294454875
C           -3.85614379679051       -1.22398377912143        8.16048978812289
O           -3.56309030378292        2.76042148096106        7.24843823260219
O           -2.93244812123718        1.52268392158554        4.38254344985072
C           -0.11405163284077        5.43249364894642        3.24051324341101
C           -6.37262526777578       -1.08181072702016        8.25371325670506
H            1.58726919266243        4.02119006978409        4.26913616508233
H           -2.21930931716990        3.84919393852878        3.23292106626859
H            3.33571356607280       -0.47162861060851        6.82240954244019
H            0.79072177442067       -2.21775931409859        9.40778253627942
H           -4.24652388622385       -1.97922034051974        8.80955975504603
H           -5.82339022565909        1.53635182821851        7.64238443699152
O           -0.17289783469835        5.22929834502258        2.00872002896008
O            0.00943727606703        6.49309077786465        4.16447214855694
C            0.39053450429259        7.73122219008938        3.33771515939162
C            3.14371391452483       -2.44061126177539        8.42792211066631
O            2.89657438871863       -3.20334225903236        9.30600248866619
O            4.56198668599117       -2.31379115509701        8.08799425167867
C            5.40596224385767       -3.15681073418611        8.79960395776637
O           -7.48217778516782       -0.45017642605086        8.05474858273723
O           -6.55136344747311       -2.35945809549831        8.85012397813900
C           -7.87792976304182       -2.71311993207584        8.65138722816922
C           -4.40534630620181        3.45838607074744        8.20167134896569
C           -2.78958861886470        0.39455870270400        3.61526985298507
H           -8.21825881916262       -2.74873702822152        7.60358169063338
H           -8.42054139824895       -2.03894284398091        9.40407818019895
H           -8.05756282401148       -3.67694260430389        8.98669566902032
H            4.85492222829239       -3.75832602102938        9.50225329977749
H            6.25039577901288       -2.61212734622422        9.30628762085812
H            6.05813882760330       -3.68858129430187        8.04411632293518
H           -1.93852206024759        0.45889278920023        2.88941993547734
H           -3.71933466768536        0.50849833978311        3.01621507925506
H           -2.85922296698838       -0.58033508278370        4.04532202898834
H           -4.28997873107066        4.73542444868007        8.24467525549716
H           -4.44426316767189        2.80968780256563        9.07273766849237
H           -5.22021746065117        3.31499572140177        7.45265273822165
H            0.07915558441758        8.52803818549519        3.98012992458182
H            0.11235721137799        7.65575319413565        2.27515185022385
H            1.39336706590446        7.79586655446369        3.35951697051098
116
 energy: -22.556402756867 gnorm: 0.564763321341 xtb: 6.6.1 (8d0f1dd)
C           -2.53622609724397       -0.13907784712492       -3.82678261577223
C           -1.90258258321675       -0.59490726664978       -2.68176511983270
C           -1.72784316106667        0.36800964446478       -1.54452414977720
C           -1.73771408637360        1.73707563104633       -1.77947134061124
C           -2.27056362121657        2.10624044378392       -3.03472115508946
C           -2.84969787944460        1.23337749026088       -3.91876802473225
C           -1.26241847181435       -0.04897006235054       -0.25557362584547
C           -0.29971297623935        0.71789197209820        0.37909056377675
C           -0.20413397731069        2.06182895965933        0.04767156537315
N           -0.90376756723386        2.52025758379064       -1.05779045316032
C           -1.32435954919207       -1.40514025373472        0.13689127090991
C           -0.42178012740152       -1.91549405272681        1.10035675955632
N            0.43784165948516       -1.08751651171571        1.69774086976936
C            0.47754847213127        0.25818275068951        1.35921292382368
C            1.25944205945405        1.09322125793531        2.08969120284950
C            1.45482478692489        2.45027983899186        1.68533124133596
C            0.53961870286780        2.98015911853496        0.78382901800130
C           -2.44936521612560       -2.08718369723267       -0.40033351804909
C           -2.43230383629066       -3.42875030504451       -0.20316972085971
C           -1.53062390221269       -4.03046643592502        0.74779994418579
C           -0.64432555246132       -3.24038867534567        1.50916906732234
O           -3.63859087393198       -1.50936478512353       -0.94016329849009
O           -1.18650116291054       -1.78283332087273       -2.43954827610240
C           -3.00699108960939        1.38699532291328       -5.39934496189957
C           -1.59496604635646       -5.47206413831506        0.74970898571114
H           -1.82244358328068        3.00898862530751       -3.24268958256435
H           -2.80428645853047       -0.75951277413944       -4.72713660408460
H            0.69367946772009        3.96844270619246        0.59750358206264
H            2.12928596868716        0.68883843162019        2.58862367155763
H            0.07249529573752       -3.84838246406001        2.05218377577035
H           -3.23893321378220       -3.91756830946089       -0.73756396645789
O           -2.82628269635166        0.31298632322563       -6.01355423145822
O           -3.46472617192628        2.43985670285916       -5.96349612982156
C           -3.77082266801797        2.27701006552108       -7.36777781024947
C            2.66409664131734        3.06126480820588        2.22497317516070
O            3.44119615358894        2.33278002896662        2.75021272347456
O            2.99098497779003        4.32569023527890        2.07083184070417
C            4.08152154564629        4.70790961058133        2.86259485935120
O           -0.71394297944703       -6.29178000517987        0.46504535447557
O           -2.94124403273150       -5.99066060668631        0.83822368583891
C           -2.82041356146116       -7.32471744745591        1.41853193524617
C           -4.88691712938978       -2.20978435828597       -1.10101959668498
C           -0.42812709552696       -2.12488763231050       -3.58293828743489
H           -3.82298599288610       -7.57309442255264        1.63277522930129
H           -2.10755153297444       -7.37310854819255        2.28085330556045
H           -2.45448435067348       -8.09326798939663        0.61303615710334
H            3.73139059464807        4.97089612472238        3.75375617431627
H            4.51174066061515        5.67389414372679        2.43034578797629
H            4.75515006322694        3.84690376330824        3.06640464829785
H           -0.78382253941465       -2.18271400521628       -4.53885909507642
H           -0.06936359852100       -3.13159256378053       -3.46357994421263
H            0.30710867311236       -1.51998564193042       -3.72195116703138
H           -5.35892747436373       -1.81211182670540       -2.05774871273325
H           -5.76856861677044       -2.16259600095263       -0.34056250938496
H           -4.54370618860347       -3.23623793958520       -0.94457089011667
H           -3.07644121080585        1.55626775463011       -7.72763212200777
H           -3.64132974402663        3.26988717493473       -7.84128925658913
H           -4.87917172651821        2.13782478936648       -7.37853517879855
C           -1.49352959395928        3.45045422976642        5.09460968825800
C           -1.68278719523688        2.15339980205874        5.60732931906372
C           -0.68558679115087        1.68770607556978        6.38670254829681
C            0.66941876999601        2.09948053443061        6.29446191972499
C            0.98504298393494        3.26258775950477        5.49083196113669
C           -0.12490752012205        4.01439867302734        5.06481041003348
C           -1.03667888729287        0.75723280295453        7.34933265434387
C           -0.00518294189462       -0.26073813655320        7.73054021335855
C            1.41469882558214        0.12111521016183        7.39618161307748
N            1.64204088982067        1.31017903640567        6.84581628415932
C           -2.28662875994458        0.60290114386993        7.89175110178359
C           -2.46825040961118       -0.52103259969982        8.92362438039992
N           -1.80051328065259       -1.64276857787329        8.64622123885701
C           -0.50994514870332       -1.47803058445902        8.38072158750389
C            0.64042709221645       -2.24707108051469        8.82131985192646
C            1.97575946637091       -1.85625176483024        8.53381228165679
C            2.38191915405271       -0.72248729643093        7.72690701954882
C           -3.46900645614179        1.42656999074641        7.85038622783937
C           -4.58804720445955        1.17177183542081        8.67825407181082
C           -4.78930791135265       -0.08835718653326        9.24151842395903
C           -3.78493535596874       -0.95236648838955        9.31538368550959
O           -3.46956814973891        2.68794313784489        7.21498158811621
O           -2.82583814371049        1.39690581255480        5.21972572815368
C           -0.03375869886682        5.35883023984350        4.31107201473634
C           -6.10497855494339       -0.39685642077242       10.05849380382872
H            1.76995310731603        3.23539415978423        4.70363873931335
H           -2.04438694007859        3.84426642121727        4.21803686044939
H            3.54252004687764       -0.65889272647540        7.51447057699747
H            0.56869081946400       -3.13711467889322        9.54676602027110
H           -3.74214379048087       -1.71855719478688        9.99264834569190
H           -5.47407028859793        1.85876770585204        8.81171740992908
O           -1.00857844329822        5.65891822438200        3.64563472929581
O            1.13451514538528        5.94905377756071        4.33277608522227
C            1.01603160619536        7.22180086794931        3.78320443476021
C            2.88455957481039       -2.74200673068140        9.23718920907682
O            2.24868043052293       -3.60859671815178        9.94790276762537
O            4.26609696121266       -2.45482023063549        9.46420753245795
C            5.07057624906653       -3.15415975018521       10.36526648239192
O           -6.75485021520488        0.59097395199837       10.35456152603431
O           -6.49052041117405       -1.63470652652403       10.37912945206784
C           -7.55925547168303       -1.49557547115106       11.23219111084325
C           -4.31871193406103        3.59622555379658        7.85686915093899
C           -2.26332353674325        0.35217638269691        4.32522036012630
H           -8.39953352938432       -1.29791773560663       10.60451642383527
H           -7.18065871102797       -0.66135840554214       11.91470641196770
H           -7.55807135733367       -2.41258350064684       11.80903718115514
H            4.69120369365886       -3.17267474924245       11.44604814377207
H            5.94282595960704       -2.46170884221925       10.17505357924688
H            5.22514578723609       -4.13490055657675        9.96013564947531
H           -1.98306641224432        0.64512492682292        3.39967911725063
H           -2.98151996912436       -0.49101456123006        4.21810397208520
H           -1.38766262270473       -0.03296494063928        4.90391291735592
H           -4.42240008212726        4.28049570786364        7.05607667563523
H           -4.00207360936764        3.93160623426087        8.69940197977014
H           -5.33070519478872        3.07271937701486        7.85284340317341
H            0.02461887695470        7.22583897430377        3.18761789452446
H            1.98657120531691        7.59450938276019        3.45407079560576
H            0.60445954292373        8.09199397780277        4.46284236142746
116
 energy: -22.586170674151 gnorm: 0.526690086027 xtb: 6.6.1 (8d0f1dd)
C           -2.01322123136034        0.06280718483293       -4.71816450521747
C           -1.38299440154697       -0.64384604984785       -3.71529770881631
C           -1.24779564161412       -0.10118422193972       -2.40255072156119
C           -1.34729945400773        1.38475502265422       -2.24621592305569
C           -1.60534059928382        2.15919595778759       -3.44340185674399
C           -2.22936063303886        1.43846985255552       -4.39727955632198
C           -0.81484430796232       -0.89624684610567       -1.22647496130201
C           -0.04004709068862       -0.19946322086919       -0.32263908751927
C            0.04310924471354        1.25835716112910       -0.61990735041065
N           -0.54001045401880        2.06390872303103       -1.47090199247259
C           -1.10061891340950       -2.27674888587809       -0.76487341981469
C           -0.55540348720028       -2.68720186486811        0.55773189552320
N            0.18067595012438       -2.00407796303913        1.33882197635583
C            0.46122269184149       -0.75160132690416        0.89740884530913
C            1.15408104674834        0.15383871912574        1.73146455812341
C            1.43270755949329        1.48620295305165        1.49224853343427
C            0.92872839123513        1.95233658222681        0.28992261643185
C           -2.25555405235965       -3.00767579526256       -1.24782815486470
C           -2.94788306183197       -4.01880064491251       -0.45520641296217
C           -2.37838799230192       -4.36015361252056        0.77517601927871
C           -1.27900239227658       -3.70132482345959        1.22739177849387
O           -3.00499329192795       -2.51455831594097       -2.43073748031521
O           -1.11158376283480       -1.98077359321197       -4.19433710496199
C           -2.75958534471903        2.29535304807329       -5.45071730047825
C           -3.14899666603239       -5.46833582222568        1.48878980224970
H           -1.64325046077362        3.20864325820300       -3.61987334545382
H           -2.45927518970809       -0.17574977134472       -5.67241839980088
H            1.03671001468396        2.99731992753272       -0.09488748447838
H            1.53766343270439       -0.41821861764563        2.64571499706682
H           -0.89961243444758       -4.00121164626263        2.10646604304842
H           -3.98776541965288       -4.38248731760002       -0.53022862016640
O           -2.84003669859208        1.82495761629871       -6.56806957255396