      -----------------------------------------------------------      
     |                   =====================                   |     
     |                           x T B                           |     
     |                   =====================                   |     
     |                         S. Grimme                         |     
     |          Mulliken Center for Theoretical Chemistry        |     
     |                    University of Bonn                     |     
      -----------------------------------------------------------      

   * xtb version 6.6.1 (8d0f1dd) compiled by 'runner@Mac-1690902418499.local' on 2023-08-01

   xtb is free software: you can redistribute it and/or modify it under
   the terms of the GNU Lesser General Public License as published by
   the Free Software Foundation, either version 3 of the License, or
   (at your option) any later version.
   
   xtb is distributed in the hope that it will be useful,
   but WITHOUT ANY WARRANTY; without even the implied warranty of
   MERCHANTABILITY or FITNESS FOR A PARTICULAR PURPOSE.  See the
   GNU Lesser General Public License for more details.
   
   Cite this work as:
   * C. Bannwarth, E. Caldeweyher, S. Ehlert, A. Hansen, P. Pracht,
     J. Seibert, S. Spicher, S. Grimme, WIREs Comput. Mol. Sci., 2020, 11,
     e01493. DOI: 10.1002/wcms.1493
   
   for GFN2-xTB:
   * C. Bannwarth, S. Ehlert and S. Grimme., J. Chem. Theory Comput., 2019,
     15, 1652-1671. DOI: 10.1021/acs.jctc.8b01176
   for GFN1-xTB:
   * S. Grimme, C. Bannwarth, P. Shushkov, J. Chem. Theory Comput., 2017,
     13, 1989-2009. DOI: 10.1021/acs.jctc.7b00118
   for GFN0-xTB:
   * P. Pracht, E. Caldeweyher, S. Ehlert, S. Grimme, ChemRxiv, 2019, preprint.
     DOI: 10.26434/chemrxiv.8326202.v1
   for GFN-FF:
   * S. Spicher and S. Grimme, Angew. Chem. Int. Ed., 2020, 59, 15665-15673.
     DOI: 10.1002/anie.202004239
   
   for ALPB and GBSA implicit solvation:
   * S. Ehlert, M. Stahn, S. Spicher, S. Grimme, J. Chem. Theory Comput.,
     2021, 17, 4250-4261. DOI: 10.1021/acs.jctc.1c00471
   
   for DFT-D4:
   * E. Caldeweyher, C. Bannwarth and S. Grimme, J. Chem. Phys., 2017,
     147, 034112. DOI: 10.1063/1.4993215
   * E. Caldeweyher, S. Ehlert, A. Hansen, H. Neugebauer, S. Spicher,
     C. Bannwarth and S. Grimme, J. Chem. Phys., 2019, 150, 154122.
     DOI: 10.1063/1.5090222
   * E. Caldeweyher, J.-M. Mewes, S. Ehlert and S. Grimme, Phys. Chem. Chem. Phys.
     2020, 22, 8499-8512. DOI: 10.1039/D0CP00502A
   
   for sTDA-xTB:
   * S. Grimme and C. Bannwarth, J. Chem. Phys., 2016, 145, 054103.
     DOI: 10.1063/1.4959605
   
   in the mass-spec context:
   * V. Asgeirsson, C. Bauer and S. Grimme, Chem. Sci., 2017, 8, 4879.
     DOI: 10.1039/c7sc00601b
   * J. Koopman and S. Grimme, ACS Omega 2019, 4, 12, 15120-15133.
     DOI: 10.1021/acsomega.9b02011
   
   for metadynamics refer to:
   * S. Grimme, J. Chem. Theory Comput., 2019, 155, 2847-2862
     DOI: 10.1021/acs.jctc.9b00143
   
   for SPH calculations refer to:
   * S. Spicher and S. Grimme, J. Chem. Theory Comput., 2021, 17, 1701-1714
     DOI: 10.1021/acs.jctc.0c01306
   
   with help from (in alphabetical order)
   P. Atkinson, C. Bannwarth, F. Bohle, G. Brandenburg, E. Caldeweyher
   M. Checinski, S. Dohm, S. Ehlert, S. Ehrlich, I. Gerasimov, C. Hölzer
   A. Katbashev, J. Koopman, C. Lavigne, S. Lehtola, F. März, M. Müller,
   F. Musil, H. Neugebauer, J. Pisarek, C. Plett, P. Pracht, F. Pultar,
   J. Seibert, P. Shushkov, S. Spicher, M. Stahn, M. Steiner, T. Strunk,
   J. Stückrath, T. Rose, and J. Unsleber
   
 * started run on 2024/11/07 at 12:09:13.076     

           -------------------------------------------------
          |                Calculation Setup                |
           -------------------------------------------------

          program call               : xtb opt_radical_stacked_dimer_Base1CO2Me.mol --opt --gfn2 --chrg -1 --uhf 0 --tight
          coordinate file            : opt_radical_stacked_dimer_Base1CO2Me.mol
          omp threads                :                     8

   ID    Z sym.   atoms
    1    6 C      1-9, 11, 12, 14-21, 24-35, 37, 38, 40-47, 50-52, 56, 58,
                  62, 65, 68, 71, 102-110, 112, 113, 115-122, 125-136, 138,
                  139, 141-148, 151-153, 157, 159, 163, 166, 169, 172
    2    7 N      10, 13, 36, 39, 111, 114, 137, 140
    3    8 O      22, 23, 48, 49, 54, 55, 57, 59-61, 63, 64, 66, 67, 69, 70,
                  123, 124, 149, 150, 155, 156, 158, 160-162, 164, 165, 167,
                  168, 170, 171
    4    5 B      53, 154
    5    1 H      72-101, 173-202

molecular fragmentation (1/2 indicates fragments):
111111111111111111111111111111111111111111111111111111111111111111111111
111111111111111111111111111112222222222222222222222222222222222222222222
2222222222222222222222222222222222222222222222222222222222
# atoms in fragment 1/2:   101   101
 fragment masses (1/2) :      953.60      953.60
CMA distance (Bohr)    :   8.972
constraining FC (au)   :  0.0500
########################################################################
[WARNING] Please study the warnings concerning your input carefully
-1- prog_main_parseArguments: Unknown option '--tight' provided
########################################################################

           -------------------------------------------------
          |                 G F N 2 - x T B                 |
           -------------------------------------------------

        Reference                      10.1021/acs.jctc.8b01176
      * Hamiltonian:
        H0-scaling (s, p, d)           1.850000    2.230000    2.230000
        zeta-weighting                 0.500000
      * Dispersion:
        s8                             2.700000
        a1                             0.520000
        a2                             5.000000
        s9                             5.000000
      * Repulsion:
        kExp                           1.500000    1.000000
        rExp                           1.000000
      * Coulomb:
        alpha                          2.000000
        third order                    shell-resolved
        anisotropic                    true
        a3                             3.000000
        a5                             4.000000
        cn-shift                       1.200000
        cn-exp                         4.000000
        max-rad                        5.000000

q/qsh data taken from xtbrestart
CAMM data taken from xtbrestart

          ...................................................
          :                      SETUP                      :
          :.................................................:
          :  # basis functions                 628          :
          :  # atomic orbitals                 628          :
          :  # shells                          344          :
          :  # electrons                       699          :
          :  max. iterations                   250          :
          :  Hamiltonian                  GFN2-xTB          :
          :  restarted?                       true          :
          :  GBSA solvation                  false          :
          :  PC potential                    false          :
          :  electronic temp.          300.0000000     K    :
          :  accuracy                    1.0000000          :
          :  -> integral cutoff          0.2500000E+02      :
          :  -> integral neglect         0.1000000E-07      :
          :  -> SCF convergence          0.1000000E-05 Eh   :
          :  -> wf. convergence          0.1000000E-03 e    :
          :  Broyden damping             0.4000000          :
          ...................................................

 iter      E             dE          RMSdq      gap      omega  full diag
   1   -406.1421706 -0.406142E+03  0.106E+00    0.04       0.0  T
   2   -404.0779321  0.206424E+01  0.181E+00    0.14       1.0  T
   3   -405.3578004 -0.127987E+01  0.123E+00    0.19       1.0  T
   4   -405.1904900  0.167310E+00  0.131E+00    0.15       1.0  T
   5   -405.8728549 -0.682365E+00  0.101E+00    0.10       1.0  T
   6   -405.1395295  0.733325E+00  0.138E+00    0.17       1.0  T
   7   -406.2116648 -0.107214E+01  0.566E-01    0.02       1.0  T
   8   -406.2225773 -0.109125E-01  0.476E-01    0.02       1.0  T
   9   -406.2457972 -0.232199E-01  0.390E-01    0.04       1.0  T
  10   -406.2806576 -0.348603E-01  0.330E-01    0.09       1.0  T
  11   -406.2975946 -0.169371E-01  0.268E-01    0.07       1.0  T
  12   -406.2877011  0.989348E-02  0.293E-01    0.07       1.0  T
  13   -406.3103043 -0.226032E-01  0.173E-01    0.06       1.0  T
  14   -406.3156643 -0.536001E-02  0.125E-01    0.06       1.0  T
  15   -406.3151665  0.497814E-03  0.133E-01    0.06       1.0  T
  16   -406.3194893 -0.432276E-02  0.876E-02    0.06       1.0  T
  17   -406.3207906 -0.130138E-02  0.563E-02    0.05       1.0  T
  18   -406.3210737 -0.283095E-03  0.373E-02    0.05       1.0  T
  19   -406.3213516 -0.277909E-03  0.152E-02    0.05       1.0  T
  20   -406.3213609 -0.930970E-05  0.135E-02    0.05       1.0  T
  21   -406.3214007 -0.397289E-04  0.697E-03    0.05       1.0  T
  22   -406.3214156 -0.149062E-04  0.320E-03    0.05       2.2  T
  23   -406.3214169 -0.130198E-05  0.209E-03    0.05       3.4  T
  24   -406.3214170 -0.141716E-06  0.158E-03    0.05       4.5  T
  25   -406.3214176 -0.550429E-06  0.936E-04    0.05       7.5  T
  26   -406.3214179 -0.347045E-06  0.452E-04    0.05      15.6  T

   *** convergence criteria satisfied after 26 iterations ***

         #    Occupation            Energy/Eh            Energy/eV
      -------------------------------------------------------------
         1        2.0000           -0.7034663             -19.1423
       ...           ...                  ...                  ...
       344        1.9999           -0.3093834              -8.4188
       345        1.9999           -0.3088927              -8.4054
       346        1.9998           -0.3084587              -8.3936
       347        1.9995           -0.3075439              -8.3687
       348        1.9956           -0.3054200              -8.3109
       349        1.6844           -0.3010780              -8.1928
       350        0.9786           -0.2990547              -8.1377 (HOMO)
       351        0.3094           -0.2971155              -8.0849 (LUMO)
       352        0.0328           -0.2947401              -8.0203
       353                         -0.2480544              -6.7499
       354                         -0.2455268              -6.6811
       355                         -0.2446069              -6.6561
       ...                                ...                  ...
       628                          0.7873328              21.4244
      -------------------------------------------------------------
                  HL-Gap            0.0019392 Eh            0.0528 eV
             Fermi-level           -0.2991092 Eh           -8.1392 eV

 SCC (total)                   0 d,  0 h,  0 min,  4.545 sec
 SCC setup                      ...        0 min,  0.001 sec (  0.023%)
 Dispersion                     ...        0 min,  0.004 sec (  0.088%)
 classical contributions        ...        0 min,  0.001 sec (  0.015%)
 integral evaluation            ...        0 min,  0.021 sec (  0.458%)
 iterations                     ...        0 min,  4.325 sec ( 95.161%)
 molecular gradient             ...        0 min,  0.171 sec (  3.754%)
 printout                       ...        0 min,  0.023 sec (  0.500%)

         :::::::::::::::::::::::::::::::::::::::::::::::::::::
         ::                     SUMMARY                     ::
         :::::::::::::::::::::::::::::::::::::::::::::::::::::
         :: total energy            -401.307485320267 Eh    ::
         :: gradient norm              0.510746017193 Eh/a0 ::
         :: HOMO-LUMO gap              0.052768372623 eV    ::
         ::.................................................::
         :: SCC energy              -406.321417924837 Eh    ::
         :: -> isotropic ES            0.915196458010 Eh    ::
         :: -> anisotropic ES         -0.054821465893 Eh    ::
         :: -> anisotropic XC          0.091136522186 Eh    ::
         :: -> dispersion             -0.395347722266 Eh    ::
         :: repulsion energy           4.984351820862 Eh    ::
         :: add. restraining           0.000000000000 Eh    ::
         :: total charge              -0.999995892694 e     ::
         :::::::::::::::::::::::::::::::::::::::::::::::::::::

      ----------------------------------------------------------- 
     |                   =====================                   |
     |                        A N C O P T                        |
     |                   =====================                   |
     |               Approximate Normal Coordinate               |
     |                Rational Function Optimizer                |
      ----------------------------------------------------------- 

          ...................................................
          :                      SETUP                      :
          :.................................................:
          :   optimization level            normal          :
          :   max. optcycles                   606          :
          :   ANC micro-cycles                  20          :
          :   degrees of freedom               600          :
          :.................................................:
          :   RF solver                   davidson          :
          :   write xtbopt.log                true          :
          :   linear?                        false          :
          :   energy convergence         0.5000000E-05 Eh   :
          :   grad. convergence          0.1000000E-02 Eh/α :
          :   maxmium RF displ.          1.0000000          :
          :   Hlow (freq-cutoff)         0.1000000E-01      :
          :   Hmax (freq-cutoff)         5.0000000          :
          :   S6 in model hess.         20.0000000          :
          ...................................................

generating ANC from model Hessian ...
Using Lindh-Hessian (1995)
 Shifting diagonal of input Hessian by    1.0038531393731063E-002
 Lowest  eigenvalues of input Hessian
    0.010000    0.000000    0.000000    0.000000    0.000000    0.000000
    0.000000    0.010084    0.010122    0.010152    0.010169    0.010179
    0.010252    0.010317    0.010394    0.010510    0.010575    0.010646
 Highest eigenvalues
    2.324536    2.324678    2.325501    2.326986    2.327219    2.331327


........................................................................
.............................. CYCLE    1 ..............................
........................................................................

 iter      E             dE          RMSdq      gap      omega  full diag
   1   -406.3214180 -0.406321E+03  0.232E-04    0.05       0.0  T
   2   -406.3214104  0.751735E-05  0.324E-03    0.05       2.2  T
   3   -406.3214180 -0.753598E-05  0.158E-04    0.05      44.5  T
   4   -406.3214179  0.422891E-07  0.293E-04    0.05      24.0  T
   5   -406.3214180 -0.376066E-07  0.192E-04    0.05      36.6  T
     SCC iter.                  ...        0 min,  1.006 sec
     gradient                   ...        0 min,  0.174 sec
 * total energy  :  -401.3074854 Eh     change       -0.5288439E-07 Eh
   gradient norm :     0.5107465 Eh/α   predicted     0.0000000E+00 (-100.00%)
   displ. norm   :     0.4796975 α      lambda       -0.1862728E+00
   maximum displ.:     0.0715712 α      in ANC's #298, #271, #284, ...

........................................................................
.............................. CYCLE    2 ..............................
........................................................................

 iter      E             dE          RMSdq      gap      omega  full diag
   1   -406.4211116 -0.406421E+03  0.221E-01    0.04       0.0  T
   2   -406.3698211  0.512904E-01  0.373E-01    0.04       1.0  T
   3   -406.3272855  0.425356E-01  0.438E-01    0.08       1.0  T
   4   -406.2456239  0.816616E-01  0.497E-01    0.10       1.0  T
   5   -406.3313686 -0.857448E-01  0.372E-01    0.03       1.0  T
   6   -406.4163761 -0.850075E-01  0.138E-01    0.05       1.0  T
   7   -406.4179030 -0.152695E-02  0.127E-01    0.05       1.0  T
   8   -406.4220973 -0.419425E-02  0.720E-02    0.04       1.0  T
   9   -406.4236239 -0.152665E-02  0.327E-02    0.04       1.0  T
  10   -406.4237331 -0.109121E-03  0.212E-02    0.04       1.0  T
  11   -406.4238841 -0.151063E-03  0.176E-02    0.04       1.0  T
  12   -406.4239993 -0.115151E-03  0.616E-03    0.04       1.1  T
  13   -406.4240131 -0.137832E-04  0.211E-03    0.04       3.3  T
  14   -406.4240137 -0.670926E-06  0.136E-03    0.04       5.2  T
  15   -406.4240141 -0.377070E-06  0.756E-04    0.04       9.3  T
  16   -406.4240143 -0.180887E-06  0.284E-04    0.04      24.8  T
     SCC iter.                  ...        0 min,  2.472 sec
     gradient                   ...        0 min,  0.172 sec
 * total energy  :  -401.4531915 Eh     change       -0.1457061E+00 Eh
   gradient norm :     0.2848710 Eh/α   predicted    -0.1146009E+00 ( -21.35%)
   displ. norm   :     0.5150451 α      lambda       -0.1130135E+00
   maximum displ.:     0.0769339 α      in ANC's #183, #298, #403, ...

........................................................................
.............................. CYCLE    3 ..............................
........................................................................

 iter      E             dE          RMSdq      gap      omega  full diag
   1   -406.5104556 -0.406510E+03  0.233E-01    0.02       0.0  T
   2   -406.4110345  0.994211E-01  0.445E-01    0.01       1.0  T
   3   -406.3653149  0.457196E-01  0.468E-01    0.03       1.0  T
   4   -406.3830623 -0.177473E-01  0.485E-01    0.03       1.0  T
   5   -406.4641905 -0.811283E-01  0.370E-01    0.13       1.0  T
   6   -406.4987484 -0.345579E-01  0.204E-01    0.04       1.0  T
   7   -406.5052648 -0.651637E-02  0.146E-01    0.03       1.0  T
   8   -406.5131040 -0.783922E-02  0.515E-02    0.02       1.0  T
   9   -406.5140403 -0.936251E-03  0.289E-02    0.02       1.0  T
  10   -406.5140263  0.139553E-04  0.239E-02    0.02       1.0  T
  11   -406.5142088 -0.182495E-03  0.152E-02    0.02       1.0  T
  12   -406.5143064 -0.975934E-04  0.590E-03    0.02       1.2  T
  13   -406.5143176 -0.111582E-04  0.301E-03    0.02       2.3  T
  14   -406.5143205 -0.295022E-05  0.183E-03    0.02       3.9  T
  15   -406.5143214 -0.862648E-06  0.980E-04    0.02       7.2  T
  16   -406.5143219 -0.536500E-06  0.381E-04    0.02      18.5  T
     SCC iter.                  ...        0 min,  2.336 sec
     gradient                   ...        0 min,  0.167 sec
 * total energy  :  -401.5254147 Eh     change       -0.7222324E-01 Eh
   gradient norm :     0.0757803 Eh/α   predicted    -0.7150146E-01 (  -1.00%)
   displ. norm   :     0.4756874 α      lambda       -0.2366630E-01
   maximum displ.:     0.1136950 α      in ANC's #93, #92, #84, ...

........................................................................
.............................. CYCLE    4 ..............................
........................................................................

 iter      E             dE          RMSdq      gap      omega  full diag
   1   -406.5526511 -0.406553E+03  0.163E-01    0.02       0.0  T
   2   -406.3768368  0.175814E+00  0.505E-01    0.10       1.0  T
   3   -406.5030351 -0.126198E+00  0.276E-01    0.02       1.0  T
   4   -406.5376682 -0.346331E-01  0.220E-01    0.02       1.0  T
   5   -406.5260925  0.115756E-01  0.278E-01    0.11       1.0  T
   6   -406.5484549 -0.223624E-01  0.118E-01    0.02       1.0  T
   7   -406.5526963 -0.424138E-02  0.604E-02    0.02       1.0  T
   8   -406.5541282 -0.143188E-02  0.286E-02    0.02       1.0  T
   9   -406.5544066 -0.278377E-03  0.174E-02    0.02       1.0  T
  10   -406.5544887 -0.820947E-04  0.123E-02    0.02       1.0  T
  11   -406.5545060 -0.172915E-04  0.699E-03    0.02       1.0  T
  12   -406.5545357 -0.297593E-04  0.268E-03    0.02       2.6  T
  13   -406.5545395 -0.380600E-05  0.106E-03    0.02       6.7  T
  14   -406.5545398 -0.295351E-06  0.590E-04    0.02      11.9  T
  15   -406.5545399 -0.662748E-07  0.304E-04    0.02      23.2  T
     SCC iter.                  ...        0 min,  2.190 sec
     gradient                   ...        0 min,  0.171 sec
 * total energy  :  -401.5417670 Eh     change       -0.1635230E-01 Eh
   gradient norm :     0.0342464 Eh/α   predicted    -0.1451347E-01 ( -11.25%)
   displ. norm   :     0.4887123 α      lambda       -0.9638932E-02
   maximum displ.:     0.1335957 α      in ANC's #93, #92, #84, ...

........................................................................
.............................. CYCLE    5 ..............................
........................................................................

 iter      E             dE          RMSdq      gap      omega  full diag
   1   -406.5767637 -0.406577E+03  0.140E-01    0.02       0.0  T
   2   -406.3841663  0.192597E+00  0.520E-01    0.13       1.0  T
   3   -406.5461499 -0.161984E+00  0.222E-01    0.03       1.0  T
   4   -406.5691517 -0.230018E-01  0.171E-01    0.05       1.0  T
   5   -406.5200888  0.490630E-01  0.374E-01    0.07       1.0  T
   6   -406.5772219 -0.571331E-01  0.641E-02    0.03       1.0  T
   7   -406.5774726 -0.250778E-03  0.440E-02    0.02       1.0  T
   8   -406.5788274 -0.135477E-02  0.172E-02    0.02       1.0  T
   9   -406.5789221 -0.946722E-04  0.122E-02    0.02       1.0  T
  10   -406.5789405 -0.184334E-04  0.833E-03    0.02       1.0  T
  11   -406.5789664 -0.258606E-04  0.237E-03    0.02       3.0  T
  12   -406.5789672 -0.804298E-06  0.124E-03    0.02       5.7  T
  13   -406.5789674 -0.245760E-06  0.970E-04    0.02       7.3  T
  14   -406.5789678 -0.369546E-06  0.474E-04    0.02      14.8  T
     SCC iter.                  ...        0 min,  2.047 sec
     gradient                   ...        0 min,  0.175 sec
 * total energy  :  -401.5487969 Eh     change       -0.7029870E-02 Eh
   gradient norm :     0.0248253 Eh/α   predicted    -0.5970547E-02 ( -15.07%)
   displ. norm   :     0.5550697 α      lambda       -0.5794397E-02
   maximum displ.:     0.1463372 α      in ANC's #37, #92, #93, ...

........................................................................
.............................. CYCLE    6 ..............................
........................................................................

 iter      E             dE          RMSdq      gap      omega  full diag
   1   -406.5958481 -0.406596E+03  0.153E-01    0.03       0.0  T
   2   -406.4588275  0.137021E+00  0.456E-01    0.08       1.0  T
   3   -406.5510392 -0.922116E-01  0.268E-01    0.05       1.0  T
   4   -406.5769763 -0.259371E-01  0.237E-01    0.09       1.0  T
   5   -406.5746776  0.229871E-02  0.248E-01    0.06       1.0  T
   6   -406.5885742 -0.138966E-01  0.120E-01    0.03       1.0  T
   7   -406.5982795 -0.970531E-02  0.295E-02    0.03       1.0  T
   8   -406.5985372 -0.257700E-03  0.202E-02    0.02       1.0  T
   9   -406.5987396 -0.202423E-03  0.795E-03    0.02       1.0  T
  10   -406.5987039  0.356997E-04  0.939E-03    0.02       1.0  T
  11   -406.5987621 -0.582349E-04  0.209E-03    0.02       3.4  T
  12   -406.5987552  0.693696E-05  0.343E-03    0.02       2.1  T
  13   -406.5987632 -0.802768E-05  0.741E-04    0.02       9.5  T
  14   -406.5987631  0.863436E-07  0.695E-04    0.02      10.1  T
  15   -406.5987635 -0.342868E-06  0.113E-04    0.02      62.4  T
     SCC iter.                  ...        0 min,  2.725 sec
     gradient                   ...        0 min,  0.173 sec
 * total energy  :  -401.5539015 Eh     change       -0.5104580E-02 Eh
   gradient norm :     0.0285833 Eh/α   predicted    -0.3789840E-02 ( -25.76%)
   displ. norm   :     0.8699497 α      lambda       -0.9194855E-02
   maximum displ.:     0.2468524 α      in ANC's #37, #92, #34, ...

........................................................................
.............................. CYCLE    7 ..............................
........................................................................

 iter      E             dE          RMSdq      gap      omega  full diag
   1   -406.6090790 -0.406609E+03  0.300E-01    0.04       0.0  T
   2   -406.5944358  0.146432E-01  0.278E-01    0.05       1.0  T
   3   -406.4396266  0.154809E+00  0.533E-01    0.05       1.0  T
   4   -406.5811779 -0.141551E+00  0.288E-01    0.05       1.0  T
   5   -406.5713153  0.986267E-02  0.340E-01    0.17       1.0  T
   6   -406.5791823 -0.786699E-02  0.260E-01    0.08       1.0  T
   7   -406.5944163 -0.152340E-01  0.205E-01    0.05       1.0  T
   8   -406.6078227 -0.134064E-01  0.137E-01    0.04       1.0  T
   9   -406.6173418 -0.951917E-02  0.738E-02    0.04       1.0  T
  10   -406.6195331 -0.219129E-02  0.466E-02    0.04       1.0  T
  11   -406.6200346 -0.501473E-03  0.380E-02    0.04       1.0  T
  12   -406.6208326 -0.797964E-03  0.158E-02    0.04       1.0  T
  13   -406.6209618 -0.129204E-03  0.730E-03    0.03       1.0  T
  14   -406.6209945 -0.327096E-04  0.118E-03    0.03       6.0  T
  15   -406.6209947 -0.231506E-06  0.794E-04    0.03       8.9  T
  16   -406.6209949 -0.217761E-06  0.268E-04    0.03      26.3  T
     SCC iter.                  ...        0 min,  2.769 sec
     gradient                   ...        0 min,  0.178 sec
 * total energy  :  -401.5661936 Eh     change       -0.1229214E-01 Eh
   gradient norm :     0.0694455 Eh/α   predicted    -0.8076908E-02 ( -34.29%)
   displ. norm   :     0.7595806 α      lambda       -0.2062512E-01
   maximum displ.:     0.2053727 α      in ANC's #37, #57, #61, ...

........................................................................
.............................. CYCLE    8 ..............................
........................................................................

 iter      E             dE          RMSdq      gap      omega  full diag
   1   -406.6240929 -0.406624E+03  0.266E-01    0.04       0.0  T
   2   -406.5870557  0.370372E-01  0.343E-01    0.04       1.0  T
   3   -406.5401961  0.468596E-01  0.387E-01    0.07       1.0  T
   4   -406.5920762 -0.518801E-01  0.301E-01    0.09       1.0  T
   5   -406.5911727  0.903561E-03  0.350E-01    0.18       1.0  T
   6   -406.6214681 -0.302954E-01  0.170E-01    0.06       1.0  T
   7   -406.6278063 -0.633819E-02  0.136E-01    0.05       1.0  T
   8   -406.6365987 -0.879248E-02  0.593E-02    0.05       1.0  T
   9   -406.6361696  0.429120E-03  0.551E-02    0.04       1.0  T
  10   -406.6380395 -0.186991E-02  0.179E-02    0.04       1.0  T
  11   -406.6380360  0.353731E-05  0.178E-02    0.04       1.0  T
  12   -406.6381706 -0.134565E-03  0.706E-03    0.04       1.0  T
  13   -406.6381765 -0.589381E-05  0.707E-03    0.04       1.0  T
  14   -406.6382048 -0.283800E-04  0.111E-03    0.04       6.4  T
  15   -406.6382053 -0.491687E-06  0.418E-04    0.04      16.8  T
  16   -406.6382053 -0.172782E-07  0.324E-04    0.04      21.7  T
     SCC iter.                  ...        0 min,  3.313 sec
     gradient                   ...        0 min,  0.170 sec
 * total energy  :  -401.5837136 Eh     change       -0.1751993E-01 Eh
   gradient norm :     0.0742695 Eh/α   predicted    -0.1626254E-01 (  -7.18%)
   displ. norm   :     0.5182753 α      lambda       -0.1551544E-01
   maximum displ.:     0.1060623 α      in ANC's #37, #93, #92, ...

........................................................................
.............................. CYCLE    9 ..............................
........................................................................

 iter      E             dE          RMSdq      gap      omega  full diag
   1   -406.6509093 -0.406651E+03  0.171E-01    0.04       0.0  T
   2   -406.6482320  0.267725E-02  0.130E-01    0.04       1.0  T
   3   -406.6023140  0.459180E-01  0.362E-01    0.22       1.0  T
   4   -406.6440698 -0.417558E-01  0.112E-01    0.04       1.0  T
   5   -406.5450528  0.990169E-01  0.390E-01    0.06       1.0  T
   6   -406.6449755 -0.999227E-01  0.986E-02    0.04       1.0  T
   7   -406.6503013 -0.532580E-02  0.407E-02    0.04       1.0  T
   8   -406.6509826 -0.681269E-03  0.227E-02    0.04       1.0  T
   9   -406.6513115 -0.328868E-03  0.720E-03    0.04       1.0  T
  10   -406.6513354 -0.239453E-04  0.318E-03    0.04       2.2  T
  11   -406.6513331  0.227292E-05  0.388E-03    0.04       1.8  T
  12   -406.6513386 -0.548586E-05  0.937E-04    0.04       7.5  T
  13   -406.6513386  0.581146E-07  0.120E-03    0.04       5.9  T
  14   -406.6513390 -0.452343E-06  0.610E-04    0.04      11.5  T
  15   -406.6513392 -0.145956E-06  0.942E-05    0.04      74.7  T
     SCC iter.                  ...        0 min,  3.432 sec
     gradient                   ...        0 min,  0.174 sec
 * total energy  :  -401.5889442 Eh     change       -0.5230691E-02 Eh
   gradient norm :     0.0632063 Eh/α   predicted    -0.9841522E-02 (  88.15%)
   displ. norm   :     0.4056500 α      lambda       -0.1497308E-01
   maximum displ.:     0.0985826 α      in ANC's #171, #122, #69, ...

........................................................................
.............................. CYCLE   10 ..............................
........................................................................

 iter      E             dE          RMSdq      gap      omega  full diag
   1   -406.6619273 -0.406662E+03  0.155E-01    0.04       0.0  T
   2   -406.5849962  0.769310E-01  0.344E-01    0.03       1.0  T
   3   -406.6371699 -0.521736E-01  0.211E-01    0.04       1.0  T
   4   -406.6369639  0.205975E-03  0.240E-01    0.10       1.0  T
   5   -406.6322971  0.466679E-02  0.254E-01    0.10       1.0  T
   6   -406.6516177 -0.193206E-01  0.137E-01    0.04       1.0  T
   7   -406.6583101 -0.669247E-02  0.824E-02    0.04       1.0  T
   8   -406.6620015 -0.369132E-02  0.355E-02    0.04       1.0  T
   9   -406.6625808 -0.579346E-03  0.198E-02    0.04       1.0  T
  10   -406.6628177 -0.236928E-03  0.633E-03    0.04       1.1  T
  11   -406.6628304 -0.126699E-04  0.392E-03    0.04       1.8  T
  12   -406.6628357 -0.529973E-05  0.103E-03    0.04       6.8  T
  13   -406.6628344  0.130542E-05  0.155E-03    0.04       4.5  T
  14   -406.6628360 -0.162417E-05  0.366E-04    0.04      19.2  T
  15   -406.6628360 -0.935228E-08  0.282E-04    0.04      25.0  T
  16   -406.6628361 -0.388475E-07  0.140E-04    0.04      50.2  T
     SCC iter.                  ...        0 min,  2.899 sec
     gradient                   ...        0 min,  0.180 sec
 * total energy  :  -401.5910273 Eh     change       -0.2083044E-02 Eh
   gradient norm :     0.0554788 Eh/α   predicted    -0.8718489E-02 ( 318.55%)
   displ. norm   :     0.3176415 α      lambda       -0.9840563E-02
   maximum displ.:     0.0858411 α      in ANC's #57, #69, #61, ...

........................................................................
.............................. CYCLE   11 ..............................
........................................................................

 iter      E             dE          RMSdq      gap      omega  full diag
   1   -406.6519604 -0.406652E+03  0.104E-01    0.04       0.0  T
   2   -406.6222421  0.297182E-01  0.232E-01    0.04       1.0  T
   3   -406.6489424 -0.267003E-01  0.123E-01    0.06       1.0  T
   4   -406.6382758  0.106666E-01  0.211E-01    0.07       1.0  T
   5   -406.6506171 -0.123413E-01  0.959E-02    0.04       1.0  T
   6   -406.6483159  0.230114E-02  0.102E-01    0.04       1.0  T
   7   -406.6541130 -0.579710E-02  0.415E-02    0.04       1.0  T
   8   -406.6544840 -0.370922E-03  0.281E-02    0.04       1.0  T
   9   -406.6549720 -0.488006E-03  0.703E-03    0.04       1.0  T
  10   -406.6549727 -0.704294E-06  0.610E-03    0.04       1.2  T
  11   -406.6549957 -0.230468E-04  0.175E-03    0.04       4.0  T
  12   -406.6549938  0.190149E-05  0.212E-03    0.04       3.3  T
  13   -406.6549968 -0.302253E-05  0.369E-04    0.04      19.1  T
  14   -406.6549968  0.417879E-08  0.319E-04    0.04      22.0  T
  15   -406.6549969 -0.597140E-07  0.101E-04    0.04      69.4  T
     SCC iter.                  ...        0 min,  5.400 sec
     gradient                   ...        0 min,  0.190 sec
 * total energy  :  -401.5959828 Eh     change       -0.4955495E-02 Eh
   gradient norm :     0.0285032 Eh/α   predicted    -0.5416716E-02 (   9.31%)
   displ. norm   :     0.1711295 α      lambda       -0.2037104E-02
   maximum displ.:     0.0528915 α      in ANC's #92, #88, #79, ...

........................................................................
.............................. CYCLE   12 ..............................
........................................................................

 iter      E             dE          RMSdq      gap      omega  full diag
   1   -406.6472599 -0.406647E+03  0.497E-02    0.04       0.0  T
   2   -406.6423146  0.494523E-02  0.867E-02    0.04       1.0  T
   3   -406.6244615  0.178531E-01  0.179E-01    0.05       1.0  T
   4   -406.6442083 -0.197468E-01  0.902E-02    0.04       1.0  T
   5   -406.6458181 -0.160981E-02  0.588E-02    0.05       1.0  T
   6   -406.6467623 -0.944140E-03  0.280E-02    0.04       1.0  T
   7   -406.6471281 -0.365859E-03  0.167E-02    0.04       1.0  T
   8   -406.6472945 -0.166375E-03  0.691E-03    0.04       1.0  T
   9   -406.6473218 -0.272962E-04  0.284E-03    0.04       2.5  T
  10   -406.6473260 -0.419775E-05  0.101E-03    0.04       7.0  T
  11   -406.6473262 -0.264624E-06  0.382E-04    0.04      18.4  T
  12   -406.6473263 -0.709355E-08  0.313E-04    0.04      22.5  T
     SCC iter.                  ...        0 min,  2.963 sec
     gradient                   ...        0 min,  0.175 sec
 * total energy  :  -401.5969313 Eh     change       -0.9485660E-03 Eh
   gradient norm :     0.0108536 Eh/α   predicted    -0.1048381E-02 (  10.52%)
   displ. norm   :     0.1645678 α      lambda       -0.7244924E-03
   maximum displ.:     0.0632071 α      in ANC's #69, #57, #62, ...

........................................................................
.............................. CYCLE   13 ..............................
........................................................................

 iter      E             dE          RMSdq      gap      omega  full diag
   1   -406.6506961 -0.406651E+03  0.371E-02    0.04       0.0  T
   2   -406.6444883  0.620777E-02  0.946E-02    0.04       1.0  T
   3   -406.6466006 -0.211223E-02  0.781E-02    0.04       1.0  T
   4   -406.6432380  0.336257E-02  0.140E-01    0.07       1.0  T
   5   -406.6502735 -0.703548E-02  0.288E-02    0.04       1.0  T
   6   -406.6505017 -0.228246E-03  0.190E-02    0.04       1.0  T
   7   -406.6506479 -0.146151E-03  0.108E-02    0.04       1.0  T
   8   -406.6507195 -0.716565E-04  0.433E-03    0.04       1.6  T
   9   -406.6507317 -0.121413E-04  0.836E-04    0.04       8.4  T
  10   -406.6507317  0.268912E-07  0.565E-04    0.04      12.5  T
  11   -406.6507318 -0.119366E-06  0.368E-04    0.04      19.1  T
     SCC iter.                  ...        0 min,  2.095 sec
     gradient                   ...        0 min,  0.180 sec
 * total energy  :  -401.5973192 Eh     change       -0.3878680E-03 Eh
   gradient norm :     0.0103860 Eh/α   predicted    -0.3720655E-03 (  -4.07%)
   displ. norm   :     0.1756273 α      lambda       -0.4721996E-03
   maximum displ.:     0.0526940 α      in ANC's #69, #57, #73, ...

........................................................................
.............................. CYCLE   14 ..............................
........................................................................

 iter      E             dE          RMSdq      gap      omega  full diag
   1   -406.6491550 -0.406649E+03  0.375E-02    0.04       0.0  T
   2   -406.6485186  0.636425E-03  0.411E-02    0.04       1.0  T
   3   -406.6414692  0.704935E-02  0.117E-01    0.05       1.0  T
   4   -406.6477122 -0.624291E-02  0.465E-02    0.04       1.0  T
   5   -406.6456764  0.203580E-02  0.823E-02    0.04       1.0  T
   6   -406.6490467 -0.337033E-02  0.156E-02    0.04       1.0  T
   7   -406.6491352 -0.884872E-04  0.792E-03    0.04       1.0  T
   8   -406.6491710 -0.358301E-04  0.353E-03    0.04       2.0  T
   9   -406.6491771 -0.613749E-05  0.150E-03    0.04       4.7  T
  10   -406.6491783 -0.114935E-05  0.724E-04    0.04       9.7  T
  11   -406.6491785 -0.169384E-06  0.380E-04    0.04      18.5  T
  12   -406.6491785 -0.710433E-07  0.966E-05    0.04      72.9  T
     SCC iter.                  ...        0 min,  1.802 sec
     gradient                   ...        0 min,  0.176 sec
 * total energy  :  -401.5975157 Eh     change       -0.1965273E-03 Eh
   gradient norm :     0.0085252 Eh/α   predicted    -0.2433865E-03 (  23.84%)
   displ. norm   :     0.1034121 α      lambda       -0.2204554E-03
   maximum displ.:     0.0340368 α      in ANC's #69, #57, #73, ...

........................................................................
.............................. CYCLE   15 ..............................
........................................................................

 iter      E             dE          RMSdq      gap      omega  full diag
   1   -406.6505916 -0.406651E+03  0.204E-02    0.04       0.0  T
   2   -406.6500626  0.528990E-03  0.306E-02    0.04       1.0  T
   3   -406.6478417  0.222094E-02  0.628E-02    0.04       1.0  T
   4   -406.6496992 -0.185747E-02  0.460E-02    0.05       1.0  T
   5   -406.6499565 -0.257314E-03  0.393E-02    0.04       1.0  T
   6   -406.6505266 -0.570151E-03  0.119E-02    0.04       1.0  T
   7   -406.6505837 -0.570312E-04  0.549E-03    0.04       1.3  T
   8   -406.6506007 -0.170400E-04  0.205E-03    0.04       3.4  T
   9   -406.6506034 -0.273248E-05  0.466E-04    0.04      15.1  T
  10   -406.6506035 -0.245845E-07  0.302E-04    0.04      23.3  T
  11   -406.6506035 -0.158613E-07  0.189E-04    0.04      37.2  T
     SCC iter.                  ...        0 min,  1.783 sec
     gradient                   ...        0 min,  0.170 sec
 * total energy  :  -401.5976490 Eh     change       -0.1332367E-03 Eh
   gradient norm :     0.0042593 Eh/α   predicted    -0.1114082E-03 ( -16.38%)
   displ. norm   :     0.1149021 α      lambda       -0.1316399E-03
   maximum displ.:     0.0369655 α      in ANC's #29, #21, #37, ...

........................................................................
.............................. CYCLE   16 ..............................
........................................................................

 iter      E             dE          RMSdq      gap      omega  full diag
   1   -406.6528397 -0.406653E+03  0.188E-02    0.04       0.0  T
   2   -406.6502491  0.259062E-02  0.631E-02    0.04       1.0  T
   3   -406.6520818 -0.183268E-02  0.340E-02    0.04       1.0  T
   4   -406.6505548  0.152704E-02  0.735E-02    0.05       1.0  T
   5   -406.6526124 -0.205761E-02  0.234E-02    0.04       1.0  T
   6   -406.6528193 -0.206958E-03  0.900E-03    0.04       1.0  T
   7   -406.6528447 -0.253318E-04  0.478E-03    0.04       1.5  T
   8   -406.6528572 -0.125379E-04  0.196E-03    0.04       3.6  T
   9   -406.6528598 -0.256201E-05  0.442E-04    0.04      15.9  T
  10   -406.6528598 -0.294884E-07  0.267E-04    0.04      26.3  T
  11   -406.6528598 -0.816198E-08  0.187E-04    0.04      37.6  T
     SCC iter.                  ...        0 min,  1.989 sec
     gradient                   ...        0 min,  0.177 sec
 * total energy  :  -401.5977413 Eh     change       -0.9233400E-04 Eh
   gradient norm :     0.0035444 Eh/α   predicted    -0.6669114E-04 ( -27.77%)
   displ. norm   :     0.1704380 α      lambda       -0.1170897E-03
   maximum displ.:     0.0545809 α      in ANC's #29, #21, #57, ...

........................................................................
.............................. CYCLE   17 ..............................
........................................................................

 iter      E             dE          RMSdq      gap      omega  full diag
   1   -406.6546951 -0.406655E+03  0.274E-02    0.04       0.0  T
   2   -406.6424855  0.122095E-01  0.134E-01    0.04       1.0  T
   3   -406.6536955 -0.112100E-01  0.408E-02    0.04       1.0  T
   4   -406.6493582  0.433728E-02  0.115E-01    0.06       1.0  T
   5   -406.6543961 -0.503782E-02  0.273E-02    0.04       1.0  T
   6   -406.6546904 -0.294346E-03  0.107E-02    0.04       1.0  T
   7   -406.6547246 -0.341812E-04  0.676E-03    0.04       1.0  T
   8   -406.6547478 -0.231949E-04  0.336E-03    0.04       2.1  T
   9   -406.6547555 -0.770433E-05  0.760E-04    0.04       9.3  T
  10   -406.6547557 -0.173653E-06  0.389E-04    0.04      18.1  T
  11   -406.6547557 -0.686538E-08  0.301E-04    0.04      23.4  T
     SCC iter.                  ...        0 min,  2.594 sec
     gradient                   ...        0 min,  0.184 sec
 * total energy  :  -401.5978166 Eh     change       -0.7525746E-04 Eh
   gradient norm :     0.0035851 Eh/α   predicted    -0.6024791E-04 ( -19.94%)
   displ. norm   :     0.1250580 α      lambda       -0.6052982E-04
   maximum displ.:     0.0377778 α      in ANC's #21, #29, #20, ...

........................................................................
.............................. CYCLE   18 ..............................
........................................................................

 iter      E             dE          RMSdq      gap      omega  full diag
   1   -406.6551351 -0.406655E+03  0.191E-02    0.04       0.0  T
   2   -406.6520081  0.312693E-02  0.720E-02    0.04       1.0  T
   3   -406.6544374 -0.242923E-02  0.335E-02    0.04       1.0  T
   4   -406.6514648  0.297260E-02  0.881E-02    0.05       1.0  T
   5   -406.6549064 -0.344162E-02  0.225E-02    0.04       1.0  T
   6   -406.6551280 -0.221575E-03  0.698E-03    0.04       1.0  T
   7   -406.6551448 -0.168711E-04  0.402E-03    0.04       1.8  T
   8   -406.6551539 -0.908157E-05  0.166E-03    0.04       4.2  T
   9   -406.6551557 -0.182549E-05  0.416E-04    0.04      16.9  T
  10   -406.6551558 -0.612058E-07  0.235E-04    0.04      30.0  T
  11   -406.6551558 -0.940690E-08  0.144E-04    0.04      49.0  T
     SCC iter.                  ...        0 min,  1.699 sec
     gradient                   ...        0 min,  0.176 sec
 * total energy  :  -401.5978577 Eh     change       -0.4109634E-04 Eh
   gradient norm :     0.0029741 Eh/α   predicted    -0.3074208E-04 ( -25.20%)
   displ. norm   :     0.1225017 α      lambda       -0.4891968E-04
   maximum displ.:     0.0371876 α      in ANC's #21, #19, #29, ...

........................................................................
.............................. CYCLE   19 ..............................
........................................................................

 iter      E             dE          RMSdq      gap      omega  full diag
   1   -406.6549308 -0.406655E+03  0.188E-02    0.04       0.0  T
   2   -406.6510252  0.390559E-02  0.783E-02    0.04       1.0  T
   3   -406.6542852 -0.326007E-02  0.321E-02    0.04       1.0  T
   4   -406.6515761  0.270912E-02  0.874E-02    0.05       1.0  T
   5   -406.6547886 -0.321247E-02  0.181E-02    0.04       1.0  T
   6   -406.6549251 -0.136480E-03  0.690E-03    0.04       1.0  T
   7   -406.6549466 -0.215022E-04  0.328E-03    0.04       2.1  T
   8   -406.6549527 -0.608500E-05  0.134E-03    0.04       5.3  T
   9   -406.6549537 -0.105298E-05  0.399E-04    0.04      17.6  T
  10   -406.6549538 -0.502716E-07  0.219E-04    0.04      32.2  T
  11   -406.6549538 -0.956720E-08  0.113E-04    0.04      62.3  T
     SCC iter.                  ...        0 min,  1.759 sec
     gradient                   ...        0 min,  0.177 sec
 * total energy  :  -401.5978907 Eh     change       -0.3301764E-04 Eh
   gradient norm :     0.0023139 Eh/α   predicted    -0.2482929E-04 ( -24.80%)
   displ. norm   :     0.0956613 α      lambda       -0.3302090E-04
   maximum displ.:     0.0319218 α      in ANC's #19, #21, #20, ...

........................................................................
.............................. CYCLE   20 ..............................
........................................................................

 iter      E             dE          RMSdq      gap      omega  full diag
   1   -406.6543317 -0.406654E+03  0.138E-02    0.04       0.0  T
   2   -406.6535073  0.824373E-03  0.376E-02    0.04       1.0  T
   3   -406.6538217 -0.314383E-03  0.288E-02    0.04       1.0  T
   4   -406.6520109  0.181085E-02  0.687E-02    0.05       1.0  T
   5   -406.6542610 -0.225011E-02  0.119E-02    0.04       1.0  T
   6   -406.6543257 -0.647286E-04  0.457E-03    0.04       1.5  T
   7   -406.6543370 -0.112884E-04  0.119E-03    0.04       5.9  T
   8   -406.6543378 -0.780578E-06  0.533E-04    0.04      13.2  T
   9   -406.6543378 -0.427066E-07  0.324E-04    0.04      21.7  T
     SCC iter.                  ...        0 min,  4.436 sec
     gradient                   ...        0 min,  0.198 sec
 * total energy  :  -401.5979133 Eh     change       -0.2257689E-04 Eh
   gradient norm :     0.0020978 Eh/α   predicted    -0.1666346E-04 ( -26.19%)
   displ. norm   :     0.0828820 α      lambda       -0.2233186E-04
   maximum displ.:     0.0324929 α      in ANC's #19, #6, #21, ...
 * RMSD in coord.:     0.2272968 α      energy gain  -0.2904279E+00 Eh

generating ANC from model Hessian ...
Using Lindh-Hessian (1995)
 Shifting diagonal of input Hessian by    9.9967595799939444E-003
 Lowest  eigenvalues of input Hessian
    0.000000    0.000000    0.000000    0.000000    0.000000    0.000000
    0.010000    0.010089    0.010130    0.010137    0.010188    0.010206
    0.010298    0.010327    0.010349    0.010463    0.010525    0.010571
 Highest eigenvalues
    2.390764    2.392420    2.393325    2.395536    2.401431    2.402671


........................................................................
.............................. CYCLE   21 ..............................
........................................................................

 iter      E             dE          RMSdq      gap      omega  full diag
   1   -406.6538006 -0.406654E+03  0.111E-02    0.04       0.0  T
   2   -406.6535690  0.231631E-03  0.199E-02    0.04       1.0  T
   3   -406.6531658  0.403177E-03  0.310E-02    0.04       1.0  T
   4   -406.6528272  0.338565E-03  0.462E-02    0.05       1.0  T
   5   -406.6537893 -0.962107E-03  0.520E-03    0.04       1.4  T
   6   -406.6537960 -0.664329E-05  0.349E-03    0.04       2.0  T
   7   -406.6538018 -0.576369E-05  0.108E-03    0.04       6.5  T
   8   -406.6538025 -0.712126E-06  0.452E-04    0.04      15.6  T
   9   -406.6538025 -0.645745E-07  0.272E-04    0.04      25.8  T
     SCC iter.                  ...        0 min,  4.227 sec
     gradient                   ...        0 min,  0.186 sec
 * total energy  :  -401.5979293 Eh     change       -0.1601363E-04 Eh
   gradient norm :     0.0016694 Eh/α   predicted     0.0000000E+00 (-100.00%)
   displ. norm   :     0.0296807 α      lambda       -0.8160164E-05
   maximum displ.:     0.0077119 α      in ANC's #65, #47, #17, ...

........................................................................
.............................. CYCLE   22 ..............................
........................................................................

 iter      E             dE          RMSdq      gap      omega  full diag
   1   -406.6542904 -0.406654E+03  0.507E-03    0.04       0.0  T
   2   -406.6542363  0.541464E-04  0.975E-03    0.04       1.0  T
   3   -406.6541610  0.752746E-04  0.142E-02    0.04       1.0  T
   4   -406.6540969  0.641288E-04  0.201E-02    0.04       1.0  T
   5   -406.6542772 -0.180339E-03  0.544E-03    0.04       1.3  T
   6   -406.6542904 -0.131960E-04  0.117E-03    0.04       6.0  T
   7   -406.6542907 -0.310152E-06  0.692E-04    0.04      10.2  T
   8   -406.6542910 -0.277684E-06  0.198E-04    0.04      35.5  T
     SCC iter.                  ...        0 min,  3.880 sec
     gradient                   ...        0 min,  0.186 sec
 * total energy  :  -401.5979395 Eh     change       -0.1024565E-04 Eh
   gradient norm :     0.0006774 Eh/α   predicted    -0.4748604E-05 ( -53.65%)
   displ. norm   :     0.0611666 α      lambda       -0.1005385E-04
   maximum displ.:     0.0163936 α      in ANC's #47, #21, #17, ...

........................................................................
.............................. CYCLE   23 ..............................
........................................................................

 iter      E             dE          RMSdq      gap      omega  full diag
   1   -406.6547417 -0.406655E+03  0.845E-03    0.04       0.0  T
   2   -406.6546891  0.526371E-04  0.108E-02    0.04       1.0  T
   3   -406.6541514  0.537657E-03  0.313E-02    0.04       1.0  T
   4   -406.6544312 -0.279736E-03  0.241E-02    0.04       1.0  T
   5   -406.6546481 -0.216903E-03  0.136E-02    0.04       1.0  T
   6   -406.6547413 -0.932254E-04  0.179E-03    0.04       3.9  T
   7   -406.6547418 -0.498068E-06  0.115E-03    0.04       6.1  T
   8   -406.6547426 -0.809885E-06  0.364E-04    0.04      19.3  T
   9   -406.6547427 -0.481539E-07  0.200E-04    0.04      35.2  T
     SCC iter.                  ...        0 min,  4.430 sec
     gradient                   ...        0 min,  0.189 sec
 * total energy  :  -401.5979490 Eh     change       -0.9493589E-05 Eh
   gradient norm :     0.0009749 Eh/α   predicted    -0.5035397E-05 ( -46.96%)
   displ. norm   :     0.0599612 α      lambda       -0.5707778E-05
   maximum displ.:     0.0174565 α      in ANC's #17, #5, #21, ...

........................................................................
.............................. CYCLE   24 ..............................
........................................................................

 iter      E             dE          RMSdq      gap      omega  full diag
   1   -406.6547233 -0.406655E+03  0.738E-03    0.04       0.0  T
   2   -406.6546564  0.668843E-04  0.105E-02    0.04       1.0  T
   3   -406.6541330  0.523420E-03  0.286E-02    0.04       1.0  T
   4   -406.6546443 -0.511316E-03  0.145E-02    0.04       1.0  T
   5   -406.6546764 -0.321152E-04  0.108E-02    0.04       1.0  T
   6   -406.6547229 -0.465501E-04  0.154E-03    0.04       4.6  T
   7   -406.6547237 -0.711867E-06  0.726E-04    0.04       9.7  T
   8   -406.6547239 -0.245967E-06  0.291E-04    0.04      24.2  T
     SCC iter.                  ...        0 min,  1.227 sec
     gradient                   ...        0 min,  0.174 sec
 * total energy  :  -401.5979549 Eh     change       -0.5880566E-05 Eh
   gradient norm :     0.0011132 Eh/α   predicted    -0.2945802E-05 ( -49.91%)
   displ. norm   :     0.0797125 α      lambda       -0.6269847E-05
   maximum displ.:     0.0239949 α      in ANC's #17, #5, #21, ...

........................................................................
.............................. CYCLE   25 ..............................
........................................................................

 iter      E             dE          RMSdq      gap      omega  full diag
   1   -406.6544191 -0.406654E+03  0.848E-03    0.04       0.0  T
   2   -406.6543670  0.520579E-04  0.104E-02    0.04       1.0  T
   3   -406.6538360  0.531020E-03  0.301E-02    0.04       1.0  T
   4   -406.6541720 -0.335983E-03  0.226E-02    0.04       1.0  T
   5   -406.6543643 -0.192368E-03  0.103E-02    0.04       1.0  T
   6   -406.6544178 -0.534644E-04  0.211E-03    0.04       3.3  T
   7   -406.6544196 -0.179577E-05  0.715E-04    0.04       9.8  T
   8   -406.6544198 -0.196664E-06  0.306E-04    0.04      23.0  T
   9   -406.6544198 -0.174772E-07  0.154E-04    0.04      45.6  T
     SCC iter.                  ...        0 min,  1.158 sec
     gradient                   ...        0 min,  0.170 sec
 * total energy  :  -401.5979612 Eh     change       -0.6339145E-05 Eh
   gradient norm :     0.0007664 Eh/α   predicted    -0.3144097E-05 ( -50.40%)
   displ. norm   :     0.0701779 α      lambda       -0.4723823E-05
   maximum displ.:     0.0235278 α      in ANC's #5, #17, #21, ...

........................................................................
.............................. CYCLE   26 ..............................
........................................................................

 iter      E             dE          RMSdq      gap      omega  full diag
   1   -406.6541245 -0.406654E+03  0.682E-03    0.04       0.0  T
   2   -406.6540357  0.887823E-04  0.129E-02    0.04       1.0  T
   3   -406.6539534  0.822648E-04  0.169E-02    0.04       1.0  T
   4   -406.6537160  0.237444E-03  0.283E-02    0.04       1.0  T
   5   -406.6541136 -0.397628E-03  0.425E-03    0.04       1.7  T
   6   -406.6541244 -0.107575E-04  0.150E-03    0.04       4.7  T
   7   -406.6541252 -0.855297E-06  0.500E-04    0.04      14.1  T
   8   -406.6541253 -0.682318E-07  0.309E-04    0.04      22.8  T
     SCC iter.                  ...        0 min,  1.402 sec
     gradient                   ...        0 min,  0.213 sec
 * total energy  :  -401.5979662 Eh     change       -0.4917266E-05 Eh
   gradient norm :     0.0004968 Eh/α   predicted    -0.2376665E-05 ( -51.67%)
   displ. norm   :     0.0579639 α      lambda       -0.3671669E-05
   maximum displ.:     0.0208844 α      in ANC's #5, #6, #17, ...

   *** GEOMETRY OPTIMIZATION CONVERGED AFTER 26 ITERATIONS ***

------------------------------------------------------------------------
 total energy gain   :        -0.2904808 Eh     -182.2795 kcal/mol
 total RMSD          :         0.2293735 a0        0.1214 Å
 total power (kW/mol):       -29.3329739 (step)  -10.1354 (real)
------------------------------------------------------------------------

 ANCopt (total)                0 d,  0 h,  1 min, 15.247 sec
 optimizer setup                ...        0 min,  0.000 sec (  0.000%)
 model hessian                  ...        0 min,  0.273 sec (  0.363%)
 ANC generation                 ...        0 min,  0.352 sec (  0.468%)
 coordinate transformation      ...        0 min,  0.005 sec (  0.007%)
 single point calculation       ...        1 min, 14.579 sec ( 99.112%)
 optimization log               ...        0 min,  0.013 sec (  0.017%)
 hessian update                 ...        0 min,  0.005 sec (  0.007%)
 rational function              ...        0 min,  0.017 sec (  0.023%)

================
 final structure:
================
 xtb: 6.6.1 (8d0f1dd)
          11072412103D

202224  0     0  0            999 V2000
   -0.5717    4.8341    1.1157 C   0  0  0  0  0  0  0  0  0  0  0  0
   -0.1738    3.6038    1.6210 C   0  0  0  0  0  0  0  0  0  0  0  0
    1.2030    3.2571    1.6123 C   0  0  0  0  0  0  0  0  0  0  0  0
    2.1210    4.3391    1.4065 C   0  0  0  0  0  0  0  0  0  0  0  0
    1.6983    5.5537    0.8597 C   0  0  0  0  0  0  0  0  0  0  0  0
    0.3500    5.7828    0.6711 C   0  0  0  0  0  0  0  0  0  0  0  0
    1.7945    1.9550    1.8330 C   0  0  0  0  0  0  0  0  0  0  0  0
    3.1181    1.9922    2.3193 C   0  0  0  0  0  0  0  0  0  0  0  0
    3.7937    3.2365    2.4709 C   0  0  0  0  0  0  0  0  0  0  0  0
    3.3941    4.3074    1.8737 N   0  0  0  0  0  0  0  0  0  0  0  0
    1.2929    0.6527    1.4669 C   0  0  0  0  0  0  0  0  0  0  0  0
    2.1645   -0.4689    1.6961 C   0  0  0  0  0  0  0  0  0  0  0  0
    3.3970   -0.3750    2.2340 N   0  0  0  0  0  0  0  0  0  0  0  0
    3.8804    0.8028    2.5044 C   0  0  0  0  0  0  0  0  0  0  0  0
    5.3006    0.9148    2.7756 C   0  0  0  0  0  0  0  0  0  0  0  0
    5.8622    2.0882    3.1078 C   0  0  0  0  0  0  0  0  0  0  0  0
    4.9649    3.2601    3.4196 C   0  0  0  0  0  0  0  0  0  0  0  0
    0.0938    0.3637    0.7429 C   0  0  0  0  0  0  0  0  0  0  0  0
   -0.1109   -0.9072    0.2123 C   0  0  0  0  0  0  0  0  0  0  0  0
    0.7556   -1.9730    0.4469 C   0  0  0  0  0  0  0  0  0  0  0  0
    1.8628   -1.7603    1.2344 C   0  0  0  0  0  0  0  0  0  0  0  0
   -1.0889    2.8180    2.1919 O   0  0  0  0  0  0  0  0  0  0  0  0
   -0.8462    1.2516    0.4276 O   0  0  0  0  0  0  0  0  0  0  0  0
   -0.0901    7.0610    0.0702 C   0  0  0  0  0  0  0  0  0  0  0  0
    0.4890   -3.3180   -0.1064 C   0  0  0  0  0  0  0  0  0  0  0  0
    7.3231    2.3133    3.1576 C   0  0  0  0  0  0  0  0  0  0  0  0
   -1.8258   -1.2458    2.5066 C   0  0  0  0  0  0  0  0  0  0  0  0
   -2.6905   -0.3049    1.9535 C   0  0  0  0  0  0  0  0  0  0  0  0
   -3.7406   -0.7031    1.0800 C   0  0  0  0  0  0  0  0  0  0  0  0
   -3.7870   -2.1083    0.7590 C   0  0  0  0  0  0  0  0  0  0  0  0
   -2.8509   -3.0227    1.2924 C   0  0  0  0  0  0  0  0  0  0  0  0
   -1.8871   -2.6026    2.1726 C   0  0  0  0  0  0  0  0  0  0  0  0
   -4.8136    0.1268    0.5887 C   0  0  0  0  0  0  0  0  0  0  0  0
   -5.8650   -0.5621   -0.0620 C   0  0  0  0  0  0  0  0  0  0  0  0
   -5.7235   -1.9279   -0.4437 C   0  0  0  0  0  0  0  0  0  0  0  0
   -4.6909   -2.6623   -0.0477 N   0  0  0  0  0  0  0  0  0  0  0  0
   -5.0326    1.5422    0.7740 C   0  0  0  0  0  0  0  0  0  0  0  0
   -6.4107    1.9815    0.7253 C   0  0  0  0  0  0  0  0  0  0  0  0
   -7.3927    1.2702    0.1870 N   0  0  0  0  0  0  0  0  0  0  0  0
   -7.1137    0.0749   -0.3262 C   0  0  0  0  0  0  0  0  0  0  0  0
   -8.1045   -0.5916   -1.0654 C   0  0  0  0  0  0  0  0  0  0  0  0
   -7.8900   -1.8810   -1.5386 C   0  0  0  0  0  0  0  0  0  0  0  0
   -6.7168   -2.5495   -1.2280 C   0  0  0  0  0  0  0  0  0  0  0  0
   -4.0654    2.5808    0.8926 C   0  0  0  0  0  0  0  0  0  0  0  0
   -4.4659    3.8537    1.2948 C   0  0  0  0  0  0  0  0  0  0  0  0
   -5.8093    4.2045    1.4523 C   0  0  0  0  0  0  0  0  0  0  0  0
   -6.7768    3.2813    1.1406 C   0  0  0  0  0  0  0  0  0  0  0  0
   -2.4864    0.9607    2.3076 O   0  0  0  0  0  0  0  0  0  0  0  0
   -2.8052    2.4385    0.4975 O   0  0  0  0  0  0  0  0  0  0  0  0
   -0.8139   -3.4993    2.6719 C   0  0  0  0  0  0  0  0  0  0  0  0
   -6.2179    5.5885    1.8016 C   0  0  0  0  0  0  0  0  0  0  0  0
   -8.9674   -2.5289   -2.3242 C   0  0  0  0  0  0  0  0  0  0  0  0
   -1.7862    1.8582    1.3805 B   0  0  0  0  0  0  0  0  0  0  0  0
    7.8300    3.4096    3.1409 O   0  0  0  0  0  0  0  0  0  0  0  0
    8.0205    1.1734    3.1888 O   0  0  0  0  0  0  0  0  0  0  0  0
    9.4317    1.3253    3.2814 C   0  0  0  0  0  0  0  0  0  0  0  0
   -0.6729   -3.3780   -0.7710 O   0  0  0  0  0  0  0  0  0  0  0  0
   -1.0371   -4.6503   -1.2785 C   0  0  0  0  0  0  0  0  0  0  0  0
    1.2205   -4.2741    0.0157 O   0  0  0  0  0  0  0  0  0  0  0  0
    0.1265   -3.1276    3.3264 O   0  0  0  0  0  0  0  0  0  0  0  0
   -0.9737   -4.7675    2.2639 O   0  0  0  0  0  0  0  0  0  0  0  0
    0.0921   -5.6616    2.5654 C   0  0  0  0  0  0  0  0  0  0  0  0
   -9.8873   -1.9528   -2.8460 O   0  0  0  0  0  0  0  0  0  0  0  0
   -8.8132   -3.8661   -2.3955 O   0  0  0  0  0  0  0  0  0  0  0  0
   -9.8157   -4.5592   -3.1209 C   0  0  0  0  0  0  0  0  0  0  0  0
   -7.3549    5.9879    1.7826 O   0  0  0  0  0  0  0  0  0  0  0  0
   -5.1716    6.3776    2.0912 O   0  0  0  0  0  0  0  0  0  0  0  0
   -5.4993    7.7189    2.4131 C   0  0  0  0  0  0  0  0  0  0  0  0
    0.6078    7.8086   -0.5683 O   0  0  0  0  0  0  0  0  0  0  0  0
   -1.3931    7.3159    0.3097 O   0  0  0  0  0  0  0  0  0  0  0  0
   -1.9073    8.5067   -0.2601 C   0  0  0  0  0  0  0  0  0  0  0  0
   -9.8539   -4.2014   -4.1520 H   0  0  0  0  0  0  0  0  0  0  0  0
  -10.7932   -4.4018   -2.6600 H   0  0  0  0  0  0  0  0  0  0  0  0
   -9.5429   -5.6112   -3.0902 H   0  0  0  0  0  0  0  0  0  0  0  0
   -4.5541    8.2323    2.5783 H   0  0  0  0  0  0  0  0  0  0  0  0
   -6.1246    7.7404    3.3087 H   0  0  0  0  0  0  0  0  0  0  0  0
   -6.0499    8.1827    1.5908 H   0  0  0  0  0  0  0  0  0  0  0  0
   -2.9768    8.5005   -0.0635 H   0  0  0  0  0  0  0  0  0  0  0  0
   -1.7141    8.5278   -1.3347 H   0  0  0  0  0  0  0  0  0  0  0  0
   -1.4366    9.3809    0.1966 H   0  0  0  0  0  0  0  0  0  0  0  0
   -0.3418   -6.6573    2.6344 H   0  0  0  0  0  0  0  0  0  0  0  0
    0.5680   -5.3704    3.5020 H   0  0  0  0  0  0  0  0  0  0  0  0
    0.8316   -5.6196    1.7616 H   0  0  0  0  0  0  0  0  0  0  0  0
   -1.0995   -5.3753   -0.4640 H   0  0  0  0  0  0  0  0  0  0  0  0
   -0.2979   -4.9973   -2.0047 H   0  0  0  0  0  0  0  0  0  0  0  0
   -2.0084   -4.5187   -1.7487 H   0  0  0  0  0  0  0  0  0  0  0  0
    9.8501    0.3268    3.1836 H   0  0  0  0  0  0  0  0  0  0  0  0
    9.6914    1.7626    4.2481 H   0  0  0  0  0  0  0  0  0  0  0  0
    9.7958    1.9779    2.4854 H   0  0  0  0  0  0  0  0  0  0  0  0
   -9.0424   -0.0935   -1.2495 H   0  0  0  0  0  0  0  0  0  0  0  0
   -6.5419   -3.5626   -1.5525 H   0  0  0  0  0  0  0  0  0  0  0  0
   -7.8219    3.5440    1.1369 H   0  0  0  0  0  0  0  0  0  0  0  0
   -2.9454   -4.0536    0.9969 H   0  0  0  0  0  0  0  0  0  0  0  0
   -3.6973    4.5940    1.4431 H   0  0  0  0  0  0  0  0  0  0  0  0
   -1.0689   -0.8865    3.1901 H   0  0  0  0  0  0  0  0  0  0  0  0
   -1.6275    5.0428    1.0729 H   0  0  0  0  0  0  0  0  0  0  0  0
   -0.9912   -1.0488   -0.3951 H   0  0  0  0  0  0  0  0  0  0  0  0
    2.5534   -2.5561    1.4593 H   0  0  0  0  0  0  0  0  0  0  0  0
    2.4271    6.3227    0.6642 H   0  0  0  0  0  0  0  0  0  0  0  0
    5.5133    4.2061    3.3669 H   0  0  0  0  0  0  0  0  0  0  0  0
    5.8950    0.0318    2.6023 H   0  0  0  0  0  0  0  0  0  0  0  0
    0.4390    4.1281    5.5159 C   0  0  0  0  0  0  0  0  0  0  0  0
    0.8788    2.8843    5.9473 C   0  0  0  0  0  0  0  0  0  0  0  0
    2.1869    2.4443    5.6404 C   0  0  0  0  0  0  0  0  0  0  0  0
    3.0449    3.3671    4.9866 C   0  0  0  0  0  0  0  0  0  0  0  0
    2.5892    4.6162    4.5805 C   0  0  0  0  0  0  0  0  0  0  0  0
    1.2696    4.9777    4.8032 C   0  0  0  0  0  0  0  0  0  0  0  0
    2.7292    1.1668    6.0601 C   0  0  0  0  0  0  0  0  0  0  0  0
    4.1317    1.1898    6.2597 C   0  0  0  0  0  0  0  0  0  0  0  0
    4.9557    2.1732    5.6551 C   0  0  0  0  0  0  0  0  0  0  0  0
    4.3743    3.0423    4.7598 N   0  0  0  0  0  0  0  0  0  0  0  0
    2.0630   -0.0676    6.3234 C   0  0  0  0  0  0  0  0  0  0  0  0
    2.8292   -1.0602    7.0458 C   0  0  0  0  0  0  0  0  0  0  0  0
    4.0736   -0.8756    7.4757 N   0  0  0  0  0  0  0  0  0  0  0  0
    4.7570    0.1765    7.0461 C   0  0  0  0  0  0  0  0  0  0  0  0
    6.1332    0.2612    7.3356 C   0  0  0  0  0  0  0  0  0  0  0  0
    6.8909    1.2752    6.7928 C   0  0  0  0  0  0  0  0  0  0  0  0
    6.3102    2.2187    5.9325 C   0  0  0  0  0  0  0  0  0  0  0  0
    0.7766   -0.4881    5.8492 C   0  0  0  0  0  0  0  0  0  0  0  0
    0.3915   -1.8200    5.9856 C   0  0  0  0  0  0  0  0  0  0  0  0
    1.1376   -2.7498    6.7148 C   0  0  0  0  0  0  0  0  0  0  0  0
    2.3104   -2.3488    7.3028 C   0  0  0  0  0  0  0  0  0  0  0  0
    0.0579    2.1311    6.6806 O   0  0  0  0  0  0  0  0  0  0  0  0
   -0.0763    0.2935    5.1852 O   0  0  0  0  0  0  0  0  0  0  0  0
    0.7678    6.2634    4.2601 C   0  0  0  0  0  0  0  0  0  0  0  0
    0.7006   -4.1606    6.8543 C   0  0  0  0  0  0  0  0  0  0  0  0
    8.3443    1.3733    7.0557 C   0  0  0  0  0  0  0  0  0  0  0  0
   -1.7858   -1.3026    7.8456 C   0  0  0  0  0  0  0  0  0  0  0  0
   -2.2308   -0.4565    6.8372 C   0  0  0  0  0  0  0  0  0  0  0  0
   -3.0921   -0.9337    5.8104 C   0  0  0  0  0  0  0  0  0  0  0  0
   -3.3049   -2.3603    5.7985 C   0  0  0  0  0  0  0  0  0  0  0  0
   -2.7851   -3.2008    6.8114 C   0  0  0  0  0  0  0  0  0  0  0  0
   -2.0748   -2.6707    7.8585 C   0  0  0  0  0  0  0  0  0  0  0  0
   -3.8704   -0.1264    4.9032 C   0  0  0  0  0  0  0  0  0  0  0  0
   -4.8489   -0.8450    4.1704 C   0  0  0  0  0  0  0  0  0  0  0  0
   -4.8224   -2.2691    4.0992 C   0  0  0  0  0  0  0  0  0  0  0  0
   -4.0380   -2.9955    4.8859 N   0  0  0  0  0  0  0  0  0  0  0  0
   -3.9243    1.3138    4.7630 C   0  0  0  0  0  0  0  0  0  0  0  0
   -5.2047    1.8401    4.3301 C   0  0  0  0  0  0  0  0  0  0  0  0
   -6.1497    1.1195    3.7412 N   0  0  0  0  0  0  0  0  0  0  0  0
   -5.9384   -0.1780    3.5406 C   0  0  0  0  0  0  0  0  0  0  0  0
   -6.8791   -0.9017    2.7889 C   0  0  0  0  0  0  0  0  0  0  0  0
   -6.7404   -2.2745    2.6114 C   0  0  0  0  0  0  0  0  0  0  0  0
   -5.7180   -2.9544    3.2512 C   0  0  0  0  0  0  0  0  0  0  0  0
   -2.8959    2.2968    4.9078 C   0  0  0  0  0  0  0  0  0  0  0  0
   -3.2489    3.6493    4.9611 C   0  0  0  0  0  0  0  0  0  0  0  0
   -4.5640    4.1042    4.8504 C   0  0  0  0  0  0  0  0  0  0  0  0
   -5.5350    3.2070    4.4809 C   0  0  0  0  0  0  0  0  0  0  0  0
   -1.8210    0.8036    6.9091 O   0  0  0  0  0  0  0  0  0  0  0  0
   -1.5972    2.0632    4.9147 O   0  0  0  0  0  0  0  0  0  0  0  0
   -1.5116   -3.4782    8.9686 C   0  0  0  0  0  0  0  0  0  0  0  0
   -4.9378    5.5057    5.1461 C   0  0  0  0  0  0  0  0  0  0  0  0
   -7.7442   -2.9822    1.7774 C   0  0  0  0  0  0  0  0  0  0  0  0
   -0.8813    1.3121    5.9061 B   0  0  0  0  0  0  0  0  0  0  0  0
    9.1133    2.0720    6.4385 O   0  0  0  0  0  0  0  0  0  0  0  0
    8.7375    0.5872    8.0692 O   0  0  0  0  0  0  0  0  0  0  0  0
   10.1210    0.6175    8.3753 C   0  0  0  0  0  0  0  0  0  0  0  0
   -0.2411   -4.4970    5.9685 O   0  0  0  0  0  0  0  0  0  0  0  0
   -0.6979   -5.8399    6.0122 C   0  0  0  0  0  0  0  0  0  0  0  0
    1.1538   -4.9442    7.6569 O   0  0  0  0  0  0  0  0  0  0  0  0
   -0.8622   -3.0210    9.8754 O   0  0  0  0  0  0  0  0  0  0  0  0
   -1.7978   -4.7852    8.8617 O   0  0  0  0  0  0  0  0  0  0  0  0
   -1.1804   -5.6272    9.8277 C   0  0  0  0  0  0  0  0  0  0  0  0
   -8.7168   -2.4589    1.2896 O   0  0  0  0  0  0  0  0  0  0  0  0
   -7.4665   -4.2835    1.6351 O   0  0  0  0  0  0  0  0  0  0  0  0
   -8.3902   -5.0332    0.8608 C   0  0  0  0  0  0  0  0  0  0  0  0
   -6.0439    5.9706    5.0101 O   0  0  0  0  0  0  0  0  0  0  0  0
   -3.9195    6.2112    5.6652 O   0  0  0  0  0  0  0  0  0  0  0  0
   -4.2332    7.5178    6.1166 C   0  0  0  0  0  0  0  0  0  0  0  0
    1.4599    7.1498    3.8217 O   0  0  0  0  0  0  0  0  0  0  0  0
   -0.5681    6.3204    4.3029 O   0  0  0  0  0  0  0  0  0  0  0  0
   -1.1868    7.4698    3.7494 C   0  0  0  0  0  0  0  0  0  0  0  0
   -8.3921   -4.6838   -0.1734 H   0  0  0  0  0  0  0  0  0  0  0  0
   -9.3980   -4.9283    1.2695 H   0  0  0  0  0  0  0  0  0  0  0  0
   -8.0597   -6.0675    0.9159 H   0  0  0  0  0  0  0  0  0  0  0  0
   -3.3609    7.8693    6.6628 H   0  0  0  0  0  0  0  0  0  0  0  0
   -5.1089    7.4917    6.7695 H   0  0  0  0  0  0  0  0  0  0  0  0
   -4.4493    8.1797    5.2742 H   0  0  0  0  0  0  0  0  0  0  0  0
   -2.1686    7.5343    4.2110 H   0  0  0  0  0  0  0  0  0  0  0  0
   -1.2873    7.3517    2.6693 H   0  0  0  0  0  0  0  0  0  0  0  0
   -0.5911    8.3605    3.9632 H   0  0  0  0  0  0  0  0  0  0  0  0
   -1.6732   -6.5940    9.7527 H   0  0  0  0  0  0  0  0  0  0  0  0
   -1.3005   -5.2068   10.8277 H   0  0  0  0  0  0  0  0  0  0  0  0
   -0.1149   -5.7157    9.6013 H   0  0  0  0  0  0  0  0  0  0  0  0
   -1.1767   -6.0433    6.9712 H   0  0  0  0  0  0  0  0  0  0  0  0
    0.1389   -6.5311    5.8815 H   0  0  0  0  0  0  0  0  0  0  0  0
   -1.4143   -5.9403    5.2007 H   0  0  0  0  0  0  0  0  0  0  0  0
   10.2459    0.0278    9.2800 H   0  0  0  0  0  0  0  0  0  0  0  0
   10.4530    1.6456    8.5365 H   0  0  0  0  0  0  0  0  0  0  0  0
   10.7017    0.1873    7.5558 H   0  0  0  0  0  0  0  0  0  0  0  0
   -7.7194   -0.3778    2.3611 H   0  0  0  0  0  0  0  0  0  0  0  0
   -5.6210   -4.0239    3.1682 H   0  0  0  0  0  0  0  0  0  0  0  0
   -6.5467    3.5143    4.2717 H   0  0  0  0  0  0  0  0  0  0  0  0
   -3.0188   -4.2496    6.7461 H   0  0  0  0  0  0  0  0  0  0  0  0
   -2.4530    4.3629    5.0913 H   0  0  0  0  0  0  0  0  0  0  0  0
   -1.1743   -0.8799    8.6280 H   0  0  0  0  0  0  0  0  0  0  0  0
   -0.5671    4.4157    5.7606 H   0  0  0  0  0  0  0  0  0  0  0  0
   -0.5115   -2.1333    5.4907 H   0  0  0  0  0  0  0  0  0  0  0  0
    2.9082   -3.0307    7.8855 H   0  0  0  0  0  0  0  0  0  0  0  0
    3.2506    5.3139    4.0931 H   0  0  0  0  0  0  0  0  0  0  0  0
    6.9312    2.9954    5.5175 H   0  0  0  0  0  0  0  0  0  0  0  0
    6.5735   -0.5053    7.9503 H   0  0  0  0  0  0  0  0  0  0  0  0
  1  2  2  0  0  0  0
  1 96  1  0  0  0  0
  2  3  1  0  0  0  0
  3  4  2  0  0  0  0
  3  7  1  0  0  0  0
  4  5  1  0  0  0  0
  5  6  2  0  0  0  0
  5 99  1  0  0  0  0
  6  1  1  0  0  0  0
  6 24  1  0  0  0  0
  7  8  1  0  0  0  0
  7 11  2  0  0  0  0
  8  9  1  0  0  0  0
  9 10  2  0  0  0  0
 10  4  1  0  0  0  0
 11 12  1  0  0  0  0
 11 18  1  0  0  0  0
 12 13  2  0  0  0  0
 13 14  1  0  0  0  0
 14  8  1  0  0  0  0
 14 15  2  0  0  0  0
 15 16  1  0  0  0  0
 15101  1  0  0  0  0
 16 17  2  0  0  0  0
 16 26  1  0  0  0  0
 17  9  1  0  0  0  0
 17100  1  0  0  0  0
 18 19  2  0  0  0  0
 19 20  1  0  0  0  0
 19 97  1  0  0  0  0
 20 21  2  0  0  0  0
 20 25  1  0  0  0  0
 21 12  1  0  0  0  0
 21 98  1  0  0  0  0
 22  2  1  0  0  0  0
 23 18  1  0  0  0  0
 24 69  2  0  0  0  0
 24 70  1  0  0  0  0
 25 57  1  0  0  0  0
 25 59  2  0  0  0  0
 26 54  2  0  0  0  0
 26 55  1  0  0  0  0
 27 28  2  0  0  0  0
 27 95  1  0  0  0  0
 28 29  1  0  0  0  0
 28 48  1  0  0  0  0
 29 30  2  0  0  0  0
 29 33  1  0  0  0  0
 30 31  1  0  0  0  0
 31 32  2  0  0  0  0
 31 93  1  0  0  0  0
 32 27  1  0  0  0  0
 32 50  1  0  0  0  0
 33 37  2  0  0  0  0
 34 33  1  0  0  0  0
 34 35  1  0  0  0  0
 35 36  2  0  0  0  0
 36 30  1  0  0  0  0
 37 38  1  0  0  0  0
 37 44  1  0  0  0  0
 38 39  2  0  0  0  0
 39 40  1  0  0  0  0
 40 34  1  0  0  0  0
 40 41  2  0  0  0  0
 41 42  1  0  0  0  0
 41 90  1  0  0  0  0
 42 43  2  0  0  0  0
 42 52  1  0  0  0  0
 43 35  1  0  0  0  0
 43 91  1  0  0  0  0
 44 45  2  0  0  0  0
 44 49  1  0  0  0  0
 45 46  1  0  0  0  0
 45 94  1  0  0  0  0
 46 47  2  0  0  0  0
 46 51  1  0  0  0  0
 47 38  1  0  0  0  0
 47 92  1  0  0  0  0
 50 60  2  0  0  0  0
 50 61  1  0  0  0  0
 51 66  2  0  0  0  0
 51 67  1  0  0  0  0
 52 63  2  0  0  0  0
 52 64  1  0  0  0  0
 53 49  1  0  0  0  0
 53 22  1  0  0  0  0
 53 48  1  0  0  0  0
 53 23  1  0  0  0  0
 55 56  1  0  0  0  0
 56 87  1  0  0  0  0
 56 88  1  0  0  0  0
 56 89  1  0  0  0  0
 57 58  1  0  0  0  0
 58 84  1  0  0  0  0
 58 85  1  0  0  0  0
 58 86  1  0  0  0  0
 61 62  1  0  0  0  0
 62 81  1  0  0  0  0
 62 82  1  0  0  0  0
 62 83  1  0  0  0  0
 64 65  1  0  0  0  0
 65 72  1  0  0  0  0
 65 73  1  0  0  0  0
 65 74  1  0  0  0  0
 67 68  1  0  0  0  0
 68 75  1  0  0  0  0
 68 76  1  0  0  0  0
 68 77  1  0  0  0  0
 70 71  1  0  0  0  0
 71 78  1  0  0  0  0
 71 79  1  0  0  0  0
 71 80  1  0  0  0  0
102103  2  0  0  0  0
102197  1  0  0  0  0
103104  1  0  0  0  0
104105  2  0  0  0  0
104108  1  0  0  0  0
105106  1  0  0  0  0
106107  2  0  0  0  0
106200  1  0  0  0  0
107102  1  0  0  0  0
107125  1  0  0  0  0
108109  1  0  0  0  0
108112  2  0  0  0  0
109110  1  0  0  0  0
110111  2  0  0  0  0
111105  1  0  0  0  0
112113  1  0  0  0  0
112119  1  0  0  0  0
113114  2  0  0  0  0
114115  1  0  0  0  0
115109  1  0  0  0  0
115116  2  0  0  0  0
116117  1  0  0  0  0
116202  1  0  0  0  0
117118  2  0  0  0  0
117127  1  0  0  0  0
118110  1  0  0  0  0
118201  1  0  0  0  0
119120  2  0  0  0  0
120121  1  0  0  0  0
120198  1  0  0  0  0
121122  2  0  0  0  0
121126  1  0  0  0  0
122113  1  0  0  0  0
122199  1  0  0  0  0
123103  1  0  0  0  0
124119  1  0  0  0  0
125170  2  0  0  0  0
125171  1  0  0  0  0
126158  1  0  0  0  0
126160  2  0  0  0  0
127155  2  0  0  0  0
127156  1  0  0  0  0
128129  2  0  0  0  0
128196  1  0  0  0  0
129130  1  0  0  0  0
129149  1  0  0  0  0
130131  2  0  0  0  0
130134  1  0  0  0  0
131132  1  0  0  0  0
132133  2  0  0  0  0
132194  1  0  0  0  0
133128  1  0  0  0  0
133151  1  0  0  0  0
134138  2  0  0  0  0
135134  1  0  0  0  0
135136  1  0  0  0  0
136137  2  0  0  0  0
137131  1  0  0  0  0
138139  1  0  0  0  0
138145  1  0  0  0  0
139140  2  0  0  0  0
140141  1  0  0  0  0
141135  1  0  0  0  0
141142  2  0  0  0  0
142143  1  0  0  0  0
142191  1  0  0  0  0
143144  2  0  0  0  0
143153  1  0  0  0  0
144136  1  0  0  0  0
144192  1  0  0  0  0
145146  2  0  0  0  0
145150  1  0  0  0  0
146147  1  0  0  0  0
146195  1  0  0  0  0
147148  2  0  0  0  0
147152  1  0  0  0  0
148139  1  0  0  0  0
148193  1  0  0  0  0
151161  2  0  0  0  0
151162  1  0  0  0  0
152167  2  0  0  0  0
152168  1  0  0  0  0
153164  2  0  0  0  0
153165  1  0  0  0  0
154150  1  0  0  0  0
154123  1  0  0  0  0
154149  1  0  0  0  0
154124  1  0  0  0  0
156157  1  0  0  0  0
157188  1  0  0  0  0
157189  1  0  0  0  0
157190  1  0  0  0  0
158159  1  0  0  0  0
159185  1  0  0  0  0
159186  1  0  0  0  0
159187  1  0  0  0  0
162163  1  0  0  0  0
163182  1  0  0  0  0
163183  1  0  0  0  0
163184  1  0  0  0  0
165166  1  0  0  0  0
166173  1  0  0  0  0
166174  1  0  0  0  0
166175  1  0  0  0  0
168169  1  0  0  0  0
169176  1  0  0  0  0
169177  1  0  0  0  0
169178  1  0  0  0  0
171172  1  0  0  0  0
172179  1  0  0  0  0
172180  1  0  0  0  0
172181  1  0  0  0  0
M  CHG  1   1  -1
M  END

 Bond Distances (Angstroems)
 ---------------------------
C1-C2=1.3883         C1-C6=1.3954         C1-H96=1.0771        C2-C1=1.3883         C2-C3=1.4198         C2-O22=1.3344        
C3-C2=1.4198         C3-C4=1.4338         C3-C7=1.4471         C4-C3=1.4338         C4-C5=1.3975         C4-N10=1.3566        
C5-C4=1.3975         C5-C6=1.3806         C5-H99=1.0773        C6-C1=1.3954         C6-C5=1.3806         C6-C24=1.4794        
C7-C3=1.4471         C7-C8=1.4106         C7-C11=1.4428        C8-C7=1.4106         C8-C9=1.4240         C8-C14=1.4248        
C9-C8=1.4240         C9-N10=1.2896        C9-C17=1.5075        N10-C4=1.3566        N10-C9=1.2896        C11-C7=1.4428        
C11-C12=1.4388       C11-C18=1.4302       C12-C11=1.4388       C12-N13=1.3480       C12-C21=1.4042       N13-C12=1.3480       
N13-C14=1.3016       C14-C8=1.4248        C14-N13=1.3016       C14-C15=1.4502       C15-C14=1.4502       C15-C16=1.3426       
C15-H101=1.0785      C16-C15=1.3426       C16-C17=1.5086       C16-C26=1.4789       C17-C9=1.5075        C17-C16=1.5086       
C17-H100=1.0946      C17-N111=1.4807      C18-C11=1.4302       C18-C19=1.3923       C18-O23=1.3309       C19-C18=1.3923       
C19-C20=1.3935       C19-H97=1.0788       C20-C19=1.3935       C20-C21=1.3753       C20-C25=1.4786       C21-C12=1.4042       
C21-C20=1.3753       C21-H98=1.0774       O22-C2=1.3344        O22-B53=1.4373       O23-C18=1.3309       O23-B53=1.4695       
C24-C6=1.4794        C24-O69=1.2057       C24-O70=1.3492       C25-C20=1.4786       C25-O57=1.3399       C25-O59=1.2100       
C26-C16=1.4789       C26-O54=1.2080       C26-O55=1.3367       C27-C28=1.3924       C27-C32=1.3986       C27-H95=1.0813       
C28-C27=1.3924       C28-C29=1.4228       C28-O48=1.3299       C29-C28=1.4228       C29-C30=1.4421       C29-C33=1.4427       
C30-C29=1.4421       C30-C31=1.4131       C30-N36=1.3322       C31-C30=1.4131       C31-C32=1.3712       C31-H93=1.0766       
C32-C27=1.3986       C32-C31=1.3712       C32-C50=1.4851       C33-C29=1.4427       C33-C34=1.4154       C33-C37=1.4441       
C34-C33=1.4154       C34-C35=1.4251       C34-C40=1.4264       C35-C34=1.4251       C35-N36=1.3276       C35-C43=1.4100       
N36-C30=1.3322       N36-C35=1.3276       C37-C33=1.4441       C37-C38=1.4472       C37-C44=1.4242       C38-C37=1.4472       
C38-N39=1.3267       C38-C47=1.4128       N39-C38=1.3267       N39-C40=1.3304       C40-C34=1.4264       C40-N39=1.3304       
C40-C41=1.4043       C41-C40=1.4043       C41-C42=1.3902       C41-H90=1.0778       C42-C41=1.3902       C42-C43=1.3856       
C42-C52=1.4825       C43-C35=1.4100       C43-C42=1.3856       C43-H91=1.0781       C44-C37=1.4242       C44-C45=1.3937       
C44-O49=1.3283       C45-C44=1.3937       C45-C46=1.3973       C45-H94=1.0775       C46-C45=1.3973       C46-C47=1.3731       
C46-C51=1.4848       C47-C38=1.4128       C47-C46=1.3731       C47-H92=1.0776       O48-C28=1.3299       O48-B53=1.4682       
O49-C44=1.3283       O49-B53=1.4679       C50-C32=1.4851       C50-O60=1.2045       C50-O61=1.3417       C51-C46=1.4848       
C51-O66=1.2053       C51-O67=1.3421       C52-C42=1.4825       C52-O63=1.2043       C52-O64=1.3479       B53-O22=1.4373       
B53-O23=1.4695       B53-O48=1.4682       B53-O49=1.4679       O54-C26=1.2080       O55-C26=1.3367       O55-C56=1.4223       
C56-O55=1.4223       C56-H87=1.0870       C56-H88=1.0923       C56-H89=1.0918       O57-C25=1.3399       O57-C58=1.4174       
C58-O57=1.4174       C58-H84=1.0922       C58-H85=1.0928       C58-H86=1.0871       O59-C25=1.2100       O60-C50=1.2045       
O61-C50=1.3417       O61-C62=1.4235       C62-O61=1.4235       C62-H81=1.0883       C62-H82=1.0902       C62-H83=1.0930       
O63-C52=1.2043       O64-C52=1.3479       O64-C65=1.4183       C65-O64=1.4183       C65-H72=1.0921       C65-H73=1.0921       
C65-H74=1.0873       O66-C51=1.2053       O67-C51=1.3421       O67-C68=1.4178       C68-O67=1.4178       C68-H75=1.0882       
C68-H76=1.0925       C68-H77=1.0929       O69-C24=1.2057       O70-C24=1.3492       O70-C71=1.4167       C71-O70=1.4167       
C71-H78=1.0875       C71-H79=1.0921       C71-H80=1.0928       H72-C65=1.0921       H73-C65=1.0921       H74-C65=1.0873       
H75-C68=1.0882       H76-C68=1.0925       H77-C68=1.0929       H78-C71=1.0875       H79-C71=1.0921       H80-C71=1.0928       
H81-C62=1.0883       H82-C62=1.0902       H83-C62=1.0930       H84-C58=1.0922       H85-C58=1.0928       H86-C58=1.0871       
H87-C56=1.0870       H88-C56=1.0923       H89-C56=1.0918       H90-C41=1.0778       H91-C43=1.0781       H92-C47=1.0776       
H93-C31=1.0766       H94-C45=1.0775       H95-C27=1.0813       H96-C1=1.0771        H97-C19=1.0788       H98-C21=1.0774       
H99-C5=1.0773        H100-C17=1.0946      H101-C15=1.0785      C102-C103=1.3880     C102-C107=1.3855     C102-H197=1.0746     
C103-C102=1.3880     C103-C104=1.4138     C103-O123=1.3337     C104-C103=1.4138     C104-C105=1.4196     C104-C108=1.4499     
C105-C104=1.4196     C105-C106=1.3902     C105-N111=1.3871     C106-C105=1.3902     C106-C107=1.3863     C106-H200=1.0779     
C107-C102=1.3855     C107-C106=1.3863     C107-C125=1.4832     C108-C104=1.4499     C108-C109=1.4168     C108-C112=1.4272     
C109-C108=1.4168     C109-C110=1.4184     C109-C115=1.4269     C110-C109=1.4184     C110-N111=1.3765     C110-C118=1.3833     
N111-C17=1.4807      N111-C105=1.3871     N111-C110=1.3765     C112-C108=1.4272     C112-C113=1.4471     C112-C119=1.4340     
C113-C112=1.4471     C113-N114=1.3295     C113-C122=1.4127     N114-C113=1.3295     N114-C115=1.3261     C115-C109=1.4269     
C115-N114=1.3261     C115-C116=1.4088     C116-C115=1.4088     C116-C117=1.3773     C116-H202=1.0766     C117-C116=1.3773     
[...]
   166   6 C    3.923 --   175 H    0.982   174 H    0.977   173 H    0.970
                           165 O    0.957
   167   8 O    2.024 --   152 C    1.722   168 O    0.167
   168   8 O    2.301 --   152 C    1.115   169 C    0.963   167 O    0.167
   169   6 C    3.929 --   176 H    0.981   177 H    0.976   178 H    0.974
                           168 O    0.963
   170   8 O    2.025 --   125 C    1.722   171 O    0.173
   171   8 O    2.311 --   125 C    1.127   172 C    0.957   170 O    0.173
   172   6 C    3.923 --   179 H    0.978   181 H    0.977   180 H    0.969
                           171 O    0.957
   173   1 H    0.995 --   166 C    0.970
   174   1 H    0.996 --   166 C    0.977
   175   1 H    0.995 --   166 C    0.982
   176   1 H    0.995 --   169 C    0.981
   177   1 H    0.996 --   169 C    0.976
   178   1 H    0.997 --   169 C    0.974
   179   1 H    0.995 --   172 C    0.978
   180   1 H    0.995 --   172 C    0.969
   181   1 H    0.996 --   172 C    0.977
   182   1 H    0.996 --   163 C    0.983
   183   1 H    0.996 --   163 C    0.977
   184   1 H    0.993 --   163 C    0.970
   185   1 H    0.995 --   159 C    0.970
   186   1 H    0.996 --   159 C    0.976
   187   1 H    0.995 --   159 C    0.981
   188   1 H    0.995 --   157 C    0.982
   189   1 H    0.996 --   157 C    0.976
   190   1 H    0.996 --   157 C    0.977
   191   1 H    0.992 --   142 C    0.959
   192   1 H    0.993 --   144 C    0.961
   193   1 H    0.992 --   148 C    0.958
   194   1 H    0.993 --   132 C    0.961
   195   1 H    0.992 --   146 C    0.951
   196   1 H    0.993 --   128 C    0.961
   197   1 H    0.993 --   102 C    0.953
   198   1 H    0.994 --   120 C    0.958
   199   1 H    0.992 --   122 C    0.960
   200   1 H    0.993 --   106 C    0.959
   201   1 H    0.994 --   118 C    0.958
   202   1 H    0.993 --   116 C    0.962
 ---------------------------------------------------------------------------

Topologies differ in total number of bonds
Writing corrected topology to xtbtopo.mol

molecular dipole:
                 x           y           z       tot (Debye)
 q only:        1.619      -5.215      -6.047
   full:        1.624      -5.022      -6.185      20.668
molecular quadrupole (traceless):
                xx          xy          yy          xz          yz          zz
 q only:      -38.248      13.112      80.429      10.675      -5.893     -42.181
  q+dip:      -55.563      15.802      86.516       2.875       2.944     -30.953
   full:      -62.842      16.259      73.946     -10.572       4.518     -11.105

           -------------------------------------------------
          |                Geometry Summary                 |
           -------------------------------------------------

      molecular mass/u    :     1907.2066742
   center of mass at/Å    :       -1.0795788       0.6982497       3.3176317
  moments of inertia/u·Å² :        0.3510677E+05   0.5541199E+05   0.6830155E+05
rotational constants/cm⁻¹ :        0.4801818E-03   0.3042236E-03   0.2468118E-03

 * 197 selected distances

     #   Z          #   Z                                           value/Å
     1   6 C        2   6 C                                       1.3883048
     2   6 C        3   6 C                                       1.4198440
     3   6 C        4   6 C                                       1.4337622
     4   6 C        5   6 C                                       1.3975458
     1   6 C        6   6 C                                       1.3954310
     5   6 C        6   6 C                                       1.3805626
     7   6 C        8   6 C                                       1.4106282
     8   6 C        9   6 C                                       1.4239780
     4   6 C       10   7 N                                       1.3565539
     9   6 C       10   7 N                                       1.2895914
    12   6 C       13   7 N                                       1.3480034
     8   6 C       14   6 C                                       1.4247977
    13   7 N       14   6 C                                       1.3015582
    15   6 C       16   6 C                                       1.3425575
    11   6 C       18   6 C                                       1.4302164
    18   6 C       19   6 C                                       1.3923464
    19   6 C       20   6 C                                       1.3935341
    12   6 C       21   6 C                                       1.4041628
    20   6 C       21   6 C                                       1.3753098
     2   6 C       22   8 O                                       1.3344241
    18   6 C       23   8 O                                       1.3309333
    27   6 C       28   6 C                                       1.3924169
    28   6 C       29   6 C                                       1.4227701
    30   6 C       31   6 C                                       1.4131170
    27   6 C       32   6 C                                       1.3986471
    31   6 C       32   6 C                                       1.3711935
    33   6 C       34   6 C                                       1.4154430
    34   6 C       35   6 C                                       1.4251291
    30   6 C       36   7 N                                       1.3321902
    35   6 C       36   7 N                                       1.3275971
    38   6 C       39   7 N                                       1.3267480
    34   6 C       40   6 C                                       1.4264384
    39   7 N       40   6 C                                       1.3304413
    40   6 C       41   6 C                                       1.4043118
    41   6 C       42   6 C                                       1.3901659
    35   6 C       43   6 C                                       1.4100097
    42   6 C       43   6 C                                       1.3855676
    37   6 C       44   6 C                                       1.4242038
    44   6 C       45   6 C                                       1.3936851
    45   6 C       46   6 C                                       1.3973336
    38   6 C       47   6 C                                       1.4127668
    46   6 C       47   6 C                                       1.3731087
    28   6 C       48   8 O                                       1.3299199
    44   6 C       49   8 O                                       1.3283295
    22   8 O       53   5 B                                       1.4372700
    23   8 O       53   5 B                                       1.4695287
    48   8 O       53   5 B                                       1.4681604
    49   8 O       53   5 B                                       1.4679362
    26   6 C       54   8 O                                       1.2079607
    26   6 C       55   8 O                                       1.3367241
    55   8 O       56   6 C                                       1.4223103
    25   6 C       57   8 O                                       1.3398727
    57   8 O       58   6 C                                       1.4174200
    25   6 C       59   8 O                                       1.2100167
    50   6 C       60   8 O                                       1.2044834
    50   6 C       61   8 O                                       1.3416881
    61   8 O       62   6 C                                       1.4234657
    52   6 C       63   8 O                                       1.2043231
    52   6 C       64   8 O                                       1.3478508
    64   8 O       65   6 C                                       1.4183425
    51   6 C       66   8 O                                       1.2052565
    51   6 C       67   8 O                                       1.3421374
    67   8 O       68   6 C                                       1.4178041
    24   6 C       69   8 O                                       1.2056683
    24   6 C       70   8 O                                       1.3491688
    70   8 O       71   6 C                                       1.4167227
    65   6 C       72   1 H                                       1.0921084
    65   6 C       73   1 H                                       1.0920875
    65   6 C       74   1 H                                       1.0872785
    68   6 C       75   1 H                                       1.0882315
    68   6 C       76   1 H                                       1.0925166
    68   6 C       77   1 H                                       1.0928646
    71   6 C       78   1 H                                       1.0874653
    71   6 C       79   1 H                                       1.0920590
    71   6 C       80   1 H                                       1.0928402
    62   6 C       81   1 H                                       1.0882768
    62   6 C       82   1 H                                       1.0902449
    62   6 C       83   1 H                                       1.0930160
    58   6 C       84   1 H                                       1.0921925
    58   6 C       85   1 H                                       1.0928339
    58   6 C       86   1 H                                       1.0870580
    56   6 C       87   1 H                                       1.0870326
    56   6 C       88   1 H                                       1.0922985
    56   6 C       89   1 H                                       1.0918245
    41   6 C       90   1 H                                       1.0778353
    43   6 C       91   1 H                                       1.0781185
    47   6 C       92   1 H                                       1.0776105
    31   6 C       93   1 H                                       1.0765526
    45   6 C       94   1 H                                       1.0774671
    27   6 C       95   1 H                                       1.0812590
     1   6 C       96   1 H                                       1.0770892
    19   6 C       97   1 H                                       1.0788474
    21   6 C       98   1 H                                       1.0774174
     5   6 C       99   1 H                                       1.0773346
    17   6 C      100   1 H                                       1.0946347
    15   6 C      101   1 H                                       1.0784661
   102   6 C      103   6 C                                       1.3879957
   103   6 C      104   6 C                                       1.4138440
   104   6 C      105   6 C                                       1.4196176
   105   6 C      106   6 C                                       1.3902129
   102   6 C      107   6 C                                       1.3855007
   106   6 C      107   6 C                                       1.3862789
   108   6 C      109   6 C                                       1.4167671
   109   6 C      110   6 C                                       1.4183872
    17   6 C      111   7 N                                       1.4807050
   105   6 C      111   7 N                                       1.3871295
   110   6 C      111   7 N                                       1.3765370
   108   6 C      112   6 C                                       1.4272331
   113   6 C      114   7 N                                       1.3294709
   109   6 C      115   6 C                                       1.4269456
   114   7 N      115   6 C                                       1.3260772
   115   6 C      116   6 C                                       1.4088323
   116   6 C      117   6 C                                       1.3773357
   110   6 C      118   6 C                                       1.3833449
   117   6 C      118   6 C                                       1.4027407
   112   6 C      119   6 C                                       1.4340378
   119   6 C      120   6 C                                       1.3931834
   120   6 C      121   6 C                                       1.3974805
   113   6 C      122   6 C                                       1.4126559
   121   6 C      122   6 C                                       1.3717865
   103   6 C      123   8 O                                       1.3337454
   119   6 C      124   8 O                                       1.3338153
   128   6 C      129   6 C                                       1.3896149
   129   6 C      130   6 C                                       1.4226138
   131   6 C      132   6 C                                       1.4151957
   128   6 C      133   6 C                                       1.3983342
   132   6 C      133   6 C                                       1.3718092
   134   6 C      135   6 C                                       1.4179731
   135   6 C      136   6 C                                       1.4261376
   131   6 C      137   7 N                                       1.3318555
   136   6 C      137   7 N                                       1.3273594
   139   6 C      140   7 N                                       1.3262887
   135   6 C      141   6 C                                       1.4242976
   140   7 N      141   6 C                                       1.3298118
   141   6 C      142   6 C                                       1.4048319
   142   6 C      143   6 C                                       1.3911906
   136   6 C      144   6 C                                       1.4109015
   143   6 C      144   6 C                                       1.3845067
   138   6 C      145   6 C                                       1.4299172
   145   6 C      146   6 C                                       1.3988176
   146   6 C      147   6 C                                       1.3960316
   139   6 C      148   6 C                                       1.4142757
   147   6 C      148   6 C                                       1.3726876
   129   6 C      149   8 O                                       1.3269621
   145   6 C      150   8 O                                       1.3195765
   123   8 O      154   5 B                                       1.4672425
   124   8 O      154   5 B                                       1.4849703 (max)
   149   8 O      154   5 B                                       1.4654958
   150   8 O      154   5 B                                       1.4351131
   127   6 C      155   8 O                                       1.2085627
   127   6 C      156   8 O                                       1.3415784
   156   8 O      157   6 C                                       1.4172452
   126   6 C      158   8 O                                       1.3359301
   158   8 O      159   6 C                                       1.4191225
   126   6 C      160   8 O                                       1.2098444
   151   6 C      161   8 O                                       1.2053398
   151   6 C      162   8 O                                       1.3423134
   162   8 O      163   6 C                                       1.4224230
   153   6 C      164   8 O                                       1.2073995
   153   6 C      165   8 O                                       1.3382389
   165   8 O      166   6 C                                       1.4193983
   152   6 C      167   8 O                                       1.2074941
   152   6 C      168   8 O                                       1.3431617
   168   8 O      169   6 C                                       1.4175244
   125   6 C      170   8 O                                       1.2070136
   125   6 C      171   8 O                                       1.3378848
   171   8 O      172   6 C                                       1.4178522
   166   6 C      173   1 H                                       1.0915784
   166   6 C      174   1 H                                       1.0925518
   166   6 C      175   1 H                                       1.0872443
   169   6 C      176   1 H                                       1.0876452
   169   6 C      177   1 H                                       1.0926113
   169   6 C      178   1 H                                       1.0928266
   172   6 C      179   1 H                                       1.0868002
   172   6 C      180   1 H                                       1.0911785
   172   6 C      181   1 H                                       1.0927195
   163   6 C      182   1 H                                       1.0877597
   163   6 C      183   1 H                                       1.0913846
   163   6 C      184   1 H                                       1.0928755
   159   6 C      185   1 H                                       1.0910767
   159   6 C      186   1 H                                       1.0931391
   159   6 C      187   1 H                                       1.0871426
   157   6 C      188   1 H                                       1.0871114
   157   6 C      189   1 H                                       1.0923652
   157   6 C      190   1 H                                       1.0926537
   142   6 C      191   1 H                                       1.0787329
   144   6 C      192   1 H                                       1.0771143
   148   6 C      193   1 H                                       1.0778263
   132   6 C      194   1 H                                       1.0765102
   146   6 C      195   1 H                                       1.0767975
   128   6 C      196   1 H                                       1.0791463
   102   6 C      197   1 H                                       1.0745766 (min)
   120   6 C      198   1 H                                       1.0762865
   122   6 C      199   1 H                                       1.0779603
   106   6 C      200   1 H                                       1.0778824
   118   6 C      201   1 H                                       1.0774941
   116   6 C      202   1 H                                       1.0766444

 * 5 distinct bonds (by element types)

   Z      Z             #   av. dist./Å        max./Å        min./Å
   1 H    6 C          60     1.0857083     1.0946347     1.0745766
   6 C    6 C          68     1.4028324     1.4340378     1.3425575
   6 C    7 N          17     1.3428187     1.4807050     1.2895914
   5 B    8 O           8     1.4619646     1.4849703     1.4351131
   6 C    8 O          44     1.3238011     1.4234657     1.2043231


optimized geometry written to: xtbopt.mol


           -------------------------------------------------
          | TOTAL ENERGY             -401.597966127039 Eh   |
          | GRADIENT NORM               0.000498418464 Eh/α |
          | HOMO-LUMO GAP               0.040601145953 eV   |
           -------------------------------------------------
########################################################################
[WARNING] Runtime exception occurred
-1- restart_readRestart: Number of electron missmatch in restart file.
Note: The following floating-point exceptions are signalling: IEEE_UNDERFLOW_FLAG
normal termination of xtb
########################################################################

------------------------------------------------------------------------
 * finished run on 2024/11/07 at 12:10:34.169     
------------------------------------------------------------------------
 total:
 * wall-time:     0 d,  0 h,  1 min, 21.092 sec
 *  cpu-time:     0 d,  0 h,  5 min, 33.208 sec
 * ratio c/w:     4.109 speedup
 SCF:
 * wall-time:     0 d,  0 h,  0 min,  4.546 sec
 *  cpu-time:     0 d,  0 h,  0 min, 16.596 sec
 * ratio c/w:     3.650 speedup
 ANC optimizer:
 * wall-time:     0 d,  0 h,  1 min, 16.500 sec
 *  cpu-time:     0 d,  0 h,  5 min, 16.518 sec
 * ratio c/w:     4.138 speedup

