      -----------------------------------------------------------      
     |                   =====================                   |     
     |                           x T B                           |     
     |                   =====================                   |     
     |                         S. Grimme                         |     
     |          Mulliken Center for Theoretical Chemistry        |     
     |                    University of Bonn                     |     
      -----------------------------------------------------------      

   * xtb version 6.6.1 (8d0f1dd) compiled by 'runner@Mac-1690902418499.local' on 2023-08-01

   xtb is free software: you can redistribute it and/or modify it under
   the terms of the GNU Lesser General Public License as published by
   the Free Software Foundation, either version 3 of the License, or
   (at your option) any later version.
   
   xtb is distributed in the hope that it will be useful,
   but WITHOUT ANY WARRANTY; without even the implied warranty of
   MERCHANTABILITY or FITNESS FOR A PARTICULAR PURPOSE.  See the
   GNU Lesser General Public License for more details.
   
   Cite this work as:
   * C. Bannwarth, E. Caldeweyher, S. Ehlert, A. Hansen, P. Pracht,
     J. Seibert, S. Spicher, S. Grimme, WIREs Comput. Mol. Sci., 2020, 11,
     e01493. DOI: 10.1002/wcms.1493
   
   for GFN2-xTB:
   * C. Bannwarth, S. Ehlert and S. Grimme., J. Chem. Theory Comput., 2019,
     15, 1652-1671. DOI: 10.1021/acs.jctc.8b01176
   for GFN1-xTB:
   * S. Grimme, C. Bannwarth, P. Shushkov, J. Chem. Theory Comput., 2017,
     13, 1989-2009. DOI: 10.1021/acs.jctc.7b00118
   for GFN0-xTB:
   * P. Pracht, E. Caldeweyher, S. Ehlert, S. Grimme, ChemRxiv, 2019, preprint.
     DOI: 10.26434/chemrxiv.8326202.v1
   for GFN-FF:
   * S. Spicher and S. Grimme, Angew. Chem. Int. Ed., 2020, 59, 15665-15673.
     DOI: 10.1002/anie.202004239
   
   for ALPB and GBSA implicit solvation:
   * S. Ehlert, M. Stahn, S. Spicher, S. Grimme, J. Chem. Theory Comput.,
     2021, 17, 4250-4261. DOI: 10.1021/acs.jctc.1c00471
   
   for DFT-D4:
   * E. Caldeweyher, C. Bannwarth and S. Grimme, J. Chem. Phys., 2017,
     147, 034112. DOI: 10.1063/1.4993215
   * E. Caldeweyher, S. Ehlert, A. Hansen, H. Neugebauer, S. Spicher,
     C. Bannwarth and S. Grimme, J. Chem. Phys., 2019, 150, 154122.
     DOI: 10.1063/1.5090222
   * E. Caldeweyher, J.-M. Mewes, S. Ehlert and S. Grimme, Phys. Chem. Chem. Phys.
     2020, 22, 8499-8512. DOI: 10.1039/D0CP00502A
   
   for sTDA-xTB:
   * S. Grimme and C. Bannwarth, J. Chem. Phys., 2016, 145, 054103.
     DOI: 10.1063/1.4959605
   
   in the mass-spec context:
   * V. Asgeirsson, C. Bauer and S. Grimme, Chem. Sci., 2017, 8, 4879.
     DOI: 10.1039/c7sc00601b
   * J. Koopman and S. Grimme, ACS Omega 2019, 4, 12, 15120-15133.
     DOI: 10.1021/acsomega.9b02011
   
   for metadynamics refer to:
   * S. Grimme, J. Chem. Theory Comput., 2019, 155, 2847-2862
     DOI: 10.1021/acs.jctc.9b00143
   
   for SPH calculations refer to:
   * S. Spicher and S. Grimme, J. Chem. Theory Comput., 2021, 17, 1701-1714
     DOI: 10.1021/acs.jctc.0c01306
   
   with help from (in alphabetical order)
   P. Atkinson, C. Bannwarth, F. Bohle, G. Brandenburg, E. Caldeweyher
   M. Checinski, S. Dohm, S. Ehlert, S. Ehrlich, I. Gerasimov, C. Hölzer
   A. Katbashev, J. Koopman, C. Lavigne, S. Lehtola, F. März, M. Müller,
   F. Musil, H. Neugebauer, J. Pisarek, C. Plett, P. Pracht, F. Pultar,
   J. Seibert, P. Shushkov, S. Spicher, M. Stahn, M. Steiner, T. Strunk,
   J. Stückrath, T. Rose, and J. Unsleber
   
 * started run on 2024/11/07 at 12:02:34.244     

           -------------------------------------------------
          |                Calculation Setup                |
           -------------------------------------------------

          program call               : xtb opt_anion_Base1CO2Me.mol --gfn2 --sp --chrg -1 --uhf 0
          coordinate file            : opt_anion_Base1CO2Me.mol
          omp threads                :                     8

   ID    Z sym.   atoms
    1    6 C      1-9, 11, 12, 14-21, 24-35, 37, 38, 40-47, 50-52, 56, 58,
                  62, 65, 68, 71
    2    7 N      10, 13, 36, 39
    3    8 O      22, 23, 48, 49, 54, 55, 57, 59-61, 63, 64, 66, 67, 69, 70
    4    5 B      53
    5    1 H      72-101
########################################################################
[WARNING] Please study the warnings concerning your input carefully
-1- prog_main: Charge in sdf/mol input was overwritten
########################################################################

           -------------------------------------------------
          |                 G F N 2 - x T B                 |
           -------------------------------------------------

        Reference                      10.1021/acs.jctc.8b01176
      * Hamiltonian:
        H0-scaling (s, p, d)           1.850000    2.230000    2.230000
        zeta-weighting                 0.500000
      * Dispersion:
        s8                             2.700000
        a1                             0.520000
        a2                             5.000000
        s9                             5.000000
      * Repulsion:
        kExp                           1.500000    1.000000
        rExp                           1.000000
      * Coulomb:
        alpha                          2.000000
        third order                    shell-resolved
        anisotropic                    true
        a3                             3.000000
        a5                             4.000000
        cn-shift                       1.200000
        cn-exp                         4.000000
        max-rad                        5.000000

q/qsh data taken from xtbrestart
CAMM data taken from xtbrestart

          ...................................................
          :                      SETUP                      :
          :.................................................:
          :  # basis functions                 314          :
          :  # atomic orbitals                 314          :
          :  # shells                          172          :
          :  # electrons                       350          :
          :  max. iterations                   250          :
          :  Hamiltonian                  GFN2-xTB          :
          :  restarted?                       true          :
          :  GBSA solvation                  false          :
          :  PC potential                    false          :
          :  electronic temp.          300.0000000     K    :
          :  accuracy                    1.0000000          :
          :  -> integral cutoff          0.2500000E+02      :
          :  -> integral neglect         0.1000000E-07      :
          :  -> SCF convergence          0.1000000E-05 Eh   :
          :  -> wf. convergence          0.1000000E-03 e    :
          :  Broyden damping             0.4000000          :
          ...................................................

 iter      E             dE          RMSdq      gap      omega  full diag
   1   -203.4046202 -0.203405E+03  0.366E-01    0.08       0.0  T
   2   -203.3165098  0.881104E-01  0.636E-01    0.17       1.0  T
   3   -203.2394954  0.770144E-01  0.856E-01    0.42       1.0  T
   4   -203.3637159 -0.124221E+00  0.469E-01    0.13       1.0  T
   5   -203.4137367 -0.500208E-01  0.125E-01    0.07       1.0  T
   6   -203.3986862  0.150505E-01  0.253E-01    0.09       1.0  T
   7   -203.4023701 -0.368389E-02  0.217E-01    0.08       1.0  T
   8   -203.4123677 -0.999766E-02  0.980E-02    0.08       1.0  T
   9   -203.4137988 -0.143104E-02  0.644E-02    0.08       1.0  T
  10   -203.4146921 -0.893307E-03  0.286E-02    0.08       1.0  T
  11   -203.4148365 -0.144404E-03  0.169E-02    0.08       1.0  T
  12   -203.4149128 -0.763105E-04  0.245E-03    0.08       4.1  T
  13   -203.4149134 -0.668946E-06  0.164E-03    0.08       6.1  T
  14   -203.4149137 -0.288108E-06  0.120E-03    0.08       8.3  T
  15   -203.4149141 -0.369534E-06  0.219E-04    0.08      45.4  T
  16   -203.4149141  0.146840E-07  0.306E-04    0.08      32.5  T

   *** convergence criteria satisfied after 16 iterations ***

         #    Occupation            Energy/Eh            Energy/eV
      -------------------------------------------------------------
         1        2.0000           -0.6860391             -18.6681
       ...           ...                  ...                  ...
       169        2.0000           -0.3086821              -8.3997
       170        2.0000           -0.3057240              -8.3192
       171        2.0000           -0.3017972              -8.2123
       172        2.0000           -0.2931947              -7.9782
       173        2.0000           -0.2923976              -7.9565
       174        2.0000           -0.2913445              -7.9279
       175        1.6345           -0.2791850              -7.5970 (HOMO)
       176        0.3655           -0.2763393              -7.5196 (LUMO)
       177                         -0.2258562              -6.1459
       178                         -0.2230165              -6.0686
       179                         -0.2097754              -5.7083
       180                         -0.2068989              -5.6300
       ...                                ...                  ...
       314                          0.7823915              21.2900
      -------------------------------------------------------------
                  HL-Gap            0.0028457 Eh            0.0774 eV
             Fermi-level           -0.2777622 Eh           -7.5583 eV

 SCC (total)                   0 d,  0 h,  0 min,  1.211 sec
 SCC setup                      ...        0 min,  0.000 sec (  0.025%)
 Dispersion                     ...        0 min,  0.001 sec (  0.081%)
 classical contributions        ...        0 min,  0.000 sec (  0.018%)
 integral evaluation            ...        0 min,  0.005 sec (  0.436%)
 iterations                     ...        0 min,  1.167 sec ( 96.396%)
 molecular gradient             ...        0 min,  0.029 sec (  2.425%)
 printout                       ...        0 min,  0.007 sec (  0.618%)

         :::::::::::::::::::::::::::::::::::::::::::::::::::::
         ::                     SUMMARY                     ::
         :::::::::::::::::::::::::::::::::::::::::::::::::::::
         :: total energy            -200.900563661346 Eh    ::
         :: gradient norm              0.000592853431 Eh/a0 ::
         :: HOMO-LUMO gap              0.077435486035 eV    ::
         ::.................................................::
         :: SCC energy              -203.414914086965 Eh    ::
         :: -> isotropic ES            0.480036214291 Eh    ::
         :: -> anisotropic ES         -0.008263043243 Eh    ::
         :: -> anisotropic XC          0.047096505074 Eh    ::
         :: -> dispersion             -0.159573550777 Eh    ::
         :: repulsion energy           2.514293906772 Eh    ::
         :: add. restraining           0.000000000000 Eh    ::
         :: total charge              -1.000010935845 e     ::
         :::::::::::::::::::::::::::::::::::::::::::::::::::::

           -------------------------------------------------
          |                Property Printout                |
           -------------------------------------------------

    * Orbital Energies and Occupations

         #    Occupation            Energy/Eh            Energy/eV
      -------------------------------------------------------------
         1        2.0000           -0.6860391             -18.6681
       ...           ...                  ...                  ...
       163        2.0000           -0.3349370              -9.1141
       164        2.0000           -0.3336052              -9.0779
       165        2.0000           -0.3293111              -8.9610
       166        2.0000           -0.3237422              -8.8095
       167        2.0000           -0.3205992              -8.7239
       168        2.0000           -0.3126274              -8.5070
       169        2.0000           -0.3086821              -8.3997
       170        2.0000           -0.3057240              -8.3192
       171        2.0000           -0.3017972              -8.2123
       172        2.0000           -0.2931947              -7.9782
       173        2.0000           -0.2923976              -7.9565
       174        2.0000           -0.2913445              -7.9279
       175        1.6345           -0.2791850              -7.5970 (HOMO)
       176        0.3655           -0.2763393              -7.5196 (LUMO)
       177                         -0.2258562              -6.1459
       178                         -0.2230165              -6.0686
       179                         -0.2097754              -5.7083
       180                         -0.2068989              -5.6300
       181                         -0.2038481              -5.5470
       182                         -0.1980498              -5.3892
       183                         -0.1736444              -4.7251
       184                         -0.1689330              -4.5969
       185                         -0.1652280              -4.4961
       186                         -0.1619263              -4.4062
       ...                                ...                  ...
       314                          0.7823915              21.2900
      -------------------------------------------------------------
                  HL-Gap            0.0028457 Eh            0.0774 eV
             Fermi-level           -0.2777622 Eh           -7.5583 eV

     #   Z          covCN         q      C6AA      α(0)
     1   6 C        2.922    -0.055    29.354     8.885
     2   6 C        2.866     0.175    24.241     8.070
     3   6 C        2.976    -0.020    28.513     8.759
     4   6 C        2.965     0.094    25.919     8.351
     5   6 C        2.935    -0.041    29.028     8.836
     6   6 C        2.964    -0.019    28.490     8.755
     7   6 C        2.969     0.044    27.003     8.524
     8   6 C        2.994    -0.022    28.551     8.765
     9   6 C        2.959     0.093    25.932     8.353
    10   7 N        1.860    -0.244    27.219     7.733
    11   6 C        2.967    -0.024    28.608     8.773
    12   6 C        2.964     0.096    25.864     8.342
    13   7 N        1.867    -0.241    27.155     7.724
    14   6 C        2.958     0.094    25.921     8.351
    15   6 C        2.925    -0.037    28.930     8.821
    16   6 C        2.963    -0.021    28.538     8.762
    17   6 C        2.928    -0.033    28.822     8.804
    18   6 C        2.846     0.174    24.253     8.071
    19   6 C        2.923    -0.051    29.256     8.870
    20   6 C        2.963    -0.021    28.532     8.761
    21   6 C        2.943    -0.033    28.810     8.803
    22   8 O        1.637    -0.402    20.907     6.172
    23   8 O        1.635    -0.416    21.164     6.210
    24   6 C        2.730     0.353    21.013     7.505
    25   6 C        2.732     0.354    20.995     7.502
    26   6 C        2.733     0.351    21.046     7.511
    27   6 C        2.926    -0.048    29.204     8.862
    28   6 C        2.853     0.174    24.269     8.074
    29   6 C        2.968    -0.028    28.702     8.788
    30   6 C        2.964     0.094    25.912     8.350
    31   6 C        2.939    -0.041    29.012     8.834
    32   6 C        2.963    -0.022    28.547     8.764
    33   6 C        2.969     0.042    27.062     8.533
    34   6 C        2.995    -0.023    28.562     8.767
    35   6 C        2.959     0.094    25.911     8.349
    36   7 N        1.865    -0.251    27.399     7.759
    37   6 C        2.973    -0.022    28.558     8.766
    38   6 C        2.967     0.094    25.919     8.351
    39   7 N        1.861    -0.244    27.231     7.735
    40   6 C        2.959     0.093    25.935     8.353
    41   6 C        2.927    -0.035    28.871     8.812
    42   6 C        2.963    -0.022    28.545     8.764
    43   6 C        2.925    -0.040    29.004     8.832
    44   6 C        2.850     0.177    24.193     8.061
    45   6 C        2.923    -0.056    29.400     8.892
    46   6 C        2.964    -0.020    28.515     8.759
    47   6 C        2.938    -0.042    29.053     8.840
    48   8 O        1.638    -0.408    21.011     6.187
    49   8 O        1.638    -0.397    20.802     6.157
    50   6 C        2.732     0.352    21.016     7.505
    51   6 C        2.732     0.352    21.024     7.507
    52   6 C        2.733     0.350    21.049     7.511
    53   5 B        3.194     0.625    13.255     6.072
    54   8 O        0.856    -0.418    22.039     6.294
    55   8 O        1.705    -0.263    18.362     5.786
    56   6 C        3.658     0.037    20.224     6.454
    57   8 O        1.705    -0.260    18.310     5.777
    58   6 C        3.657     0.035    20.276     6.463
    59   8 O        0.856    -0.426    22.205     6.318
    60   8 O        0.856    -0.412    21.916     6.277
    61   8 O        1.704    -0.269    18.463     5.801
    62   6 C        3.657     0.033    20.305     6.468
    63   8 O        0.856    -0.418    22.044     6.295
    64   8 O        1.705    -0.265    18.390     5.790
    65   6 C        3.658     0.038    20.217     6.453
    66   8 O        0.856    -0.421    22.114     6.305
    67   8 O        1.705    -0.260    18.307     5.777
    68   6 C        3.657     0.038    20.227     6.455
    69   8 O        0.856    -0.421    22.112     6.305
    70   8 O        1.705    -0.258    18.272     5.771
    71   6 C        3.656     0.037    20.236     6.458
    72   1 H        0.924     0.058     2.222     2.331
    73   1 H        0.924     0.058     2.222     2.331
    74   1 H        0.925     0.062     2.177     2.307
    75   1 H        0.925     0.065     2.138     2.286
    76   1 H        0.924     0.059     2.215     2.328
    77   1 H        0.924     0.054     2.268     2.355
    78   1 H        0.925     0.067     2.116     2.275
    79   1 H        0.924     0.060     2.200     2.319
    80   1 H        0.924     0.053     2.287     2.365
    81   1 H        0.925     0.056     2.242     2.341
    82   1 H        0.924     0.061     2.182     2.310
    83   1 H        0.924     0.081     1.972     2.196
    84   1 H        0.924     0.068     2.105     2.269
    85   1 H        0.924     0.056     2.244     2.343
    86   1 H        0.925     0.069     2.097     2.264
    87   1 H        0.925     0.063     2.163     2.300
    88   1 H        0.924     0.058     2.218     2.329
    89   1 H        0.924     0.058     2.221     2.331
    90   1 H        0.926     0.075     2.033     2.229
    91   1 H        0.926     0.066     2.126     2.280
    92   1 H        0.926     0.077     2.009     2.216
    93   1 H        0.926     0.070     2.081     2.256
    94   1 H        0.926     0.071     2.076     2.253
    95   1 H        0.926     0.072     2.064     2.246
    96   1 H        0.926     0.073     2.052     2.240
    97   1 H        0.926     0.063     2.170     2.303
    98   1 H        0.926     0.083     1.952     2.185
    99   1 H        0.926     0.077     2.006     2.215
   100   1 H        0.926     0.077     2.013     2.219
   101   1 H        0.926     0.071     2.079     2.255

 Mol. C6AA /au·bohr⁶  :     154964.273468
 Mol. C8AA /au·bohr⁸  :    3840707.490811
 Mol. α(0) /au        :        613.918423


Wiberg/Mayer (AO) data.
largest (>0.10) Wiberg bond orders for each atom

 ---------------------------------------------------------------------------
     #   Z sym  total        # sym  WBO       # sym  WBO       # sym  WBO
 ---------------------------------------------------------------------------
     1   6 C    3.911 --     2 C    1.402     6 C    1.314    96 H    0.950
     2   6 C    3.944 --     1 C    1.402     3 C    1.255    22 O    1.104
     3   6 C    3.930 --     2 C    1.255     7 C    1.210     4 C    1.187
     4   6 C    3.971 --    10 N    1.355     5 C    1.253     3 C    1.187
     5   6 C    3.922 --     6 C    1.465     4 C    1.253    99 H    0.961
     6   6 C    3.977 --     5 C    1.465     1 C    1.314    24 C    1.007
     7   6 C    3.983 --     8 C    1.318    11 C    1.213     3 C    1.210
     8   6 C    3.978 --     7 C    1.318    14 C    1.191     9 C    1.189
     9   6 C    3.979 --    10 N    1.341    17 C    1.277     8 C    1.189
    10   7 N    2.927 --     4 C    1.355     9 C    1.341
    11   6 C    3.939 --    18 C    1.255     7 C    1.213    12 C    1.192
    12   6 C    3.970 --    13 N    1.360    21 C    1.245    11 C    1.192
    13   7 N    2.920 --    12 C    1.360    14 C    1.337
    14   6 C    3.980 --    13 N    1.337    15 C    1.279     8 C    1.191
    15   6 C    3.805 --    16 C    1.390    14 C    1.279   101 H    0.963
    16   6 C    3.976 --    17 C    1.394    15 C    1.390    26 C    1.006
    17   6 C    3.809 --    16 C    1.394     9 C    1.277   100 H    0.963
    18   6 C    3.938 --    19 C    1.372    11 C    1.255    23 O    1.124
    19   6 C    3.899 --    18 C    1.372    20 C    1.310    97 H    0.963
    20   6 C    3.976 --    21 C    1.471    19 C    1.310    25 C    1.005
    21   6 C    3.908 --    20 C    1.471    12 C    1.245    98 H    0.961
    22   8 O    2.145 --     2 C    1.104    53 B    0.795
    23   8 O    2.125 --    18 C    1.124    53 B    0.764
    24   6 C    3.915 --    69 O    1.720    70 O    1.114     6 C    1.007
    25   6 C    3.916 --    59 O    1.707    57 O    1.123    20 C    1.005
    26   6 C    3.913 --    54 O    1.726    55 O    1.108    16 C    1.006
    27   6 C    3.900 --    28 C    1.378    32 C    1.310    95 H    0.963
    28   6 C    3.936 --    27 C    1.378    29 C    1.254    48 O    1.117
    29   6 C    3.940 --    28 C    1.254    33 C    1.216    30 C    1.194
    30   6 C    3.972 --    36 N    1.352    31 C    1.252    29 C    1.194
    31   6 C    3.916 --    32 C    1.472    30 C    1.252    93 H    0.962
    32   6 C    3.975 --    31 C    1.472    27 C    1.310    50 C    1.002
    33   6 C    3.983 --    34 C    1.320    29 C    1.216    37 C    1.206
    34   6 C    3.977 --    33 C    1.320    35 C    1.187    40 C    1.186
    35   6 C    3.978 --    36 N    1.344    43 C    1.275    34 C    1.187
    36   7 N    2.915 --    30 C    1.352    35 C    1.344
    37   6 C    3.928 --    44 C    1.249    33 C    1.206    38 C    1.184
    38   6 C    3.971 --    39 N    1.357    47 C    1.253    37 C    1.184
    39   7 N    2.935 --    38 C    1.357    40 C    1.340
    40   6 C    3.979 --    39 N    1.340    41 C    1.280    34 C    1.186
    41   6 C    3.809 --    42 C    1.390    40 C    1.280    90 H    0.963
    42   6 C    3.976 --    43 C    1.393    41 C    1.390    52 C    1.007
    43   6 C    3.805 --    42 C    1.393    35 C    1.275    91 H    0.964
    44   6 C    3.933 --    45 C    1.400    37 C    1.249    49 O    1.111
    45   6 C    3.910 --    44 C    1.400    46 C    1.314    94 H    0.950
    46   6 C    3.977 --    47 C    1.462    45 C    1.314    51 C    1.010
    47   6 C    3.918 --    46 C    1.462    38 C    1.253    92 H    0.961
    48   8 O    2.134 --    28 C    1.117    53 B    0.783
    49   8 O    2.166 --    44 C    1.111    53 B    0.807
    50   6 C    3.917 --    60 O    1.730    61 O    1.110    32 C    1.002
    51   6 C    3.915 --    66 O    1.720    67 O    1.110    46 C    1.010
    52   6 C    3.912 --    63 O    1.726    64 O    1.106    42 C    1.007
    53   5 B    3.305 --    49 O    0.807    22 O    0.795    48 O    0.783
                            23 O    0.764
    54   8 O    2.021 --    26 C    1.726    55 O    0.166
    55   8 O    2.294 --    26 C    1.108    56 C    0.965    54 O    0.166
    56   6 C    3.932 --    87 H    0.982    89 H    0.977    88 H    0.977
                            55 O    0.965
    57   8 O    2.304 --    25 C    1.123    58 C    0.959    59 O    0.167
    58   6 C    3.926 --    86 H    0.982    85 H    0.977    84 H    0.973
                            57 O    0.959
    59   8 O    2.011 --    25 C    1.707    57 O    0.167
    60   8 O    2.028 --    50 C    1.730    61 O    0.168
    61   8 O    2.293 --    50 C    1.110    62 C    0.957    60 O    0.168
    62   6 C    3.923 --    81 H    0.983    82 H    0.977    83 H    0.968
                            61 O    0.957
    63   8 O    2.021 --    52 C    1.726    64 O    0.165
    64   8 O    2.291 --    52 C    1.106    65 C    0.966    63 O    0.165
Note: The following floating-point exceptions are signalling: IEEE_UNDERFLOW_FLAG
normal termination of xtb
    65   6 C    3.933 --    74 H    0.982    73 H    0.977    72 H    0.977
                            64 O    0.966
    66   8 O    2.018 --    51 C    1.720    67 O    0.166
    67   8 O    2.297 --    51 C    1.110    68 C    0.966    66 O    0.166
    68   6 C    3.933 --    75 H    0.982    77 H    0.977    76 H    0.977
                            67 O    0.966
    69   8 O    2.018 --    24 C    1.720    70 O    0.167
    70   8 O    2.301 --    24 C    1.114    71 C    0.965    69 O    0.167
    71   6 C    3.932 --    78 H    0.981    80 H    0.977    79 H    0.977
                            70 O    0.965
    72   1 H    0.996 --    65 C    0.977
    73   1 H    0.996 --    65 C    0.977
    74   1 H    0.996 --    65 C    0.982
    75   1 H    0.995 --    68 C    0.982
    76   1 H    0.996 --    68 C    0.977
    77   1 H    0.997 --    68 C    0.977
    78   1 H    0.995 --    71 C    0.981
    79   1 H    0.996 --    71 C    0.977
    80   1 H    0.997 --    71 C    0.977
    81   1 H    0.996 --    62 C    0.983
    82   1 H    0.996 --    62 C    0.977
    83   1 H    0.993 --    62 C    0.968
    84   1 H    0.995 --    58 C    0.973
    85   1 H    0.996 --    58 C    0.977
    86   1 H    0.995 --    58 C    0.982
    87   1 H    0.996 --    56 C    0.982
    88   1 H    0.996 --    56 C    0.977
    89   1 H    0.996 --    56 C    0.977
    90   1 H    0.994 --    41 C    0.963
    91   1 H    0.995 --    43 C    0.964
    92   1 H    0.993 --    47 C    0.961
    93   1 H    0.994 --    31 C    0.962
    94   1 H    0.994 --    45 C    0.950
    95   1 H    0.994 --    27 C    0.963
    96   1 H    0.994 --     1 C    0.950
    97   1 H    0.996 --    19 C    0.963
    98   1 H    0.993 --    21 C    0.961
    99   1 H    0.993 --     5 C    0.961
   100   1 H    0.993 --    17 C    0.963
   101   1 H    0.994 --    15 C    0.963
 ---------------------------------------------------------------------------

Topologies differ in bond orders
Writing corrected topology to xtbtopo.mol

molecular dipole:
                 x           y           z       tot (Debye)
 q only:        2.170      -3.702      -0.956
   full:        2.049      -3.729      -0.918      11.063
molecular quadrupole (traceless):
                xx          xy          yy          xz          yz          zz
 q only:      -73.274      -3.303      29.057      -3.631      14.717      44.218
  q+dip:      -84.219      -5.026      30.324      -4.326      18.370      53.895
   full:      -88.935      -4.453      23.784     -10.451      19.391      65.151


           -------------------------------------------------
          | TOTAL ENERGY             -200.900563661346 Eh   |
          | GRADIENT NORM               0.000592853431 Eh/α |
          | HOMO-LUMO GAP               0.077435486035 eV   |
           -------------------------------------------------
########################################################################
[WARNING] Runtime exception occurred
-2- restart_readRestart: Multiplicity missmatch in restart file.
-1- restart_readRestart: Number of electron missmatch in restart file.
########################################################################

------------------------------------------------------------------------
 * finished run on 2024/11/07 at 12:02:35.473     
------------------------------------------------------------------------
 total:
 * wall-time:     0 d,  0 h,  0 min,  1.229 sec
 *  cpu-time:     0 d,  0 h,  0 min,  4.526 sec
 * ratio c/w:     3.683 speedup
 SCF:
 * wall-time:     0 d,  0 h,  0 min,  1.211 sec
 *  cpu-time:     0 d,  0 h,  0 min,  4.498 sec
 * ratio c/w:     3.713 speedup

