      -----------------------------------------------------------      
     |                   =====================                   |     
     |                           x T B                           |     
     |                   =====================                   |     
     |                         S. Grimme                         |     
     |          Mulliken Center for Theoretical Chemistry        |     
     |                    University of Bonn                     |     
      -----------------------------------------------------------      

   * xtb version 6.6.1 (8d0f1dd) compiled by 'runner@Mac-1690902418499.local' on 2023-08-01

   xtb is free software: you can redistribute it and/or modify it under
   the terms of the GNU Lesser General Public License as published by
   the Free Software Foundation, either version 3 of the License, or
   (at your option) any later version.
   
   xtb is distributed in the hope that it will be useful,
   but WITHOUT ANY WARRANTY; without even the implied warranty of
   MERCHANTABILITY or FITNESS FOR A PARTICULAR PURPOSE.  See the
   GNU Lesser General Public License for more details.
   
   Cite this work as:
   * C. Bannwarth, E. Caldeweyher, S. Ehlert, A. Hansen, P. Pracht,
     J. Seibert, S. Spicher, S. Grimme, WIREs Comput. Mol. Sci., 2020, 11,
     e01493. DOI: 10.1002/wcms.1493
   
   for GFN2-xTB:
   * C. Bannwarth, S. Ehlert and S. Grimme., J. Chem. Theory Comput., 2019,
     15, 1652-1671. DOI: 10.1021/acs.jctc.8b01176
   for GFN1-xTB:
   * S. Grimme, C. Bannwarth, P. Shushkov, J. Chem. Theory Comput., 2017,
     13, 1989-2009. DOI: 10.1021/acs.jctc.7b00118
   for GFN0-xTB:
   * P. Pracht, E. Caldeweyher, S. Ehlert, S. Grimme, ChemRxiv, 2019, preprint.
     DOI: 10.26434/chemrxiv.8326202.v1
   for GFN-FF:
   * S. Spicher and S. Grimme, Angew. Chem. Int. Ed., 2020, 59, 15665-15673.
     DOI: 10.1002/anie.202004239
   
   for ALPB and GBSA implicit solvation:
   * S. Ehlert, M. Stahn, S. Spicher, S. Grimme, J. Chem. Theory Comput.,
     2021, 17, 4250-4261. DOI: 10.1021/acs.jctc.1c00471
   
   for DFT-D4:
   * E. Caldeweyher, C. Bannwarth and S. Grimme, J. Chem. Phys., 2017,
     147, 034112. DOI: 10.1063/1.4993215
   * E. Caldeweyher, S. Ehlert, A. Hansen, H. Neugebauer, S. Spicher,
     C. Bannwarth and S. Grimme, J. Chem. Phys., 2019, 150, 154122.
     DOI: 10.1063/1.5090222
   * E. Caldeweyher, J.-M. Mewes, S. Ehlert and S. Grimme, Phys. Chem. Chem. Phys.
     2020, 22, 8499-8512. DOI: 10.1039/D0CP00502A
   
   for sTDA-xTB:
   * S. Grimme and C. Bannwarth, J. Chem. Phys., 2016, 145, 054103.
     DOI: 10.1063/1.4959605
   
   in the mass-spec context:
   * V. Asgeirsson, C. Bauer and S. Grimme, Chem. Sci., 2017, 8, 4879.
     DOI: 10.1039/c7sc00601b
   * J. Koopman and S. Grimme, ACS Omega 2019, 4, 12, 15120-15133.
     DOI: 10.1021/acsomega.9b02011
   
   for metadynamics refer to:
   * S. Grimme, J. Chem. Theory Comput., 2019, 155, 2847-2862
     DOI: 10.1021/acs.jctc.9b00143
   
   for SPH calculations refer to:
   * S. Spicher and S. Grimme, J. Chem. Theory Comput., 2021, 17, 1701-1714
     DOI: 10.1021/acs.jctc.0c01306
   
   with help from (in alphabetical order)
   P. Atkinson, C. Bannwarth, F. Bohle, G. Brandenburg, E. Caldeweyher
   M. Checinski, S. Dohm, S. Ehlert, S. Ehrlich, I. Gerasimov, C. Hölzer
   A. Katbashev, J. Koopman, C. Lavigne, S. Lehtola, F. März, M. Müller,
   F. Musil, H. Neugebauer, J. Pisarek, C. Plett, P. Pracht, F. Pultar,
   J. Seibert, P. Shushkov, S. Spicher, M. Stahn, M. Steiner, T. Strunk,
   J. Stückrath, T. Rose, and J. Unsleber
   
 * started run on 2024/11/07 at 12:02:36.575     

           -------------------------------------------------
          |                Calculation Setup                |
           -------------------------------------------------

          program call               : xtb opt_radical_Base1CO2Me.mol --gfn2 --sp --chrg -1 --uhf 0
          coordinate file            : opt_radical_Base1CO2Me.mol
          omp threads                :                     8

   ID    Z sym.   atoms
    1    6 C      1-9, 11, 12, 14-21, 24-35, 37, 38, 40-47, 50-52, 56, 58,
                  62, 65, 68, 71
    2    7 N      10, 13, 36, 39
    3    8 O      22, 23, 48, 49, 54, 55, 57, 59-61, 63, 64, 66, 67, 69, 70
    4    5 B      53
    5    1 H      72-101

           -------------------------------------------------
          |                 G F N 2 - x T B                 |
           -------------------------------------------------

        Reference                      10.1021/acs.jctc.8b01176
      * Hamiltonian:
        H0-scaling (s, p, d)           1.850000    2.230000    2.230000
        zeta-weighting                 0.500000
      * Dispersion:
        s8                             2.700000
        a1                             0.520000
        a2                             5.000000
        s9                             5.000000
      * Repulsion:
        kExp                           1.500000    1.000000
        rExp                           1.000000
      * Coulomb:
        alpha                          2.000000
        third order                    shell-resolved
        anisotropic                    true
        a3                             3.000000
        a5                             4.000000
        cn-shift                       1.200000
        cn-exp                         4.000000
        max-rad                        5.000000

q/qsh data taken from xtbrestart
CAMM data taken from xtbrestart

          ...................................................
          :                      SETUP                      :
          :.................................................:
          :  # basis functions                 314          :
          :  # atomic orbitals                 314          :
          :  # shells                          172          :
          :  # electrons                       350          :
          :  max. iterations                   250          :
          :  Hamiltonian                  GFN2-xTB          :
          :  restarted?                       true          :
          :  GBSA solvation                  false          :
          :  PC potential                    false          :
          :  electronic temp.          300.0000000     K    :
          :  accuracy                    1.0000000          :
          :  -> integral cutoff          0.2500000E+02      :
          :  -> integral neglect         0.1000000E-07      :
          :  -> SCF convergence          0.1000000E-05 Eh   :
          :  -> wf. convergence          0.1000000E-03 e    :
          :  Broyden damping             0.4000000          :
          ...................................................

 iter      E             dE          RMSdq      gap      omega  full diag
   1   -203.4048062 -0.203405E+03  0.395E-01    0.09       0.0  T
   2   -203.2517469  0.153059E+00  0.832E-01    0.34       1.0  T
   3   -203.2758865 -0.241395E-01  0.770E-01    0.36       1.0  T
   4   -203.4086372 -0.132751E+00  0.272E-01    0.10       1.0  T
   5   -203.4165706 -0.793332E-02  0.146E-01    0.07       1.0  T
   6   -203.4134972  0.307331E-02  0.162E-01    0.08       1.0  T
   7   -203.4177018 -0.420451E-02  0.784E-02    0.08       1.0  T
   8   -203.4171428  0.558964E-03  0.864E-02    0.08       1.0  T
   9   -203.4174188 -0.275962E-03  0.797E-02    0.08       1.0  T
  10   -203.4189847 -0.156594E-02  0.232E-02    0.08       1.0  T
  11   -203.4191203 -0.135643E-03  0.567E-03    0.08       1.8  T
  12   -203.4191271 -0.679796E-05  0.225E-03    0.08       4.4  T
  13   -203.4191282 -0.102090E-05  0.896E-04    0.08      11.1  T
  14   -203.4191283 -0.120299E-06  0.377E-04    0.08      26.4  T
  15   -203.4191283 -0.139077E-07  0.244E-04    0.08      40.7  T

   *** convergence criteria satisfied after 15 iterations ***

         #    Occupation            Energy/Eh            Energy/eV
      -------------------------------------------------------------
         1        2.0000           -0.6874252             -18.7058
       ...           ...                  ...                  ...
       169        2.0000           -0.3062785              -8.3343
       170        2.0000           -0.3036025              -8.2614
       171        2.0000           -0.3000711              -8.1654
       172        2.0000           -0.2904990              -7.9049
       173        2.0000           -0.2897811              -7.8853
       174        2.0000           -0.2886355              -7.8542
       175        1.6334           -0.2765093              -7.5242 (HOMO)
       176        0.3666           -0.2736701              -7.4469 (LUMO)
       177                         -0.2231255              -6.0716
       178                         -0.2198718              -5.9830
       179                         -0.2068063              -5.6275
       180                         -0.2037551              -5.5445
       ...                                ...                  ...
       314                          0.7878050              21.4373
      -------------------------------------------------------------
                  HL-Gap            0.0028392 Eh            0.0773 eV
             Fermi-level           -0.2750897 Eh           -7.4856 eV

 SCC (total)                   0 d,  0 h,  0 min,  1.027 sec
 SCC setup                      ...        0 min,  0.000 sec (  0.028%)
 Dispersion                     ...        0 min,  0.001 sec (  0.112%)
 classical contributions        ...        0 min,  0.000 sec (  0.020%)
 integral evaluation            ...        0 min,  0.006 sec (  0.541%)
 iterations                     ...        0 min,  0.987 sec ( 96.079%)
 molecular gradient             ...        0 min,  0.031 sec (  3.057%)
 printout                       ...        0 min,  0.002 sec (  0.160%)

         :::::::::::::::::::::::::::::::::::::::::::::::::::::
         ::                     SUMMARY                     ::
         :::::::::::::::::::::::::::::::::::::::::::::::::::::
         :: total energy            -200.899271513887 Eh    ::
         :: gradient norm              0.037543619183 Eh/a0 ::
         :: HOMO-LUMO gap              0.077257545124 eV    ::
         ::.................................................::
         :: SCC energy              -203.419128296017 Eh    ::
         :: -> isotropic ES            0.479003909573 Eh    ::
         :: -> anisotropic ES         -0.007449664273 Eh    ::
         :: -> anisotropic XC          0.047263898821 Eh    ::
         :: -> dispersion             -0.159747382878 Eh    ::
         :: repulsion energy           2.519797160679 Eh    ::
         :: add. restraining           0.000000000000 Eh    ::
         :: total charge              -1.000027944487 e     ::
         :::::::::::::::::::::::::::::::::::::::::::::::::::::

           -------------------------------------------------
          |                Property Printout                |
           -------------------------------------------------

    * Orbital Energies and Occupations

         #    Occupation            Energy/Eh            Energy/eV
      -------------------------------------------------------------
         1        2.0000           -0.6874252             -18.7058
       ...           ...                  ...                  ...
       163        2.0000           -0.3331916              -9.0666
       164        2.0000           -0.3320605              -9.0358
       165        2.0000           -0.3269536              -8.8969
       166        2.0000           -0.3214940              -8.7483
       167        2.0000           -0.3190214              -8.6810
       168        2.0000           -0.3100804              -8.4377
       169        2.0000           -0.3062785              -8.3343
       170        2.0000           -0.3036025              -8.2614
       171        2.0000           -0.3000711              -8.1654
       172        2.0000           -0.2904990              -7.9049
       173        2.0000           -0.2897811              -7.8853
       174        2.0000           -0.2886355              -7.8542
       175        1.6334           -0.2765093              -7.5242 (HOMO)
       176        0.3666           -0.2736701              -7.4469 (LUMO)
       177                         -0.2231255              -6.0716
       178                         -0.2198718              -5.9830
       179                         -0.2068063              -5.6275
       180                         -0.2037551              -5.5445
       181                         -0.2010161              -5.4699
       182                         -0.1950758              -5.3083
       183                         -0.1715621              -4.6684
       184                         -0.1666317              -4.5343
       185                         -0.1637078              -4.4547
       186                         -0.1603641              -4.3637
       ...                                ...                  ...
       314                          0.7878050              21.4373
      -------------------------------------------------------------
                  HL-Gap            0.0028392 Eh            0.0773 eV
             Fermi-level           -0.2750897 Eh           -7.4856 eV

     #   Z          covCN         q      C6AA      α(0)
     1   6 C        2.921    -0.055    29.374     8.888
     2   6 C        2.866     0.175    24.239     8.070
     3   6 C        2.976    -0.022    28.546     8.764
     4   6 C        2.966     0.094    25.912     8.350
     5   6 C        2.934    -0.042    29.046     8.839
     6   6 C        2.964    -0.021    28.520     8.760
     7   6 C        2.969     0.044    27.012     8.525
     8   6 C        2.995    -0.022    28.554     8.766
     9   6 C        2.960     0.092    25.944     8.354
    10   7 N        1.860    -0.244    27.215     7.732
    11   6 C        2.967    -0.026    28.640     8.778
    12   6 C        2.964     0.097    25.855     8.340
    13   7 N        1.868    -0.241    27.137     7.722
    14   6 C        2.959     0.093    25.930     8.352
    15   6 C        2.925    -0.038    28.947     8.823
    16   6 C        2.962    -0.023    28.583     8.769
    17   6 C        2.928    -0.034    28.842     8.807
    18   6 C        2.844     0.175    24.244     8.070
    19   6 C        2.923    -0.051    29.273     8.873
    20   6 C        2.962    -0.022    28.546     8.764
    21   6 C        2.943    -0.031    28.782     8.799
    22   8 O        1.638    -0.401    20.868     6.166
    23   8 O        1.635    -0.415    21.145     6.207
    24   6 C        2.730     0.354    20.994     7.501
    25   6 C        2.731     0.355    20.976     7.498
    26   6 C        2.732     0.352    21.019     7.506
    27   6 C        2.925    -0.050    29.231     8.866
    28   6 C        2.854     0.174    24.269     8.074
    29   6 C        2.969    -0.029    28.722     8.791
    30   6 C        2.965     0.094    25.913     8.350
    31   6 C        2.938    -0.041    29.030     8.837
    32   6 C        2.962    -0.023    28.581     8.769
    33   6 C        2.968     0.041    27.072     8.534
    34   6 C        2.995    -0.023    28.566     8.767
    35   6 C        2.961     0.094    25.919     8.351
    36   7 N        1.866    -0.252    27.413     7.761
    37   6 C        2.971    -0.024    28.601     8.772
    38   6 C        2.967     0.094    25.914     8.350
    39   7 N        1.864    -0.244    27.222     7.734
    40   6 C        2.960     0.092    25.949     8.355
    41   6 C        2.927    -0.036    28.894     8.815
    42   6 C        2.963    -0.024    28.590     8.770
    43   6 C        2.925    -0.041    29.028     8.835
    44   6 C        2.849     0.178    24.187     8.060
    45   6 C        2.923    -0.057    29.413     8.894
    46   6 C        2.963    -0.022    28.545     8.764
    47   6 C        2.939    -0.043    29.069     8.842
    48   8 O        1.638    -0.407    20.988     6.184
    49   8 O        1.639    -0.395    20.766     6.151
    50   6 C        2.731     0.354    20.998     7.502
    51   6 C        2.732     0.353    21.002     7.503
    52   6 C        2.732     0.352    21.022     7.506
    53   5 B        3.195     0.626    13.252     6.071
    54   8 O        0.856    -0.418    22.048     6.296
    55   8 O        1.705    -0.260    18.305     5.777
    56   6 C        3.659     0.036    20.255     6.459
    57   8 O        1.705    -0.260    18.301     5.776
    58   6 C        3.657     0.034    20.278     6.463
    59   8 O        0.856    -0.425    22.195     6.316
    60   8 O        0.857    -0.414    21.957     6.282
    61   8 O        1.704    -0.266    18.403     5.792
    62   6 C        3.657     0.031    20.336     6.473
    63   8 O        0.856    -0.418    22.051     6.296
    64   8 O        1.705    -0.262    18.335     5.781
    65   6 C        3.659     0.036    20.247     6.458
    66   8 O        0.856    -0.421    22.099     6.303
    67   8 O        1.705    -0.259    18.285     5.773
    68   6 C        3.658     0.036    20.247     6.458
    69   8 O        0.856    -0.420    22.093     6.302
    70   8 O        1.705    -0.257    18.252     5.768
    71   6 C        3.657     0.036    20.250     6.459
    72   1 H        0.924     0.059     2.208     2.324
    73   1 H        0.924     0.059     2.209     2.324
    74   1 H        0.925     0.063     2.162     2.299
    75   1 H        0.925     0.066     2.132     2.283
    76   1 H        0.924     0.060     2.202     2.321
    77   1 H        0.924     0.055     2.259     2.350
    78   1 H        0.925     0.068     2.108     2.270
    79   1 H        0.924     0.059     2.211     2.326
    80   1 H        0.924     0.055     2.260     2.351
    81   1 H        0.925     0.057     2.232     2.336
    82   1 H        0.924     0.063     2.169     2.303
    83   1 H        0.924     0.082     1.959     2.189
    84   1 H        0.924     0.067     2.116     2.275
    85   1 H        0.924     0.057     2.237     2.339
    86   1 H        0.925     0.070     2.087     2.259
    87   1 H        0.925     0.064     2.148     2.292
    88   1 H        0.924     0.060     2.201     2.320
    89   1 H        0.924     0.059     2.210     2.325
    90   1 H        0.926     0.074     2.041     2.234
    91   1 H        0.926     0.064     2.149     2.292
    92   1 H        0.926     0.077     2.014     2.219
    93   1 H        0.926     0.069     2.097     2.264
    94   1 H        0.926     0.069     2.098     2.265
    95   1 H        0.926     0.071     2.071     2.251
    96   1 H        0.926     0.071     2.069     2.250
    97   1 H        0.926     0.061     2.181     2.310
    98   1 H        0.926     0.083     1.945     2.181
    99   1 H        0.926     0.077     2.013     2.219
   100   1 H        0.926     0.076     2.019     2.222
   101   1 H        0.926     0.069     2.099     2.265

 Mol. C6AA /au·bohr⁶  :     154963.235377
 Mol. C8AA /au·bohr⁸  :    3840902.701333
 Mol. α(0) /au        :        613.922955


Wiberg/Mayer (AO) data.
largest (>0.10) Wiberg bond orders for each atom

 ---------------------------------------------------------------------------
     #   Z sym  total        # sym  WBO       # sym  WBO       # sym  WBO
 ---------------------------------------------------------------------------
     1   6 C    3.908 --     2 C    1.396     6 C    1.316    96 H    0.951
     2   6 C    3.943 --     1 C    1.396     3 C    1.259    22 O    1.105
     3   6 C    3.929 --     2 C    1.259     7 C    1.210     4 C    1.182
     4   6 C    3.971 --    10 N    1.365     5 C    1.248     3 C    1.182
     5   6 C    3.920 --     6 C    1.470     4 C    1.248    99 H    0.961
     6   6 C    3.976 --     5 C    1.470     1 C    1.316    24 C    0.999
     7   6 C    3.983 --     8 C    1.315    11 C    1.216     3 C    1.210
     8   6 C    3.978 --     7 C    1.315    14 C    1.193     9 C    1.190
     9   6 C    3.979 --    10 N    1.336    17 C    1.279     8 C    1.190
    10   7 N    2.931 --     4 C    1.365     9 C    1.336
    11   6 C    3.940 --    18 C    1.254     7 C    1.216    12 C    1.189
    12   6 C    3.970 --    13 N    1.367    21 C    1.240    11 C    1.189
    13   7 N    2.926 --    12 C    1.367    14 C    1.338
    14   6 C    3.980 --    13 N    1.338    15 C    1.274     8 C    1.193
    15   6 C    3.808 --    16 C    1.398    14 C    1.274   101 H    0.964
    16   6 C    3.975 --    15 C    1.398    17 C    1.394    26 C    0.995
    17   6 C    3.810 --    16 C    1.394     9 C    1.279   100 H    0.962
    18   6 C    3.937 --    19 C    1.368    11 C    1.254    23 O    1.129
    19   6 C    3.896 --    18 C    1.368    20 C    1.312    97 H    0.963
    20   6 C    3.976 --    21 C    1.474    19 C    1.312    25 C    0.999
    21   6 C    3.906 --    20 C    1.474    12 C    1.240    98 H    0.961
    22   8 O    2.150 --     2 C    1.105    53 B    0.798
    23   8 O    2.130 --    18 C    1.129    53 B    0.761
    24   6 C    3.915 --    69 O    1.723    70 O    1.119     6 C    0.999
    25   6 C    3.915 --    59 O    1.710    57 O    1.126    20 C    0.999
    26   6 C    3.912 --    54 O    1.727    55 O    1.119    16 C    0.995
    27   6 C    3.900 --    28 C    1.379    32 C    1.310    95 H    0.963
    28   6 C    3.936 --    27 C    1.379    29 C    1.253    48 O    1.117
    29   6 C    3.940 --    28 C    1.253    33 C    1.220    30 C    1.191
    30   6 C    3.972 --    36 N    1.358    31 C    1.247    29 C    1.191
    31   6 C    3.917 --    32 C    1.478    30 C    1.247    93 H    0.962
    32   6 C    3.975 --    31 C    1.478    27 C    1.310    50 C    0.994
    33   6 C    3.983 --    34 C    1.318    29 C    1.220    37 C    1.204
    34   6 C    3.977 --    33 C    1.318    35 C    1.190    40 C    1.188
    35   6 C    3.978 --    36 N    1.345    43 C    1.270    34 C    1.190
    36   7 N    2.920 --    30 C    1.358    35 C    1.345
    37   6 C    3.926 --    44 C    1.254    33 C    1.204    38 C    1.178
    38   6 C    3.970 --    39 N    1.367    47 C    1.248    37 C    1.178
    39   7 N    2.939 --    38 C    1.367    40 C    1.335
    40   6 C    3.979 --    39 N    1.335    41 C    1.282    34 C    1.188
    41   6 C    3.809 --    42 C    1.390    40 C    1.282    90 H    0.963
    42   6 C    3.975 --    43 C    1.400    41 C    1.390    52 C    0.996
    43   6 C    3.808 --    42 C    1.400    35 C    1.270    91 H    0.964
    44   6 C    3.932 --    45 C    1.389    37 C    1.254    49 O    1.116
    45   6 C    3.906 --    44 C    1.389    46 C    1.319    94 H    0.952
    46   6 C    3.976 --    47 C    1.465    45 C    1.319    51 C    1.001
    47   6 C    3.914 --    46 C    1.465    38 C    1.248    92 H    0.961
    48   8 O    2.137 --    28 C    1.117    53 B    0.785
    49   8 O    2.171 --    44 C    1.116    53 B    0.805
    50   6 C    3.917 --    60 O    1.728    61 O    1.120    32 C    0.994
    51   6 C    3.914 --    66 O    1.723    67 O    1.116    46 C    1.001
    52   6 C    3.911 --    63 O    1.727    64 O    1.116    42 C    0.996
    53   5 B    3.305 --    49 O    0.805    22 O    0.798    48 O    0.785
                            23 O    0.761
    54   8 O    2.022 --    26 C    1.727    55 O    0.167
    55   8 O    2.299 --    26 C    1.119    56 C    0.961    54 O    0.167
    56   6 C    3.931 --    87 H    0.983    89 H    0.977    88 H    0.977
                            55 O    0.961
    57   8 O    2.305 --    25 C    1.126    58 C    0.957    59 O    0.167
    58   6 C    3.926 --    86 H    0.982    85 H    0.977    84 H    0.974
                            57 O    0.957
    59   8 O    2.014 --    25 C    1.710    57 O    0.167
    60   8 O    2.026 --    50 C    1.728    61 O    0.169
    61   8 O    2.298 --    50 C    1.120    62 C    0.954    60 O    0.169
    62   6 C    3.922 --    81 H    0.983    82 H    0.977    83 H    0.968
                            61 O    0.954
    63   8 O    2.022 --    52 C    1.727    64 O    0.166
    64   8 O    2.296 --    52 C    1.116    65 C    0.962    63 O    0.166
    65   6 C    3.932 --    74 H    0.983    73 H    0.978    72 H    0.977
                            64 O    0.962
    66   8 O    2.021 --    51 C    1.723    67 O    0.166
    67   8 O    2.299 --    51 C    1.116    68 C    0.963    66 O    0.166
    68   6 C    3.932 --    75 H    0.982    77 H    0.977    76 H    0.977
Note: The following floating-point exceptions are signalling: IEEE_UNDERFLOW_FLAG
normal termination of xtb
                            67 O    0.963
    69   8 O    2.021 --    24 C    1.723    70 O    0.168
    70   8 O    2.303 --    24 C    1.119    71 C    0.962    69 O    0.168
    71   6 C    3.932 --    78 H    0.982    80 H    0.978    79 H    0.977
                            70 O    0.962
    72   1 H    0.996 --    65 C    0.977
    73   1 H    0.996 --    65 C    0.978
    74   1 H    0.996 --    65 C    0.983
    75   1 H    0.995 --    68 C    0.982
    76   1 H    0.996 --    68 C    0.977
    77   1 H    0.997 --    68 C    0.977
    78   1 H    0.995 --    71 C    0.982
    79   1 H    0.996 --    71 C    0.977
    80   1 H    0.997 --    71 C    0.978
    81   1 H    0.996 --    62 C    0.983
    82   1 H    0.996 --    62 C    0.977
    83   1 H    0.993 --    62 C    0.968
    84   1 H    0.995 --    58 C    0.974
    85   1 H    0.996 --    58 C    0.977
    86   1 H    0.995 --    58 C    0.982
    87   1 H    0.996 --    56 C    0.983
    88   1 H    0.996 --    56 C    0.977
    89   1 H    0.996 --    56 C    0.977
    90   1 H    0.994 --    41 C    0.963
    91   1 H    0.995 --    43 C    0.964
    92   1 H    0.993 --    47 C    0.961
    93   1 H    0.995 --    31 C    0.962
    94   1 H    0.994 --    45 C    0.952
    95   1 H    0.994 --    27 C    0.963
    96   1 H    0.994 --     1 C    0.951
    97   1 H    0.996 --    19 C    0.963
    98   1 H    0.992 --    21 C    0.961
    99   1 H    0.993 --     5 C    0.961
   100   1 H    0.994 --    17 C    0.962
   101   1 H    0.995 --    15 C    0.964
 ---------------------------------------------------------------------------

Topologies differ in bond orders
Writing corrected topology to xtbtopo.mol

molecular dipole:
                 x           y           z       tot (Debye)
 q only:        2.161      -3.772      -0.930
   full:        2.031      -3.805      -0.894      11.195
molecular quadrupole (traceless):
                xx          xy          yy          xz          yz          zz
 q only:      -73.963      -3.152      30.113      -2.978      13.590      43.850
  q+dip:      -85.385      -5.050      31.539      -3.657      17.017      53.847
   full:      -90.161      -4.497      24.896      -9.861      18.087      65.265


           -------------------------------------------------
          | TOTAL ENERGY             -200.899271513887 Eh   |
          | GRADIENT NORM               0.037543619183 Eh/α |
          | HOMO-LUMO GAP               0.077257545124 eV   |
           -------------------------------------------------
########################################################################
[WARNING] Runtime exception occurred
-2- restart_readRestart: Multiplicity missmatch in restart file.
-1- restart_readRestart: Number of electron missmatch in restart file.
########################################################################

------------------------------------------------------------------------
 * finished run on 2024/11/07 at 12:02:37.616     
------------------------------------------------------------------------
 total:
 * wall-time:     0 d,  0 h,  0 min,  1.040 sec
 *  cpu-time:     0 d,  0 h,  0 min,  3.660 sec
 * ratio c/w:     3.518 speedup
 SCF:
 * wall-time:     0 d,  0 h,  0 min,  1.027 sec
 *  cpu-time:     0 d,  0 h,  0 min,  3.632 sec
 * ratio c/w:     3.535 speedup

