      -----------------------------------------------------------      
     |                   =====================                   |     
     |                           x T B                           |     
     |                   =====================                   |     
     |                         S. Grimme                         |     
     |          Mulliken Center for Theoretical Chemistry        |     
     |                    University of Bonn                     |     
      -----------------------------------------------------------      

   * xtb version 6.6.1 (8d0f1dd) compiled by 'runner@Mac-1690902418499.local' on 2023-08-01

   xtb is free software: you can redistribute it and/or modify it under
   the terms of the GNU Lesser General Public License as published by
   the Free Software Foundation, either version 3 of the License, or
   (at your option) any later version.
   
   xtb is distributed in the hope that it will be useful,
   but WITHOUT ANY WARRANTY; without even the implied warranty of
   MERCHANTABILITY or FITNESS FOR A PARTICULAR PURPOSE.  See the
   GNU Lesser General Public License for more details.
   
   Cite this work as:
   * C. Bannwarth, E. Caldeweyher, S. Ehlert, A. Hansen, P. Pracht,
     J. Seibert, S. Spicher, S. Grimme, WIREs Comput. Mol. Sci., 2020, 11,
     e01493. DOI: 10.1002/wcms.1493
   
   for GFN2-xTB:
   * C. Bannwarth, S. Ehlert and S. Grimme., J. Chem. Theory Comput., 2019,
     15, 1652-1671. DOI: 10.1021/acs.jctc.8b01176
   for GFN1-xTB:
   * S. Grimme, C. Bannwarth, P. Shushkov, J. Chem. Theory Comput., 2017,
     13, 1989-2009. DOI: 10.1021/acs.jctc.7b00118
   for GFN0-xTB:
   * P. Pracht, E. Caldeweyher, S. Ehlert, S. Grimme, ChemRxiv, 2019, preprint.
     DOI: 10.26434/chemrxiv.8326202.v1
   for GFN-FF:
   * S. Spicher and S. Grimme, Angew. Chem. Int. Ed., 2020, 59, 15665-15673.
     DOI: 10.1002/anie.202004239
   
   for ALPB and GBSA implicit solvation:
   * S. Ehlert, M. Stahn, S. Spicher, S. Grimme, J. Chem. Theory Comput.,
     2021, 17, 4250-4261. DOI: 10.1021/acs.jctc.1c00471
   
   for DFT-D4:
   * E. Caldeweyher, C. Bannwarth and S. Grimme, J. Chem. Phys., 2017,
     147, 034112. DOI: 10.1063/1.4993215
   * E. Caldeweyher, S. Ehlert, A. Hansen, H. Neugebauer, S. Spicher,
     C. Bannwarth and S. Grimme, J. Chem. Phys., 2019, 150, 154122.
     DOI: 10.1063/1.5090222
   * E. Caldeweyher, J.-M. Mewes, S. Ehlert and S. Grimme, Phys. Chem. Chem. Phys.
     2020, 22, 8499-8512. DOI: 10.1039/D0CP00502A
   
   for sTDA-xTB:
   * S. Grimme and C. Bannwarth, J. Chem. Phys., 2016, 145, 054103.
     DOI: 10.1063/1.4959605
   
   in the mass-spec context:
   * V. Asgeirsson, C. Bauer and S. Grimme, Chem. Sci., 2017, 8, 4879.
     DOI: 10.1039/c7sc00601b
   * J. Koopman and S. Grimme, ACS Omega 2019, 4, 12, 15120-15133.
     DOI: 10.1021/acsomega.9b02011
   
   for metadynamics refer to:
   * S. Grimme, J. Chem. Theory Comput., 2019, 155, 2847-2862
     DOI: 10.1021/acs.jctc.9b00143
   
   for SPH calculations refer to:
   * S. Spicher and S. Grimme, J. Chem. Theory Comput., 2021, 17, 1701-1714
     DOI: 10.1021/acs.jctc.0c01306
   
   with help from (in alphabetical order)
   P. Atkinson, C. Bannwarth, F. Bohle, G. Brandenburg, E. Caldeweyher
   M. Checinski, S. Dohm, S. Ehlert, S. Ehrlich, I. Gerasimov, C. Hölzer
   A. Katbashev, J. Koopman, C. Lavigne, S. Lehtola, F. März, M. Müller,
   F. Musil, H. Neugebauer, J. Pisarek, C. Plett, P. Pracht, F. Pultar,
   J. Seibert, P. Shushkov, S. Spicher, M. Stahn, M. Steiner, T. Strunk,
   J. Stückrath, T. Rose, and J. Unsleber
   
 * started run on 2024/11/07 at 12:02:37.631     

           -------------------------------------------------
          |                Calculation Setup                |
           -------------------------------------------------

          program call               : xtb opt_cation_Base1CO2Me.mol --gfn2 --sp --chrg 1 --uhf 0
          coordinate file            : opt_cation_Base1CO2Me.mol
          omp threads                :                     8

   ID    Z sym.   atoms
    1    6 C      1-9, 11, 12, 14-21, 24-35, 37, 38, 40-47, 50-52, 56, 58,
                  62, 65, 68, 71
    2    7 N      10, 13, 36, 39
    3    8 O      22, 23, 48, 49, 54, 55, 57, 59-61, 63, 64, 66, 67, 69, 70
    4    5 B      53
    5    1 H      72-101
########################################################################
[WARNING] Please study the warnings concerning your input carefully
-1- prog_main: Charge in sdf/mol input was overwritten
########################################################################

           -------------------------------------------------
          |                 G F N 2 - x T B                 |
           -------------------------------------------------

        Reference                      10.1021/acs.jctc.8b01176
      * Hamiltonian:
        H0-scaling (s, p, d)           1.850000    2.230000    2.230000
        zeta-weighting                 0.500000
      * Dispersion:
        s8                             2.700000
        a1                             0.520000
        a2                             5.000000
        s9                             5.000000
      * Repulsion:
        kExp                           1.500000    1.000000
        rExp                           1.000000
      * Coulomb:
        alpha                          2.000000
        third order                    shell-resolved
        anisotropic                    true
        a3                             3.000000
        a5                             4.000000
        cn-shift                       1.200000
        cn-exp                         4.000000
        max-rad                        5.000000

q/qsh data taken from xtbrestart
CAMM data taken from xtbrestart

          ...................................................
          :                      SETUP                      :
          :.................................................:
          :  # basis functions                 314          :
          :  # atomic orbitals                 314          :
          :  # shells                          172          :
          :  # electrons                       348          :
          :  max. iterations                   250          :
          :  Hamiltonian                  GFN2-xTB          :
          :  restarted?                       true          :
          :  GBSA solvation                  false          :
          :  PC potential                    false          :
          :  electronic temp.          300.0000000     K    :
          :  accuracy                    1.0000000          :
          :  -> integral cutoff          0.2500000E+02      :
          :  -> integral neglect         0.1000000E-07      :
          :  -> SCF convergence          0.1000000E-05 Eh   :
          :  -> wf. convergence          0.1000000E-03 e    :
          :  Broyden damping             0.4000000          :
          ...................................................

 iter      E             dE          RMSdq      gap      omega  full diag
   1   -202.6247643 -0.202625E+03  0.708E-01    0.32       0.0  T
   2   -202.5966641  0.281002E-01  0.633E-01    0.09       1.0  T
   3   -202.4073004  0.189364E+00  0.951E-01    0.01       1.0  T
   4   -202.6280912 -0.220791E+00  0.489E-01    0.09       1.0  T
   5   -202.6617609 -0.336698E-01  0.317E-01    0.28       1.0  T
   6   -202.6626890 -0.928021E-03  0.239E-01    0.24       1.0  T
   7   -202.6452194  0.174696E-01  0.310E-01    0.16       1.0  T
   8   -202.6626529 -0.174335E-01  0.150E-01    0.18       1.0  T
   9   -202.6664091 -0.375619E-02  0.600E-02    0.23       1.0  T
  10   -202.6667096 -0.300482E-03  0.393E-02    0.23       1.0  T
  11   -202.6667701 -0.605288E-04  0.316E-02    0.24       1.0  T
  12   -202.6668384 -0.683620E-04  0.259E-02    0.24       1.0  T
  13   -202.6668736 -0.351128E-04  0.185E-02    0.24       1.0  T
  14   -202.6668981 -0.245009E-04  0.118E-02    0.24       1.0  T
  15   -202.6669085 -0.104599E-04  0.499E-03    0.24       2.0  T
  16   -202.6669107 -0.218381E-05  0.188E-03    0.24       5.3  T
  17   -202.6669111 -0.360796E-06  0.562E-04    0.24      17.7  T
  18   -202.6669111 -0.281684E-07  0.296E-04    0.24      33.6  T

   *** convergence criteria satisfied after 18 iterations ***

         #    Occupation            Energy/Eh            Energy/eV
      -------------------------------------------------------------
         1        2.0000           -0.8402273             -22.8637
       ...           ...                  ...                  ...
       168        2.0000           -0.5023029             -13.6684
       169        2.0000           -0.5012427             -13.6395
       170        2.0000           -0.4985952             -13.5675
       171        2.0000           -0.4935947             -13.4314
       172        1.9997           -0.4877009             -13.2710
       173        1.9932           -0.4847087             -13.1896
       174        1.9849           -0.4839410             -13.1687 (HOMO)
       175        0.0218           -0.4750240             -12.9261 (LUMO)
       176        0.0003           -0.4709777             -12.8160
       177                         -0.4129152             -11.2360
       178                         -0.4087584             -11.1229
       179                         -0.3869969             -10.5307
       ...                                ...                  ...
       314                          0.6206813              16.8896
      -------------------------------------------------------------
                  HL-Gap            0.0089170 Eh            0.2426 eV
             Fermi-level           -0.4793057 Eh          -13.0426 eV

 SCC (total)                   0 d,  0 h,  0 min,  1.077 sec
 SCC setup                      ...        0 min,  0.000 sec (  0.026%)
 Dispersion                     ...        0 min,  0.001 sec (  0.090%)
 classical contributions        ...        0 min,  0.000 sec (  0.018%)
 integral evaluation            ...        0 min,  0.005 sec (  0.490%)
 iterations                     ...        0 min,  1.034 sec ( 96.019%)
 molecular gradient             ...        0 min,  0.033 sec (  3.070%)
 printout                       ...        0 min,  0.003 sec (  0.286%)

         :::::::::::::::::::::::::::::::::::::::::::::::::::::
         ::                     SUMMARY                     ::
         :::::::::::::::::::::::::::::::::::::::::::::::::::::
         :: total energy            -200.146070821731 Eh    ::
         :: gradient norm              0.000599390037 Eh/a0 ::
         :: HOMO-LUMO gap              0.242644179609 eV    ::
         ::.................................................::
         :: SCC energy              -202.666911089967 Eh    ::
         :: -> isotropic ES            0.446352970549 Eh    ::
         :: -> anisotropic ES         -0.027066233138 Eh    ::
         :: -> anisotropic XC          0.059100505182 Eh    ::
         :: -> dispersion             -0.155498175533 Eh    ::
         :: repulsion energy           2.520849927156 Eh    ::
         :: add. restraining           0.000000000000 Eh    ::
         :: total charge               0.999935633776 e     ::
         :::::::::::::::::::::::::::::::::::::::::::::::::::::

           -------------------------------------------------
          |                Property Printout                |
           -------------------------------------------------

    * Orbital Energies and Occupations

         #    Occupation            Energy/Eh            Energy/eV
      -------------------------------------------------------------
         1        2.0000           -0.8402273             -22.8637
       ...           ...                  ...                  ...
       162        2.0000           -0.5149796             -14.0133
       163        2.0000           -0.5120576             -13.9338
       164        2.0000           -0.5098595             -13.8740
       165        2.0000           -0.5083437             -13.8327
       166        2.0000           -0.5053388             -13.7510
       167        2.0000           -0.5038715             -13.7110
       168        2.0000           -0.5023029             -13.6684
       169        2.0000           -0.5012427             -13.6395
       170        2.0000           -0.4985952             -13.5675
       171        2.0000           -0.4935947             -13.4314
       172        1.9997           -0.4877009             -13.2710
       173        1.9932           -0.4847087             -13.1896
       174        1.9849           -0.4839410             -13.1687 (HOMO)
       175        0.0218           -0.4750240             -12.9261 (LUMO)
       176        0.0003           -0.4709777             -12.8160
       177                         -0.4129152             -11.2360
       178                         -0.4087584             -11.1229
       179                         -0.3869969             -10.5307
       180                         -0.3835454             -10.4368
       181                         -0.3807625             -10.3611
       182                         -0.3772268             -10.2649
       183                         -0.3584530              -9.7540
       184                         -0.3532789              -9.6132
       185                         -0.3497951              -9.5184
       ...                                ...                  ...
       314                          0.6206813              16.8896
      -------------------------------------------------------------
                  HL-Gap            0.0089170 Eh            0.2426 eV
             Fermi-level           -0.4793057 Eh          -13.0426 eV

     #   Z          covCN         q      C6AA      α(0)
     1   6 C        2.921    -0.030    28.740     8.791
     2   6 C        2.862     0.183    24.082     8.044
     3   6 C        2.975    -0.006    28.172     8.706
     4   6 C        2.965     0.106    25.657     8.308
     5   6 C        2.934    -0.019    28.486     8.753
     6   6 C        2.962    -0.001    28.061     8.689
     7   6 C        2.968     0.054    26.796     8.491
     8   6 C        2.995    -0.015    28.372     8.738
     9   6 C        2.961     0.102    25.745     8.322
    10   7 N        1.861    -0.172    25.520     7.488
    11   6 C        2.967    -0.012    28.301     8.726
    12   6 C        2.964     0.106    25.654     8.308
    13   7 N        1.869    -0.174    25.580     7.497
    14   6 C        2.960     0.103    25.718     8.318
    15   6 C        2.924     0.003    27.950     8.670
    16   6 C        2.961     0.001    28.006     8.680
    17   6 C        2.927     0.007    27.854     8.655
    18   6 C        2.843     0.181    24.120     8.049
    19   6 C        2.922    -0.034    28.846     8.808
    20   6 C        2.961    -0.007    28.199     8.710
    21   6 C        2.943    -0.012    28.311     8.727
    22   8 O        1.638    -0.378    20.437     6.102
    23   8 O        1.636    -0.393    20.716     6.144
    24   6 C        2.730     0.355    20.967     7.497
    25   6 C        2.731     0.354    20.991     7.501
    26   6 C        2.731     0.355    20.977     7.498
    27   6 C        2.925    -0.032    28.801     8.801
    28   6 C        2.852     0.180    24.138     8.052
    29   6 C        2.969    -0.015    28.384     8.739
    30   6 C        2.964     0.102    25.730     8.320
    31   6 C        2.937    -0.024    28.611     8.772
    32   6 C        2.961    -0.008    28.227     8.714
    33   6 C        2.967     0.051    26.848     8.499
    34   6 C        2.995    -0.016    28.397     8.741
    35   6 C        2.961     0.103    25.718     8.318
    36   7 N        1.866    -0.188    25.885     7.541
    37   6 C        2.971    -0.008    28.212     8.713
    38   6 C        2.967     0.106    25.648     8.307
    39   7 N        1.865    -0.171    25.507     7.486
    40   6 C        2.960     0.101    25.754     8.324
    41   6 C        2.927     0.006    27.878     8.659
    42   6 C        2.961     0.000    28.016     8.682
    43   6 C        2.924     0.001    28.010     8.679
    44   6 C        2.848     0.187    24.008     8.030
    45   6 C        2.923    -0.029    28.713     8.787
    46   6 C        2.961    -0.001    28.053     8.688
    47   6 C        2.939    -0.018    28.461     8.750
    48   8 O        1.638    -0.384    20.554     6.120
    49   8 O        1.638    -0.376    20.397     6.096
    50   6 C        2.732     0.354    20.997     7.502
    51   6 C        2.731     0.355    20.969     7.497
    52   6 C        2.731     0.355    20.979     7.499
    53   5 B        3.191     0.620    13.307     6.084
    54   8 O        0.857    -0.377    21.237     6.178
    55   8 O        1.704    -0.241    18.000     5.728
    56   6 C        3.659     0.023    20.475     6.494
    57   8 O        1.704    -0.259    18.284     5.773
    58   6 C        3.657     0.024    20.459     6.492
    59   8 O        0.856    -0.388    21.451     6.210
    60   8 O        0.857    -0.398    21.648     6.238
    61   8 O        1.704    -0.246    18.081     5.741
    62   6 C        3.658     0.020    20.525     6.502
    63   8 O        0.857    -0.377    21.224     6.177
    64   8 O        1.704    -0.243    18.030     5.733
    65   6 C        3.659     0.023    20.471     6.493
    66   8 O        0.857    -0.378    21.255     6.181
    67   8 O        1.704    -0.249    18.121     5.747
    68   6 C        3.658     0.024    20.447     6.490
    69   8 O        0.856    -0.379    21.261     6.182
    70   8 O        1.704    -0.250    18.145     5.751
    71   6 C        3.658     0.025    20.437     6.488
    72   1 H        0.924     0.077     2.008     2.216
    73   1 H        0.924     0.078     1.999     2.211
    74   1 H        0.925     0.084     1.939     2.178
    75   1 H        0.925     0.079     1.989     2.205
    76   1 H        0.924     0.077     2.012     2.218
    77   1 H        0.924     0.073     2.051     2.240
    78   1 H        0.925     0.077     2.006     2.215
    79   1 H        0.924     0.076     2.021     2.223
    80   1 H        0.924     0.073     2.054     2.241
    81   1 H        0.925     0.081     1.973     2.197
    82   1 H        0.924     0.078     1.995     2.209
    83   1 H        0.924     0.092     1.857     2.131
    84   1 H        0.924     0.076     2.021     2.223
    85   1 H        0.924     0.079     1.993     2.208
    86   1 H        0.925     0.080     1.984     2.202
    87   1 H        0.925     0.085     1.929     2.172
    88   1 H        0.924     0.078     2.001     2.212
    89   1 H        0.924     0.077     2.005     2.215
    90   1 H        0.926     0.125     1.571     1.960
    91   1 H        0.926     0.114     1.665     2.018
    92   1 H        0.926     0.119     1.621     1.991
    93   1 H        0.926     0.104     1.749     2.068
    94   1 H        0.926     0.098     1.805     2.101
    95   1 H        0.926     0.096     1.817     2.108
    96   1 H        0.926     0.096     1.823     2.111
    97   1 H        0.926     0.082     1.958     2.188
    98   1 H        0.926     0.121     1.605     1.981
    99   1 H        0.926     0.118     1.631     1.997
   100   1 H        0.926     0.126     1.562     1.955
   101   1 H        0.926     0.118     1.630     1.997

 Mol. C6AA /au·bohr⁶  :     150672.344645
 Mol. C8AA /au·bohr⁸  :    3750483.177092
 Mol. α(0) /au        :        605.410357


Wiberg/Mayer (AO) data.
largest (>0.10) Wiberg bond orders for each atom

 ---------------------------------------------------------------------------
     #   Z sym  total        # sym  WBO       # sym  WBO       # sym  WBO
 ---------------------------------------------------------------------------
     1   6 C    3.874 --     2 C    1.358     6 C    1.323    96 H    0.947
     2   6 C    3.938 --     1 C    1.358     3 C    1.280    22 O    1.116
     3   6 C    3.975 --     2 C    1.280     7 C    1.206     4 C    1.151
     4   6 C    3.973 --    10 N    1.417     5 C    1.214     3 C    1.151
     5   6 C    3.900 --     6 C    1.488     4 C    1.214    99 H    0.953
     6   6 C    3.977 --     5 C    1.488     1 C    1.323    24 C    0.974
     7   6 C    3.982 --     8 C    1.307    11 C    1.226     3 C    1.206
     8   6 C    3.980 --     7 C    1.307    14 C    1.197     9 C    1.193
     9   6 C    3.979 --    10 N    1.332    17 C    1.276     8 C    1.193
    10   7 N    3.029 --     4 C    1.417     9 C    1.332
    11   6 C    3.973 --    18 C    1.257     7 C    1.226    12 C    1.170
    12   6 C    3.974 --    13 N    1.402    21 C    1.216    11 C    1.170
    13   7 N    3.036 --    12 C    1.402    14 C    1.349
    14   6 C    3.978 --    13 N    1.349    15 C    1.254     8 C    1.197
    15   6 C    3.879 --    16 C    1.424    14 C    1.254   101 H    0.954
    16   6 C    3.976 --    15 C    1.424    17 C    1.396    26 C    0.965
    17   6 C    3.871 --    16 C    1.396     9 C    1.276   100 H    0.951
    18   6 C    3.932 --    19 C    1.342    11 C    1.257    23 O    1.143
    19   6 C    3.876 --    18 C    1.342    20 C    1.320    97 H    0.960
    20   6 C    3.977 --    21 C    1.486    19 C    1.320    25 C    0.979
    21   6 C    3.896 --    20 C    1.486    12 C    1.216    98 H    0.953
    22   8 O    2.171 --     2 C    1.116    53 B    0.806
    23   8 O    2.150 --    18 C    1.143    53 B    0.762
    24   6 C    3.930 --    69 O    1.751    70 O    1.140     6 C    0.974
    25   6 C    3.928 --    59 O    1.735    57 O    1.140    20 C    0.979
    26   6 C    3.933 --    54 O    1.747    55 O    1.157    16 C    0.965
    27   6 C    3.875 --    28 C    1.356    32 C    1.311    95 H    0.958
    28   6 C    3.932 --    27 C    1.356    29 C    1.257    48 O    1.130
    29   6 C    3.974 --    28 C    1.257    33 C    1.231    30 C    1.171
    30   6 C    3.975 --    36 N    1.396    31 C    1.221    29 C    1.171
    31   6 C    3.910 --    32 C    1.496    30 C    1.221    93 H    0.956
    32   6 C    3.975 --    31 C    1.496    27 C    1.311    50 C    0.973
    33   6 C    3.982 --    34 C    1.309    29 C    1.231    37 C    1.201
    34   6 C    3.981 --    33 C    1.309    35 C    1.195    40 C    1.191
    35   6 C    3.978 --    36 N    1.353    43 C    1.252    34 C    1.195
    36   7 N    3.011 --    30 C    1.396    35 C    1.353
    37   6 C    3.974 --    44 C    1.275    33 C    1.201    38 C    1.146
    38   6 C    3.972 --    39 N    1.424    47 C    1.210    37 C    1.146
    39   7 N    3.039 --    38 C    1.424    40 C    1.329
    40   6 C    3.979 --    39 N    1.329    41 C    1.280    34 C    1.191
    41   6 C    3.868 --    42 C    1.391    40 C    1.280    90 H    0.952
    42   6 C    3.976 --    43 C    1.427    41 C    1.391    52 C    0.965
    43   6 C    3.875 --    42 C    1.427    35 C    1.252    91 H    0.955
    44   6 C    3.922 --    45 C    1.347    37 C    1.275    49 O    1.133
    45   6 C    3.867 --    44 C    1.347    46 C    1.326    94 H    0.947
    46   6 C    3.977 --    47 C    1.485    45 C    1.326    51 C    0.973
    47   6 C    3.893 --    46 C    1.485    38 C    1.210    92 H    0.952
    48   8 O    2.156 --    28 C    1.130    53 B    0.786
    49   8 O    2.183 --    44 C    1.133    53 B    0.799
    50   6 C    3.930 --    60 O    1.727    61 O    1.159    32 C    0.973
    51   6 C    3.930 --    66 O    1.750    67 O    1.142    46 C    0.973
    52   6 C    3.932 --    63 O    1.749    64 O    1.155    42 C    0.965
    53   5 B    3.308 --    22 O    0.806    49 O    0.799    48 O    0.786
                            23 O    0.762
    54   8 O    2.059 --    26 C    1.747    55 O    0.188
    55   8 O    2.335 --    26 C    1.157    56 C    0.944    54 O    0.188
    56   6 C    3.906 --    87 H    0.980    89 H    0.974    88 H    0.974
                            55 O    0.944
    57   8 O    2.315 --    25 C    1.140    58 C    0.945    59 O    0.180
    58   6 C    3.908 --    86 H    0.980    85 H    0.974    84 H    0.972
                            57 O    0.945
    59   8 O    2.048 --    25 C    1.735    57 O    0.180
    60   8 O    2.039 --    50 C    1.727    61 O    0.185
    61   8 O    2.334 --    50 C    1.159    62 C    0.940    60 O    0.185
    62   6 C    3.901 --    81 H    0.980    82 H    0.975    83 H    0.965
Note: The following floating-point exceptions are signalling: IEEE_UNDERFLOW_FLAG
normal termination of xtb
                            61 O    0.940
    63   8 O    2.060 --    52 C    1.749    64 O    0.188
    64   8 O    2.332 --    52 C    1.155    65 C    0.944    63 O    0.188
    65   6 C    3.907 --    74 H    0.980    73 H    0.974    72 H    0.974
                            64 O    0.944
    66   8 O    2.060 --    51 C    1.750    67 O    0.184
    67   8 O    2.322 --    51 C    1.142    68 C    0.948    66 O    0.184
    68   6 C    3.912 --    75 H    0.980    77 H    0.975    76 H    0.974
                            67 O    0.948
    69   8 O    2.060 --    24 C    1.751    70 O    0.183
    70   8 O    2.320 --    24 C    1.140    71 C    0.949    69 O    0.183
    71   6 C    3.913 --    78 H    0.980    79 H    0.975    80 H    0.975
                            70 O    0.949
    72   1 H    0.994 --    65 C    0.974
    73   1 H    0.994 --    65 C    0.974
    74   1 H    0.993 --    65 C    0.980
    75   1 H    0.993 --    68 C    0.980
    76   1 H    0.994 --    68 C    0.974
    77   1 H    0.994 --    68 C    0.975
    78   1 H    0.994 --    71 C    0.980
    79   1 H    0.994 --    71 C    0.975
    80   1 H    0.994 --    71 C    0.975
    81   1 H    0.993 --    62 C    0.980
    82   1 H    0.994 --    62 C    0.975
    83   1 H    0.991 --    62 C    0.965
    84   1 H    0.994 --    58 C    0.972
    85   1 H    0.993 --    58 C    0.974
    86   1 H    0.993 --    58 C    0.980
    87   1 H    0.992 --    56 C    0.980
    88   1 H    0.994 --    56 C    0.974
    89   1 H    0.994 --    56 C    0.974
    90   1 H    0.984 --    41 C    0.952
    91   1 H    0.986 --    43 C    0.955
    92   1 H    0.985 --    47 C    0.952
    93   1 H    0.989 --    31 C    0.956
    94   1 H    0.989 --    45 C    0.947
    95   1 H    0.990 --    27 C    0.958
    96   1 H    0.990 --     1 C    0.947
    97   1 H    0.993 --    19 C    0.960
    98   1 H    0.985 --    21 C    0.953
    99   1 H    0.985 --     5 C    0.953
   100   1 H    0.983 --    17 C    0.951
   101   1 H    0.985 --    15 C    0.954
 ---------------------------------------------------------------------------

Topologies differ in bond orders
Writing corrected topology to xtbtopo.mol

molecular dipole:
                 x           y           z       tot (Debye)
 q only:       -1.919      -0.962      -0.000
   full:       -2.076      -0.947       0.058       5.803
molecular quadrupole (traceless):
                xx          xy          yy          xz          yz          zz
 q only:       67.646      28.741      18.780      58.134      20.518     -86.425
  q+dip:       55.975      27.448      16.957      54.763      23.445     -72.932
   full:       50.329      27.820       9.545      47.780      24.656     -59.874


           -------------------------------------------------
          | TOTAL ENERGY             -200.146070821731 Eh   |
          | GRADIENT NORM               0.000599390037 Eh/α |
          | HOMO-LUMO GAP               0.242644179609 eV   |
           -------------------------------------------------
########################################################################
[WARNING] Runtime exception occurred
-1- restart_readRestart: Number of electron missmatch in restart file.
########################################################################

------------------------------------------------------------------------
 * finished run on 2024/11/07 at 12:02:38.726     
------------------------------------------------------------------------
 total:
 * wall-time:     0 d,  0 h,  0 min,  1.094 sec
 *  cpu-time:     0 d,  0 h,  0 min,  3.751 sec
 * ratio c/w:     3.428 speedup
 SCF:
 * wall-time:     0 d,  0 h,  0 min,  1.077 sec
 *  cpu-time:     0 d,  0 h,  0 min,  3.716 sec
 * ratio c/w:     3.450 speedup

