      -----------------------------------------------------------      
     |                   =====================                   |     
     |                           x T B                           |     
     |                   =====================                   |     
     |                         S. Grimme                         |     
     |          Mulliken Center for Theoretical Chemistry        |     
     |                    University of Bonn                     |     
      -----------------------------------------------------------      

   * xtb version 6.6.1 (8d0f1dd) compiled by 'runner@Mac-1690902418499.local' on 2023-08-01

   xtb is free software: you can redistribute it and/or modify it under
   the terms of the GNU Lesser General Public License as published by
   the Free Software Foundation, either version 3 of the License, or
   (at your option) any later version.
   
   xtb is distributed in the hope that it will be useful,
   but WITHOUT ANY WARRANTY; without even the implied warranty of
   MERCHANTABILITY or FITNESS FOR A PARTICULAR PURPOSE.  See the
   GNU Lesser General Public License for more details.
   
   Cite this work as:
   * C. Bannwarth, E. Caldeweyher, S. Ehlert, A. Hansen, P. Pracht,
     J. Seibert, S. Spicher, S. Grimme, WIREs Comput. Mol. Sci., 2020, 11,
     e01493. DOI: 10.1002/wcms.1493
   
   for GFN2-xTB:
   * C. Bannwarth, S. Ehlert and S. Grimme., J. Chem. Theory Comput., 2019,
     15, 1652-1671. DOI: 10.1021/acs.jctc.8b01176
   for GFN1-xTB:
   * S. Grimme, C. Bannwarth, P. Shushkov, J. Chem. Theory Comput., 2017,
     13, 1989-2009. DOI: 10.1021/acs.jctc.7b00118
   for GFN0-xTB:
   * P. Pracht, E. Caldeweyher, S. Ehlert, S. Grimme, ChemRxiv, 2019, preprint.
     DOI: 10.26434/chemrxiv.8326202.v1
   for GFN-FF:
   * S. Spicher and S. Grimme, Angew. Chem. Int. Ed., 2020, 59, 15665-15673.
     DOI: 10.1002/anie.202004239
   
   for ALPB and GBSA implicit solvation:
   * S. Ehlert, M. Stahn, S. Spicher, S. Grimme, J. Chem. Theory Comput.,
     2021, 17, 4250-4261. DOI: 10.1021/acs.jctc.1c00471
   
   for DFT-D4:
   * E. Caldeweyher, C. Bannwarth and S. Grimme, J. Chem. Phys., 2017,
     147, 034112. DOI: 10.1063/1.4993215
   * E. Caldeweyher, S. Ehlert, A. Hansen, H. Neugebauer, S. Spicher,
     C. Bannwarth and S. Grimme, J. Chem. Phys., 2019, 150, 154122.
     DOI: 10.1063/1.5090222
   * E. Caldeweyher, J.-M. Mewes, S. Ehlert and S. Grimme, Phys. Chem. Chem. Phys.
     2020, 22, 8499-8512. DOI: 10.1039/D0CP00502A
   
   for sTDA-xTB:
   * S. Grimme and C. Bannwarth, J. Chem. Phys., 2016, 145, 054103.
     DOI: 10.1063/1.4959605
   
   in the mass-spec context:
   * V. Asgeirsson, C. Bauer and S. Grimme, Chem. Sci., 2017, 8, 4879.
     DOI: 10.1039/c7sc00601b
   * J. Koopman and S. Grimme, ACS Omega 2019, 4, 12, 15120-15133.
     DOI: 10.1021/acsomega.9b02011
   
   for metadynamics refer to:
   * S. Grimme, J. Chem. Theory Comput., 2019, 155, 2847-2862
     DOI: 10.1021/acs.jctc.9b00143
   
   for SPH calculations refer to:
   * S. Spicher and S. Grimme, J. Chem. Theory Comput., 2021, 17, 1701-1714
     DOI: 10.1021/acs.jctc.0c01306
   
   with help from (in alphabetical order)
   P. Atkinson, C. Bannwarth, F. Bohle, G. Brandenburg, E. Caldeweyher
   M. Checinski, S. Dohm, S. Ehlert, S. Ehrlich, I. Gerasimov, C. Hölzer
   A. Katbashev, J. Koopman, C. Lavigne, S. Lehtola, F. März, M. Müller,
   F. Musil, H. Neugebauer, J. Pisarek, C. Plett, P. Pracht, F. Pultar,
   J. Seibert, P. Shushkov, S. Spicher, M. Stahn, M. Steiner, T. Strunk,
   J. Stückrath, T. Rose, and J. Unsleber
   
 * started run on 2024/11/07 at 12:02:38.749     

           -------------------------------------------------
          |                Calculation Setup                |
           -------------------------------------------------

          program call               : xtb opt_cation_Base1CO2Me.mol --gfn2 --sp --chrg 0 --uhf 1
          coordinate file            : opt_cation_Base1CO2Me.mol
          omp threads                :                     8

   ID    Z sym.   atoms
    1    6 C      1-9, 11, 12, 14-21, 24-35, 37, 38, 40-47, 50-52, 56, 58,
                  62, 65, 68, 71
    2    7 N      10, 13, 36, 39
    3    8 O      22, 23, 48, 49, 54, 55, 57, 59-61, 63, 64, 66, 67, 69, 70
    4    5 B      53
    5    1 H      72-101
########################################################################
[WARNING] Please study the warnings concerning your input carefully
-1- prog_main: Charge in sdf/mol input was overwritten
########################################################################

           -------------------------------------------------
          |                 G F N 2 - x T B                 |
           -------------------------------------------------

        Reference                      10.1021/acs.jctc.8b01176
      * Hamiltonian:
        H0-scaling (s, p, d)           1.850000    2.230000    2.230000
        zeta-weighting                 0.500000
      * Dispersion:
        s8                             2.700000
        a1                             0.520000
        a2                             5.000000
        s9                             5.000000
      * Repulsion:
        kExp                           1.500000    1.000000
        rExp                           1.000000
      * Coulomb:
        alpha                          2.000000
        third order                    shell-resolved
        anisotropic                    true
        a3                             3.000000
        a5                             4.000000
        cn-shift                       1.200000
        cn-exp                         4.000000
        max-rad                        5.000000

q/qsh data taken from xtbrestart
CAMM data taken from xtbrestart

          ...................................................
          :                      SETUP                      :
          :.................................................:
          :  # basis functions                 314          :
          :  # atomic orbitals                 314          :
          :  # shells                          172          :
          :  # electrons                       349          :
          :  max. iterations                   250          :
          :  Hamiltonian                  GFN2-xTB          :
          :  restarted?                       true          :
          :  GBSA solvation                  false          :
          :  PC potential                    false          :
          :  electronic temp.          300.0000000     K    :
          :  accuracy                    1.0000000          :
          :  -> integral cutoff          0.2500000E+02      :
          :  -> integral neglect         0.1000000E-07      :
          :  -> SCF convergence          0.1000000E-05 Eh   :
          :  -> wf. convergence          0.1000000E-03 e    :
          :  Broyden damping             0.4000000          :
          ...................................................

 iter      E             dE          RMSdq      gap      omega  full diag
   1   -203.0770353 -0.203077E+03  0.355E-01    0.11       0.0  T
   2   -202.8351268  0.241909E+00  0.932E-01    0.42       1.0  T
   3   -203.0679723 -0.232846E+00  0.334E-01    0.15       1.0  T
   4   -203.0748595 -0.688716E-02  0.307E-01    0.12       1.0  T
   5   -203.0876250 -0.127655E-01  0.164E-01    0.08       1.0  T
   6   -203.0871154  0.509630E-03  0.171E-01    0.10       1.0  T
   7   -203.0912217 -0.410637E-02  0.720E-02    0.09       1.0  T
   8   -203.0910701  0.151602E-03  0.543E-02    0.08       1.0  T
   9   -203.0917131 -0.642943E-03  0.298E-02    0.09       1.0  T
  10   -203.0916834  0.296875E-04  0.298E-02    0.09       1.0  T
  11   -203.0916963 -0.128736E-04  0.226E-02    0.09       1.0  T
  12   -203.0917836 -0.873502E-04  0.484E-03    0.09       2.1  T
  13   -203.0917873 -0.369027E-05  0.159E-03    0.09       6.3  T
  14   -203.0917874 -0.116523E-06  0.117E-03    0.09       8.5  T
  15   -203.0917877 -0.261519E-06  0.444E-04    0.09      22.4  T
  16   -203.0917877 -0.906223E-08  0.414E-04    0.09      24.0  T

   *** convergence criteria satisfied after 16 iterations ***

         #    Occupation            Energy/Eh            Energy/eV
      -------------------------------------------------------------
         1        2.0000           -0.7626822             -20.7536
       ...           ...                  ...                  ...
       169        2.0000           -0.4030597             -10.9678
       170        2.0000           -0.4003796             -10.8949
       171        2.0000           -0.3958775             -10.7724
       172        1.9996           -0.3871544             -10.5350
       173        1.9986           -0.3858691             -10.5000
       174        1.9979           -0.3854893             -10.4897
       175        0.8460           -0.3743102             -10.1855 (HOMO)
       176        0.1578           -0.3711267             -10.0989 (LUMO)
       177                         -0.3158727              -8.5953
       178                         -0.3123294              -8.4989
       179                         -0.2946668              -8.0183
       180                         -0.2911812              -7.9234
       ...                                ...                  ...
       314                          0.7057956              19.2057
      -------------------------------------------------------------
                  HL-Gap            0.0031835 Eh            0.0866 eV
             Fermi-level           -0.3761715 Eh          -10.2361 eV

 SCC (total)                   0 d,  0 h,  0 min,  0.930 sec
 SCC setup                      ...        0 min,  0.001 sec (  0.081%)
 Dispersion                     ...        0 min,  0.003 sec (  0.294%)
 classical contributions        ...        0 min,  0.000 sec (  0.041%)
 integral evaluation            ...        0 min,  0.006 sec (  0.688%)
 iterations                     ...        0 min,  0.884 sec ( 95.073%)
 molecular gradient             ...        0 min,  0.031 sec (  3.293%)
 printout                       ...        0 min,  0.005 sec (  0.529%)

         :::::::::::::::::::::::::::::::::::::::::::::::::::::
         ::                     SUMMARY                     ::
         :::::::::::::::::::::::::::::::::::::::::::::::::::::
         :: total energy            -200.570947433861 Eh    ::
         :: gradient norm              0.036252858300 Eh/a0 ::
         :: HOMO-LUMO gap              0.086626627703 eV    ::
         ::.................................................::
         :: SCC energy              -203.091787702097 Eh    ::
         :: -> isotropic ES            0.417516661444 Eh    ::
         :: -> anisotropic ES         -0.016703562081 Eh    ::
         :: -> anisotropic XC          0.053154633577 Eh    ::
         :: -> dispersion             -0.157538446105 Eh    ::
         :: repulsion energy           2.520849927156 Eh    ::
         :: add. restraining           0.000000000000 Eh    ::
         :: total charge              -0.000015088509 e     ::
         :::::::::::::::::::::::::::::::::::::::::::::::::::::

           -------------------------------------------------
          |                Property Printout                |
           -------------------------------------------------

    * Orbital Energies and Occupations

         #    Occupation            Energy/Eh            Energy/eV
      -------------------------------------------------------------
         1        2.0000           -0.7626822             -20.7536
       ...           ...                  ...                  ...
       163        2.0000           -0.4247927             -11.5592
       164        2.0000           -0.4219911             -11.4830
       165        2.0000           -0.4182211             -11.3804
       166        2.0000           -0.4154374             -11.3046
       167        2.0000           -0.4123108             -11.2195
       168        2.0000           -0.4061775             -11.0527
       169        2.0000           -0.4030597             -10.9678
       170        2.0000           -0.4003796             -10.8949
       171        2.0000           -0.3958775             -10.7724
       172        1.9996           -0.3871544             -10.5350
       173        1.9986           -0.3858691             -10.5000
       174        1.9979           -0.3854893             -10.4897
       175        0.8460           -0.3743102             -10.1855 (HOMO)
       176        0.1578           -0.3711267             -10.0989 (LUMO)
       177                         -0.3158727              -8.5953
       178                         -0.3123294              -8.4989
       179                         -0.2946668              -8.0183
       180                         -0.2911812              -7.9234
       181                         -0.2886773              -7.8553
       182                         -0.2838052              -7.7227
       183                         -0.2606071              -7.0915
       184                         -0.2594633              -7.0604
       185                         -0.2564206              -6.9776
       186                         -0.2545294              -6.9261
       ...                                ...                  ...
       314                          0.7057956              19.2057
      -------------------------------------------------------------
                  HL-Gap            0.0031835 Eh            0.0866 eV
             Fermi-level           -0.3761715 Eh          -10.2361 eV

     #   Z          covCN         q      C6AA      α(0)
     1   6 C        2.921    -0.043    29.067     8.841
     2   6 C        2.862     0.179    24.162     8.057
     3   6 C        2.975    -0.015    28.371     8.737
     4   6 C        2.965     0.100    25.783     8.329
     5   6 C        2.934    -0.031    28.780     8.798
     6   6 C        2.962    -0.012    28.306     8.727
     7   6 C        2.968     0.049    26.908     8.509
     8   6 C        2.995    -0.019    28.469     8.752
     9   6 C        2.961     0.097    25.850     8.339
    10   7 N        1.861    -0.207    26.343     7.608
    11   6 C        2.967    -0.019    28.486     8.755
    12   6 C        2.964     0.102    25.749     8.323
    13   7 N        1.869    -0.206    26.323     7.605
    14   6 C        2.960     0.098    25.829     8.336
    15   6 C        2.924    -0.017    28.437     8.745
    16   6 C        2.961    -0.012    28.317     8.728
    17   6 C        2.927    -0.013    28.342     8.731
    18   6 C        2.843     0.178    24.176     8.058
    19   6 C        2.922    -0.042    29.050     8.839
    20   6 C        2.961    -0.014    28.370     8.736
    21   6 C        2.943    -0.021    28.526     8.760
    22   8 O        1.638    -0.388    20.633     6.131
    23   8 O        1.636    -0.403    20.911     6.173
    24   6 C        2.730     0.355    20.966     7.496
    25   6 C        2.731     0.355    20.970     7.497
    26   6 C        2.731     0.355    20.978     7.499
    27   6 C        2.925    -0.042    29.040     8.837
    28   6 C        2.852     0.177    24.201     8.063
    29   6 C        2.969    -0.022    28.559     8.766
    30   6 C        2.964     0.098    25.825     8.336
    31   6 C        2.937    -0.034    28.839     8.807
    32   6 C        2.961    -0.017    28.422     8.744
    33   6 C        2.967     0.046    26.962     8.517
    34   6 C        2.995    -0.020    28.486     8.755
    35   6 C        2.961     0.098    25.826     8.336
    36   7 N        1.866    -0.220    26.642     7.651
    37   6 C        2.971    -0.017    28.422     8.745
    38   6 C        2.967     0.100    25.783     8.329
    39   7 N        1.865    -0.207    26.339     7.607
    40   6 C        2.960     0.096    25.861     8.341
    41   6 C        2.927    -0.015    28.392     8.738
    42   6 C        2.961    -0.013    28.332     8.731
    43   6 C        2.924    -0.020    28.518     8.758
    44   6 C        2.848     0.182    24.098     8.045
    45   6 C        2.923    -0.043    29.078     8.843
    46   6 C        2.961    -0.012    28.319     8.729
    47   6 C        2.939    -0.031    28.780     8.798
    48   8 O        1.638    -0.396    20.771     6.152
    49   8 O        1.638    -0.386    20.589     6.125
    50   6 C        2.732     0.354    20.986     7.500
    51   6 C        2.731     0.355    20.969     7.497
    52   6 C        2.731     0.355    20.980     7.499
    53   5 B        3.191     0.623    13.277     6.077
    54   8 O        0.857    -0.397    21.628     6.235
    55   8 O        1.704    -0.249    18.126     5.748
    56   6 C        3.659     0.028    20.380     6.479
    57   8 O        1.704    -0.259    18.292     5.775
    58   6 C        3.657     0.029    20.371     6.478
    59   8 O        0.856    -0.406    21.806     6.261
    60   8 O        0.857    -0.407    21.827     6.264
    61   8 O        1.704    -0.254    18.213     5.762
    62   6 C        3.658     0.025    20.436     6.488
    63   8 O        0.857    -0.397    21.627     6.235
    64   8 O        1.704    -0.251    18.157     5.753
    65   6 C        3.659     0.029    20.374     6.478
    66   8 O        0.857    -0.399    21.665     6.241
    67   8 O        1.704    -0.253    18.188     5.758
    68   6 C        3.658     0.030    20.358     6.475
    69   8 O        0.856    -0.399    21.661     6.240
    70   8 O        1.704    -0.253    18.188     5.758
    71   6 C        3.658     0.030    20.353     6.475
    72   1 H        0.924     0.069     2.102     2.267
    73   1 H        0.924     0.069     2.096     2.264
    74   1 H        0.925     0.074     2.040     2.234
    75   1 H        0.925     0.073     2.055     2.242
    76   1 H        0.924     0.068     2.105     2.269
    77   1 H        0.924     0.065     2.146     2.291
    78   1 H        0.925     0.073     2.054     2.241
    79   1 H        0.924     0.068     2.107     2.270
    80   1 H        0.924     0.064     2.153     2.295
    81   1 H        0.925     0.070     2.091     2.261
    82   1 H        0.924     0.070     2.083     2.257
    83   1 H        0.924     0.088     1.903     2.157
    84   1 H        0.924     0.071     2.072     2.251
    85   1 H        0.924     0.068     2.106     2.269
    86   1 H        0.925     0.075     2.033     2.230
    87   1 H        0.925     0.075     2.027     2.227
    88   1 H        0.924     0.069     2.095     2.263
    89   1 H        0.924     0.069     2.098     2.265
    90   1 H        0.926     0.099     1.791     2.093
    91   1 H        0.926     0.088     1.898     2.154
    92   1 H        0.926     0.097     1.810     2.104
    93   1 H        0.926     0.085     1.926     2.170
    94   1 H        0.926     0.082     1.958     2.188
    95   1 H        0.926     0.083     1.948     2.183
    96   1 H        0.926     0.083     1.950     2.184
    97   1 H        0.926     0.072     2.066     2.248
    98   1 H        0.926     0.103     1.760     2.075
    99   1 H        0.926     0.097     1.813     2.106
   100   1 H        0.926     0.101     1.773     2.082
   101   1 H        0.926     0.093     1.851     2.128

 Mol. C6AA /au·bohr⁶  :     152776.417333
 Mol. C8AA /au·bohr⁸  :    3795012.435306
 Mol. α(0) /au        :        609.602336


Wiberg/Mayer (AO) data.
largest (>0.10) Wiberg bond orders for each atom

 ---------------------------------------------------------------------------
     #   Z sym  total        # sym  WBO       # sym  WBO       # sym  WBO
 ---------------------------------------------------------------------------
     1   6 C    3.891 --     2 C    1.376     6 C    1.321    96 H    0.950
     2   6 C    3.941 --     1 C    1.376     3 C    1.271    22 O    1.111
     3   6 C    3.953 --     2 C    1.271     7 C    1.208     4 C    1.164
     4   6 C    3.971 --    10 N    1.396     5 C    1.229     3 C    1.164
     5   6 C    3.911 --     6 C    1.483     4 C    1.229    99 H    0.957
     6   6 C    3.978 --     5 C    1.483     1 C    1.321    24 C    0.982
     7   6 C    3.983 --     8 C    1.310    11 C    1.223     3 C    1.208
     8   6 C    3.980 --     7 C    1.310    14 C    1.196     9 C    1.192
     9   6 C    3.980 --    10 N    1.331    17 C    1.279     8 C    1.192
    10   7 N    2.985 --     4 C    1.396     9 C    1.331
    11   6 C    3.959 --    18 C    1.256     7 C    1.223    12 C    1.177
    12   6 C    3.971 --    13 N    1.388    21 C    1.226    11 C    1.177
    13   7 N    2.986 --    12 C    1.388    14 C    1.343
    14   6 C    3.979 --    13 N    1.343    15 C    1.262     8 C    1.196
    15   6 C    3.847 --    16 C    1.416    14 C    1.262   101 H    0.959
    16   6 C    3.977 --    15 C    1.416    17 C    1.396    26 C    0.974
    17   6 C    3.842 --    16 C    1.396     9 C    1.279   100 H    0.957
    18   6 C    3.935 --    19 C    1.353    11 C    1.256    23 O    1.138
    19   6 C    3.885 --    18 C    1.353    20 C    1.317    97 H    0.962
    20   6 C    3.977 --    21 C    1.483    19 C    1.317    25 C    0.985
    21   6 C    3.901 --    20 C    1.483    12 C    1.226    98 H    0.957
    22   8 O    2.163 --     2 C    1.111    53 B    0.804
    23   8 O    2.143 --    18 C    1.138    53 B    0.761
    24   6 C    3.922 --    69 O    1.740    70 O    1.132     6 C    0.982
    25   6 C    3.921 --    59 O    1.725    57 O    1.135    20 C    0.985
    26   6 C    3.923 --    54 O    1.740    55 O    1.144    16 C    0.974
    27   6 C    3.888 --    28 C    1.368    32 C    1.311    95 H    0.961
    28   6 C    3.934 --    27 C    1.368    29 C    1.254    48 O    1.124
    29   6 C    3.959 --    28 C    1.254    33 C    1.227    30 C    1.180
    30   6 C    3.972 --    36 N    1.379    31 C    1.233    29 C    1.180
    31   6 C    3.916 --    32 C    1.491    30 C    1.233    93 H    0.960
    32   6 C    3.975 --    31 C    1.491    27 C    1.311    50 C    0.979
    33   6 C    3.982 --    34 C    1.312    29 C    1.227    37 C    1.202
    34   6 C    3.979 --    33 C    1.312    35 C    1.194    40 C    1.190
    35   6 C    3.978 --    36 N    1.348    43 C    1.259    34 C    1.194
    36   7 N    2.972 --    30 C    1.379    35 C    1.348
    37   6 C    3.952 --    44 C    1.267    33 C    1.202    38 C    1.159
    38   6 C    3.971 --    39 N    1.400    47 C    1.227    37 C    1.159
    39   7 N    2.996 --    38 C    1.400    40 C    1.329
    40   6 C    3.980 --    39 N    1.329    41 C    1.282    34 C    1.190
    41   6 C    3.845 --    42 C    1.391    40 C    1.282    90 H    0.958
    42   6 C    3.977 --    43 C    1.419    41 C    1.391    52 C    0.975
    43   6 C    3.849 --    42 C    1.419    35 C    1.259    91 H    0.960
    44   6 C    3.928 --    45 C    1.365    37 C    1.267    49 O    1.126
    45   6 C    3.886 --    44 C    1.365    46 C    1.325    94 H    0.950
    46   6 C    3.978 --    47 C    1.479    45 C    1.325    51 C    0.982
    47   6 C    3.906 --    46 C    1.479    38 C    1.227    92 H    0.957
    48   8 O    2.148 --    28 C    1.124    53 B    0.785
    49   8 O    2.177 --    44 C    1.126    53 B    0.800
    50   6 C    3.923 --    60 O    1.727    61 O    1.145    32 C    0.979
    51   6 C    3.922 --    66 O    1.739    67 O    1.133    46 C    0.982
    52   6 C    3.922 --    63 O    1.741    64 O    1.141    42 C    0.975
    53   5 B    3.307 --    22 O    0.804    49 O    0.800    48 O    0.785
                            23 O    0.761
    54   8 O    2.042 --    26 C    1.740    55 O    0.178
    55   8 O    2.320 --    26 C    1.144    56 C    0.950    54 O    0.178
    56   6 C    3.918 --    87 H    0.981    89 H    0.976    88 H    0.976
                            55 O    0.950
    57   8 O    2.310 --    25 C    1.135    58 C    0.950    59 O    0.173
    58   6 C    3.917 --    86 H    0.981    85 H    0.976    84 H    0.973
                            57 O    0.950
    59   8 O    2.033 --    25 C    1.725    57 O    0.173
    60   8 O    2.031 --    50 C    1.727    61 O    0.177
    61   8 O    2.319 --    50 C    1.145    62 C    0.945    60 O    0.177
    62   6 C    3.911 --    81 H    0.982    82 H    0.977    83 H    0.967
                            61 O    0.945
    63   8 O    2.042 --    52 C    1.741    64 O    0.177
    64   8 O    2.317 --    52 C    1.141    65 C    0.951    63 O    0.177
Note: The following floating-point exceptions are signalling: IEEE_UNDERFLOW_FLAG
normal termination of xtb
    65   6 C    3.919 --    74 H    0.982    73 H    0.976    72 H    0.976
                            64 O    0.951
    66   8 O    2.042 --    51 C    1.739    67 O    0.175
    67   8 O    2.312 --    51 C    1.133    68 C    0.954    66 O    0.175
    68   6 C    3.922 --    75 H    0.981    77 H    0.977    76 H    0.976
                            67 O    0.954
    69   8 O    2.042 --    24 C    1.740    70 O    0.176
    70   8 O    2.312 --    24 C    1.132    71 C    0.954    69 O    0.176
    71   6 C    3.922 --    78 H    0.981    80 H    0.977    79 H    0.976
                            70 O    0.954
    72   1 H    0.995 --    65 C    0.976
    73   1 H    0.995 --    65 C    0.976
    74   1 H    0.994 --    65 C    0.982
    75   1 H    0.994 --    68 C    0.981
    76   1 H    0.995 --    68 C    0.976
    77   1 H    0.996 --    68 C    0.977
    78   1 H    0.994 --    71 C    0.981
    79   1 H    0.995 --    71 C    0.976
    80   1 H    0.996 --    71 C    0.977
    81   1 H    0.995 --    62 C    0.982
    82   1 H    0.995 --    62 C    0.977
    83   1 H    0.992 --    62 C    0.967
    84   1 H    0.995 --    58 C    0.973
    85   1 H    0.995 --    58 C    0.976
    86   1 H    0.994 --    58 C    0.981
    87   1 H    0.994 --    56 C    0.981
    88   1 H    0.995 --    56 C    0.976
    89   1 H    0.995 --    56 C    0.976
    90   1 H    0.990 --    41 C    0.958
    91   1 H    0.992 --    43 C    0.960
    92   1 H    0.990 --    47 C    0.957
    93   1 H    0.992 --    31 C    0.960
    94   1 H    0.992 --    45 C    0.950
    95   1 H    0.993 --    27 C    0.961
    96   1 H    0.992 --     1 C    0.950
    97   1 H    0.994 --    19 C    0.962
    98   1 H    0.989 --    21 C    0.957
    99   1 H    0.990 --     5 C    0.957
   100   1 H    0.989 --    17 C    0.957
   101   1 H    0.991 --    15 C    0.959
 ---------------------------------------------------------------------------

Topologies differ in bond orders
Writing corrected topology to xtbtopo.mol

molecular dipole:
                 x           y           z       tot (Debye)
 q only:        0.197      -2.392      -0.430
   full:        0.050      -2.405      -0.383       6.192
molecular quadrupole (traceless):
                xx          xy          yy          xz          yz          zz
 q only:       -3.703      13.297      24.791      28.748      16.479     -21.089
  q+dip:      -15.433      11.673      24.733      26.878      19.537      -9.300
   full:      -20.719      12.071      17.628      20.220      20.714       3.091


           -------------------------------------------------
          | TOTAL ENERGY             -200.570947433861 Eh   |
          | GRADIENT NORM               0.036252858300 Eh/α |
          | HOMO-LUMO GAP               0.086626627703 eV   |
           -------------------------------------------------
########################################################################
[WARNING] Runtime exception occurred
-2- restart_readRestart: Multiplicity missmatch in restart file.
-1- restart_readRestart: Number of electron missmatch in restart file.
########################################################################

------------------------------------------------------------------------
 * finished run on 2024/11/07 at 12:02:39.696     
------------------------------------------------------------------------
 total:
 * wall-time:     0 d,  0 h,  0 min,  0.946 sec
 *  cpu-time:     0 d,  0 h,  0 min,  3.203 sec
 * ratio c/w:     3.387 speedup
 SCF:
 * wall-time:     0 d,  0 h,  0 min,  0.930 sec
 *  cpu-time:     0 d,  0 h,  0 min,  3.173 sec
 * ratio c/w:     3.412 speedup

