      -----------------------------------------------------------      
     |                   =====================                   |     
     |                           x T B                           |     
     |                   =====================                   |     
     |                         S. Grimme                         |     
     |          Mulliken Center for Theoretical Chemistry        |     
     |                    University of Bonn                     |     
      -----------------------------------------------------------      

   * xtb version 6.6.1 (8d0f1dd) compiled by 'runner@Mac-1690902418499.local' on 2023-08-01

   xtb is free software: you can redistribute it and/or modify it under
   the terms of the GNU Lesser General Public License as published by
   the Free Software Foundation, either version 3 of the License, or
   (at your option) any later version.
   
   xtb is distributed in the hope that it will be useful,
   but WITHOUT ANY WARRANTY; without even the implied warranty of
   MERCHANTABILITY or FITNESS FOR A PARTICULAR PURPOSE.  See the
   GNU Lesser General Public License for more details.
   
   Cite this work as:
   * C. Bannwarth, E. Caldeweyher, S. Ehlert, A. Hansen, P. Pracht,
     J. Seibert, S. Spicher, S. Grimme, WIREs Comput. Mol. Sci., 2020, 11,
     e01493. DOI: 10.1002/wcms.1493
   
   for GFN2-xTB:
   * C. Bannwarth, S. Ehlert and S. Grimme., J. Chem. Theory Comput., 2019,
     15, 1652-1671. DOI: 10.1021/acs.jctc.8b01176
   for GFN1-xTB:
   * S. Grimme, C. Bannwarth, P. Shushkov, J. Chem. Theory Comput., 2017,
     13, 1989-2009. DOI: 10.1021/acs.jctc.7b00118
   for GFN0-xTB:
   * P. Pracht, E. Caldeweyher, S. Ehlert, S. Grimme, ChemRxiv, 2019, preprint.
     DOI: 10.26434/chemrxiv.8326202.v1
   for GFN-FF:
   * S. Spicher and S. Grimme, Angew. Chem. Int. Ed., 2020, 59, 15665-15673.
     DOI: 10.1002/anie.202004239
   
   for ALPB and GBSA implicit solvation:
   * S. Ehlert, M. Stahn, S. Spicher, S. Grimme, J. Chem. Theory Comput.,
     2021, 17, 4250-4261. DOI: 10.1021/acs.jctc.1c00471
   
   for DFT-D4:
   * E. Caldeweyher, C. Bannwarth and S. Grimme, J. Chem. Phys., 2017,
     147, 034112. DOI: 10.1063/1.4993215
   * E. Caldeweyher, S. Ehlert, A. Hansen, H. Neugebauer, S. Spicher,
     C. Bannwarth and S. Grimme, J. Chem. Phys., 2019, 150, 154122.
     DOI: 10.1063/1.5090222
   * E. Caldeweyher, J.-M. Mewes, S. Ehlert and S. Grimme, Phys. Chem. Chem. Phys.
     2020, 22, 8499-8512. DOI: 10.1039/D0CP00502A
   
   for sTDA-xTB:
   * S. Grimme and C. Bannwarth, J. Chem. Phys., 2016, 145, 054103.
     DOI: 10.1063/1.4959605
   
   in the mass-spec context:
   * V. Asgeirsson, C. Bauer and S. Grimme, Chem. Sci., 2017, 8, 4879.
     DOI: 10.1039/c7sc00601b
   * J. Koopman and S. Grimme, ACS Omega 2019, 4, 12, 15120-15133.
     DOI: 10.1021/acsomega.9b02011
   
   for metadynamics refer to:
   * S. Grimme, J. Chem. Theory Comput., 2019, 155, 2847-2862
     DOI: 10.1021/acs.jctc.9b00143
   
   for SPH calculations refer to:
   * S. Spicher and S. Grimme, J. Chem. Theory Comput., 2021, 17, 1701-1714
     DOI: 10.1021/acs.jctc.0c01306
   
   with help from (in alphabetical order)
   P. Atkinson, C. Bannwarth, F. Bohle, G. Brandenburg, E. Caldeweyher
   M. Checinski, S. Dohm, S. Ehlert, S. Ehrlich, I. Gerasimov, C. Hölzer
   A. Katbashev, J. Koopman, C. Lavigne, S. Lehtola, F. März, M. Müller,
   F. Musil, H. Neugebauer, J. Pisarek, C. Plett, P. Pracht, F. Pultar,
   J. Seibert, P. Shushkov, S. Spicher, M. Stahn, M. Steiner, T. Strunk,
   J. Stückrath, T. Rose, and J. Unsleber
   
 * started run on 2024/11/07 at 12:08:08.404     

           -------------------------------------------------
          |                Calculation Setup                |
           -------------------------------------------------

          program call               : xtb opt_radical_stacked_dimer_Base1CO2Me.mol --opt --gfn2 --chrg 0 --uhf 1 --tight
          coordinate file            : opt_radical_stacked_dimer_Base1CO2Me.mol
          omp threads                :                     8

   ID    Z sym.   atoms
    1    6 C      1-9, 11, 12, 14-21, 24-35, 37, 38, 40-47, 50-52, 56, 58,
                  62, 65, 68, 71, 102-110, 112, 113, 115-122, 125-136, 138,
                  139, 141-148, 151-153, 157, 159, 163, 166, 169, 172
    2    7 N      10, 13, 36, 39, 111, 114, 137, 140
    3    8 O      22, 23, 48, 49, 54, 55, 57, 59-61, 63, 64, 66, 67, 69, 70,
                  123, 124, 149, 150, 155, 156, 158, 160-162, 164, 165, 167,
                  168, 170, 171
    4    5 B      53, 154
    5    1 H      72-101, 173-202

molecular fragmentation (1/2 indicates fragments):
111111111111111111111111111111111111111111111111111111111111111111111111
111111111111111111111111111112222222222222222222222222222222222222222222
2222222222222222222222222222222222222222222222222222222222
# atoms in fragment 1/2:   101   101
 fragment masses (1/2) :      953.60      953.60
CMA distance (Bohr)    :   8.972
constraining FC (au)   :  0.0500
########################################################################
[WARNING] Please study the warnings concerning your input carefully
-1- prog_main_parseArguments: Unknown option '--tight' provided
########################################################################

           -------------------------------------------------
          |                 G F N 2 - x T B                 |
           -------------------------------------------------

        Reference                      10.1021/acs.jctc.8b01176
      * Hamiltonian:
        H0-scaling (s, p, d)           1.850000    2.230000    2.230000
        zeta-weighting                 0.500000
      * Dispersion:
        s8                             2.700000
        a1                             0.520000
        a2                             5.000000
        s9                             5.000000
      * Repulsion:
        kExp                           1.500000    1.000000
        rExp                           1.000000
      * Coulomb:
        alpha                          2.000000
        third order                    shell-resolved
        anisotropic                    true
        a3                             3.000000
        a5                             4.000000
        cn-shift                       1.200000
        cn-exp                         4.000000
        max-rad                        5.000000


          ...................................................
          :                      SETUP                      :
          :.................................................:
          :  # basis functions                 628          :
          :  # atomic orbitals                 628          :
          :  # shells                          344          :
          :  # electrons                       698          :
          :  max. iterations                   250          :
          :  Hamiltonian                  GFN2-xTB          :
          :  restarted?                      false          :
          :  GBSA solvation                  false          :
          :  PC potential                    false          :
          :  electronic temp.          300.0000000     K    :
          :  accuracy                    1.0000000          :
          :  -> integral cutoff          0.2500000E+02      :
          :  -> integral neglect         0.1000000E-07      :
          :  -> SCF convergence          0.1000000E-05 Eh   :
          :  -> wf. convergence          0.1000000E-03 e    :
          :  Broyden damping             0.4000000          :
          ...................................................

 iter      E             dE          RMSdq      gap      omega  full diag
   1   -404.9982483 -0.404998E+03  0.561E+00    0.04       0.0  T
   2   -405.6341597 -0.635911E+00  0.321E+00    0.02       1.0  T
   3   -400.9916424  0.464252E+01  0.287E+00    0.13       1.0  T
   4   -382.7496240  0.182420E+02  0.427E+00    0.04       1.0  T
   5   -401.9937300 -0.192441E+02  0.227E+00    0.06       1.0  T
   6   -405.6529019 -0.365917E+01  0.118E+00    0.05       1.0  T
   7   -405.6346356  0.182663E-01  0.985E-01    0.09       1.0  T
   8   -405.7828886 -0.148253E+00  0.821E-01    0.18       1.0  T
   9   -405.8164465 -0.335580E-01  0.672E-01    0.14       1.0  T
  10   -405.8909097 -0.744631E-01  0.513E-01    0.08       1.0  T
  11   -405.8618216  0.290881E-01  0.522E-01    0.13       1.0  T
  12   -405.9623634 -0.100542E+00  0.287E-01    0.07       1.0  T
  13   -405.9605059  0.185757E-02  0.231E-01    0.07       1.0  T
  14   -405.9748152 -0.143093E-01  0.158E-01    0.07       1.0  T
  15   -405.9614053  0.134099E-01  0.239E-01    0.07       1.0  T
  16   -405.9731787 -0.117734E-01  0.176E-01    0.06       1.0  T
  17   -405.9764237 -0.324499E-02  0.120E-01    0.06       1.0  T
  18   -405.9796104 -0.318672E-02  0.733E-02    0.06       1.0  T
  19   -405.9812268 -0.161636E-02  0.349E-02    0.06       1.0  T
  20   -405.9818058 -0.579037E-03  0.182E-02    0.06       1.0  T
  21   -405.9818681 -0.623216E-04  0.104E-02    0.06       1.0  T
  22   -405.9818781 -0.993895E-05  0.581E-03    0.06       1.2  T
  23   -405.9818721  0.592881E-05  0.552E-03    0.06       1.3  T
  24   -405.9818842 -0.120395E-04  0.287E-03    0.06       2.4  T
  25   -405.9818832  0.100738E-05  0.260E-03    0.06       2.7  T
  26   -405.9818854 -0.221904E-05  0.134E-03    0.06       5.3  T
  27   -405.9818864 -0.980344E-06  0.523E-04    0.06      13.4  T
  28   -405.9818865 -0.107875E-06  0.187E-04    0.06      37.6  T

   *** convergence criteria satisfied after 28 iterations ***

         #    Occupation            Energy/Eh            Energy/eV
      -------------------------------------------------------------
         1        2.0000           -0.7670616             -20.8728
       ...           ...                  ...                  ...
       343        1.9999           -0.3908476             -10.6355
       344        1.9998           -0.3898788             -10.6091
       345        1.9997           -0.3894883             -10.5985
       346        1.9994           -0.3887834             -10.5793
       347        1.9983           -0.3877742             -10.5519
       348        1.9821           -0.3855083             -10.4902
       349        1.4868           -0.3820477             -10.3960 (HOMO)
       350        0.4465           -0.3798524             -10.3363 (LUMO)
       351        0.0819           -0.3780408             -10.2870
       352        0.0055           -0.3754415             -10.2163
       353                         -0.3263672              -8.8809
       354                         -0.3239143              -8.8142
       ...                                ...                  ...
       628                          0.7091143              19.2960
      -------------------------------------------------------------
                  HL-Gap            0.0021953 Eh            0.0597 eV
             Fermi-level           -0.3810370 Eh          -10.3685 eV

 SCC (total)                   0 d,  0 h,  0 min,  4.313 sec
 SCC setup                      ...        0 min,  0.002 sec (  0.043%)
 Dispersion                     ...        0 min,  0.005 sec (  0.117%)
 classical contributions        ...        0 min,  0.003 sec (  0.062%)
 integral evaluation            ...        0 min,  0.033 sec (  0.754%)
 iterations                     ...        0 min,  4.068 sec ( 94.321%)
 molecular gradient             ...        0 min,  0.177 sec (  4.100%)
 printout                       ...        0 min,  0.026 sec (  0.603%)

         :::::::::::::::::::::::::::::::::::::::::::::::::::::
         ::                     SUMMARY                     ::
         :::::::::::::::::::::::::::::::::::::::::::::::::::::
         :: total energy            -400.967953879556 Eh    ::
         :: gradient norm              0.520091123178 Eh/a0 ::
         :: HOMO-LUMO gap              0.059736403125 eV    ::
         ::.................................................::
         :: SCC energy              -405.981886484126 Eh    ::
         :: -> isotropic ES            0.858676051568 Eh    ::
         :: -> anisotropic ES         -0.062471266199 Eh    ::
         :: -> anisotropic XC          0.096959578655 Eh    ::
         :: -> dispersion             -0.392640256845 Eh    ::
         :: repulsion energy           4.984351820862 Eh    ::
         :: add. restraining           0.000000000000 Eh    ::
         :: total charge              -0.000000000001 e     ::
         :::::::::::::::::::::::::::::::::::::::::::::::::::::

      ----------------------------------------------------------- 
     |                   =====================                   |
     |                        A N C O P T                        |
     |                   =====================                   |
     |               Approximate Normal Coordinate               |
     |                Rational Function Optimizer                |
      ----------------------------------------------------------- 

          ...................................................
          :                      SETUP                      :
          :.................................................:
          :   optimization level            normal          :
          :   max. optcycles                   606          :
          :   ANC micro-cycles                  20          :
          :   degrees of freedom               600          :
          :.................................................:
          :   RF solver                   davidson          :
          :   write xtbopt.log                true          :
          :   linear?                        false          :
          :   energy convergence         0.5000000E-05 Eh   :
          :   grad. convergence          0.1000000E-02 Eh/α :
          :   maxmium RF displ.          1.0000000          :
          :   Hlow (freq-cutoff)         0.1000000E-01      :
          :   Hmax (freq-cutoff)         5.0000000          :
          :   S6 in model hess.         20.0000000          :
          ...................................................

generating ANC from model Hessian ...
Using Lindh-Hessian (1995)
 Shifting diagonal of input Hessian by    1.0038531393731063E-002
 Lowest  eigenvalues of input Hessian
    0.010000    0.000000    0.000000    0.000000    0.000000    0.000000
    0.000000    0.010084    0.010122    0.010152    0.010169    0.010179
    0.010252    0.010317    0.010394    0.010510    0.010575    0.010646
 Highest eigenvalues
    2.324536    2.324678    2.325501    2.326986    2.327219    2.331327


........................................................................
.............................. CYCLE    1 ..............................
........................................................................

 iter      E             dE          RMSdq      gap      omega  full diag
   1   -405.9818865 -0.405982E+03  0.995E-05    0.06       0.0  T
   2   -405.9818846  0.186070E-05  0.161E-03    0.06       4.4  T
   3   -405.9818865 -0.185068E-05  0.164E-04    0.06      42.8  T
   4   -405.9818865 -0.116272E-07  0.945E-05    0.06      74.4  T
   5   -405.9818865  0.106547E-08  0.867E-05    0.06      81.2  T
     SCC iter.                  ...        0 min,  1.221 sec
     gradient                   ...        0 min,  0.202 sec
 * total energy  :  -400.9679539 Eh     change       -0.1108378E-07 Eh
   gradient norm :     0.5200912 Eh/α   predicted     0.0000000E+00 (-100.00%)
   displ. norm   :     0.4768346 α      lambda       -0.1895437E+00
   maximum displ.:     0.0717623 α      in ANC's #403, #284, #271, ...

........................................................................
.............................. CYCLE    2 ..............................
........................................................................

 iter      E             dE          RMSdq      gap      omega  full diag
   1   -406.0877180 -0.406088E+03  0.224E-01    0.07       0.0  T
   2   -405.9524466  0.135271E+00  0.508E-01    0.11       1.0  T
   3   -405.9974262 -0.449797E-01  0.386E-01    0.12       1.0  T
   4   -405.9429978  0.544284E-01  0.556E-01    0.16       1.0  T
   5   -406.0667947 -0.123797E+00  0.245E-01    0.06       1.0  T
   6   -406.0756458 -0.885103E-02  0.188E-01    0.06       1.0  T
   7   -406.0823304 -0.668466E-02  0.130E-01    0.07       1.0  T
   8   -406.0907580 -0.842756E-02  0.404E-02    0.06       1.0  T
   9   -406.0910094 -0.251381E-03  0.360E-02    0.06       1.0  T
  10   -406.0913656 -0.356266E-03  0.167E-02    0.06       1.0  T
  11   -406.0913614  0.427890E-05  0.161E-02    0.06       1.0  T
  12   -406.0914509 -0.895678E-04  0.677E-03    0.06       1.0  T
  13   -406.0914563 -0.538180E-05  0.480E-03    0.06       1.5  T
  14   -406.0914688 -0.124748E-04  0.228E-03    0.06       3.1  T
  15   -406.0914681  0.702188E-06  0.218E-03    0.06       3.2  T
  16   -406.0914706 -0.248332E-05  0.968E-04    0.06       7.3  T
  17   -406.0914707 -0.153872E-06  0.784E-04    0.06       9.0  T
  18   -406.0914710 -0.325554E-06  0.409E-04    0.06      17.2  T
     SCC iter.                  ...        0 min,  3.450 sec
     gradient                   ...        0 min,  0.169 sec
 * total energy  :  -401.1163477 Eh     change       -0.1483938E+00 Eh
   gradient norm :     0.2909167 Eh/α   predicted    -0.1163511E+00 ( -21.59%)
   displ. norm   :     0.5129820 α      lambda       -0.1158056E+00
   maximum displ.:     0.0734337 α      in ANC's #183, #298, #403, ...

........................................................................
.............................. CYCLE    3 ..............................
........................................................................

 iter      E             dE          RMSdq      gap      omega  full diag
   1   -406.1827274 -0.406183E+03  0.239E-01    0.07       0.0  T
   2   -406.0248690  0.157858E+00  0.555E-01    0.10       1.0  T
   3   -406.1116901 -0.868211E-01  0.355E-01    0.11       1.0  T
   4   -406.0357369  0.759531E-01  0.546E-01    0.13       1.0  T
   5   -406.1551814 -0.119444E+00  0.286E-01    0.06       1.0  T
   6   -406.1691853 -0.140040E-01  0.205E-01    0.06       1.0  T
   7   -406.1786267 -0.944138E-02  0.129E-01    0.08       1.0  T
   8   -406.1869447 -0.831800E-02  0.422E-02    0.06       1.0  T
   9   -406.1873216 -0.376893E-03  0.280E-02    0.07       1.0  T
  10   -406.1873794 -0.577638E-04  0.238E-02    0.07       1.0  T
  11   -406.1876481 -0.268708E-03  0.136E-02    0.07       1.0  T
  12   -406.1876627 -0.146690E-04  0.102E-02    0.07       1.0  T
  13   -406.1877109 -0.481429E-04  0.597E-03    0.07       1.2  T
  14   -406.1877238 -0.129346E-04  0.263E-03    0.07       2.7  T
  15   -406.1877254 -0.162071E-05  0.185E-03    0.07       3.8  T
  16   -406.1877273 -0.186785E-05  0.715E-04    0.07       9.8  T
  17   -406.1877274 -0.935775E-07  0.548E-04    0.07      12.8  T
  18   -406.1877276 -0.201794E-06  0.173E-04    0.07      40.6  T
     SCC iter.                  ...        0 min,  3.283 sec
     gradient                   ...        0 min,  0.174 sec
 * total energy  :  -401.1901972 Eh     change       -0.7384957E-01 Eh
   gradient norm :     0.0773284 Eh/α   predicted    -0.7314465E-01 (  -0.95%)
   displ. norm   :     0.4685488 α      lambda       -0.2373462E-01
   maximum displ.:     0.1046030 α      in ANC's #93, #84, #92, ...

........................................................................
.............................. CYCLE    4 ..............................
........................................................................

 iter      E             dE          RMSdq      gap      omega  full diag
   1   -406.2253118 -0.406225E+03  0.171E-01    0.07       0.0  T
   2   -406.0414944  0.183817E+00  0.550E-01    0.09       1.0  T
   3   -406.2084893 -0.166995E+00  0.220E-01    0.07       1.0  T
   4   -406.1618957  0.465936E-01  0.324E-01    0.11       1.0  T
   5   -406.1732956 -0.114000E-01  0.281E-01    0.06       1.0  T
   6   -406.2246954 -0.513998E-01  0.906E-02    0.06       1.0  T
   7   -406.2274009 -0.270553E-02  0.400E-02    0.07       1.0  T
   8   -406.2279518 -0.550873E-03  0.207E-02    0.07       1.0  T
   9   -406.2279539 -0.212141E-05  0.199E-02    0.07       1.0  T
  10   -406.2280216 -0.676977E-04  0.146E-02    0.07       1.0  T
  11   -406.2281339 -0.112212E-03  0.825E-03    0.07       1.0  T
  12   -406.2281518 -0.179781E-04  0.444E-03    0.07       1.6  T
  13   -406.2281578 -0.593854E-05  0.171E-03    0.07       4.1  T
  14   -406.2281588 -0.102850E-05  0.108E-03    0.07       6.5  T
  15   -406.2281593 -0.485367E-06  0.566E-04    0.07      12.4  T
  16   -406.2281594 -0.109994E-06  0.249E-04    0.07      28.2  T
     SCC iter.                  ...        0 min,  2.750 sec
     gradient                   ...        0 min,  0.173 sec
 * total energy  :  -401.2064698 Eh     change       -0.1627258E-01 Eh
   gradient norm :     0.0342612 Eh/α   predicted    -0.1447273E-01 ( -11.06%)
   displ. norm   :     0.4677734 α      lambda       -0.9155579E-02
   maximum displ.:     0.1228776 α      in ANC's #93, #92, #84, ...

........................................................................
.............................. CYCLE    5 ..............................
........................................................................

 iter      E             dE          RMSdq      gap      omega  full diag
   1   -406.2485705 -0.406249E+03  0.145E-01    0.07       0.0  T
   2   -406.0413751  0.207195E+00  0.554E-01    0.08       1.0  T
   3   -406.2358561 -0.194481E+00  0.193E-01    0.07       1.0  T
   4   -406.1974993  0.383567E-01  0.290E-01    0.10       1.0  T
   5   -406.2242087 -0.267094E-01  0.192E-01    0.06       1.0  T
   6   -406.2495361 -0.253274E-01  0.738E-02    0.06       1.0  T
   7   -406.2514602 -0.192410E-02  0.244E-02    0.07       1.0  T
   8   -406.2514757 -0.155268E-04  0.216E-02    0.07       1.0  T
   9   -406.2515710 -0.952513E-04  0.166E-02    0.07       1.0  T
  10   -406.2514587  0.112283E-03  0.191E-02    0.07       1.0  T
  11   -406.2516724 -0.213672E-03  0.953E-03    0.07       1.0  T
  12   -406.2517036 -0.312418E-04  0.478E-03    0.07       1.5  T
  13   -406.2517168 -0.131703E-04  0.173E-03    0.07       4.1  T
  14   -406.2517188 -0.199766E-05  0.681E-04    0.07      10.3  T
  15   -406.2517186  0.187576E-06  0.729E-04    0.07       9.6  T
  16   -406.2517189 -0.280411E-06  0.391E-04    0.07      18.0  T
     SCC iter.                  ...        0 min,  2.381 sec
     gradient                   ...        0 min,  0.170 sec
 * total energy  :  -401.2130029 Eh     change       -0.6533085E-02 Eh
   gradient norm :     0.0236077 Eh/α   predicted    -0.5579471E-02 ( -14.60%)
   displ. norm   :     0.4960205 α      lambda       -0.4730368E-02
   maximum displ.:     0.1362702 α      in ANC's #37, #92, #93, ...

........................................................................
.............................. CYCLE    6 ..............................
........................................................................

 iter      E             dE          RMSdq      gap      omega  full diag
   1   -406.2671875 -0.406267E+03  0.139E-01    0.07       0.0  T
   2   -406.0993616  0.167826E+00  0.511E-01    0.07       1.0  T
   3   -406.2297799 -0.130418E+00  0.248E-01    0.10       1.0  T
   4   -406.2241241  0.565573E-02  0.287E-01    0.09       1.0  T
   5   -406.2637296 -0.396055E-01  0.123E-01    0.06       1.0  T
   6   -406.2690765 -0.534685E-02  0.515E-02    0.07       1.0  T
   7   -406.2697277 -0.651270E-03  0.265E-02    0.07       1.0  T
   8   -406.2697869 -0.591445E-04  0.246E-02    0.07       1.0  T
   9   -406.2698630 -0.761611E-04  0.185E-02    0.06       1.0  T
  10   -406.2700497 -0.186646E-03  0.932E-03    0.07       1.0  T
  11   -406.2700753 -0.256621E-04  0.526E-03    0.07       1.3  T
  12   -406.2700873 -0.119581E-04  0.117E-03    0.07       6.0  T
  13   -406.2700857  0.157874E-05  0.181E-03    0.07       3.9  T
  14   -406.2700880 -0.226410E-05  0.412E-04    0.07      17.1  T
  15   -406.2700880  0.194335E-07  0.383E-04    0.07      18.4  T
  16   -406.2700880 -0.879905E-07  0.104E-04    0.07      67.9  T
     SCC iter.                  ...        0 min,  2.271 sec
     gradient                   ...        0 min,  0.176 sec
 * total energy  :  -401.2168385 Eh     change       -0.3835593E-02 Eh
   gradient norm :     0.0225855 Eh/α   predicted    -0.2947119E-02 ( -23.16%)
   displ. norm   :     0.7420739 α      lambda       -0.5886162E-02
   maximum displ.:     0.2380735 α      in ANC's #37, #34, #40, ...

........................................................................
.............................. CYCLE    7 ..............................
........................................................................

 iter      E             dE          RMSdq      gap      omega  full diag
   1   -406.2801701 -0.406280E+03  0.250E-01    0.07       0.0  T
   2   -406.1002750  0.179895E+00  0.559E-01    0.04       1.0  T
   3   -406.1562575 -0.559826E-01  0.450E-01    0.27       1.0  T
   4   -406.1846600 -0.284025E-01  0.472E-01    0.11       1.0  T
   5   -406.2529127 -0.682527E-01  0.261E-01    0.09       1.0  T
   6   -406.2623924 -0.947966E-02  0.217E-01    0.07       1.0  T
   7   -406.2764683 -0.140759E-01  0.137E-01    0.08       1.0  T
   8   -406.2833910 -0.692277E-02  0.859E-02    0.05       1.0  T
   9   -406.2880450 -0.465399E-02  0.254E-02    0.07       1.0  T
  10   -406.2881990 -0.154002E-03  0.145E-02    0.06       1.0  T
  11   -406.2882310 -0.319573E-04  0.925E-03    0.07       1.0  T
  12   -406.2881220  0.108958E-03  0.148E-02    0.06       1.0  T
  13   -406.2882574 -0.135402E-03  0.475E-03    0.06       1.5  T
  14   -406.2882655 -0.809272E-05  0.277E-03    0.06       2.5  T
  15   -406.2882690 -0.345678E-05  0.148E-03    0.06       4.8  T
  16   -406.2882700 -0.107153E-05  0.587E-04    0.06      12.0  T
  17   -406.2882701 -0.578609E-07  0.357E-04    0.06      19.7  T
  18   -406.2882701 -0.371209E-07  0.274E-04    0.06      25.7  T
     SCC iter.                  ...        0 min,  2.941 sec
     gradient                   ...        0 min,  0.170 sec
 * total energy  :  -401.2241205 Eh     change       -0.7282026E-02 Eh
   gradient norm :     0.0479947 Eh/α   predicted    -0.4563790E-02 ( -37.33%)
   displ. norm   :     0.6787491 α      lambda       -0.1169508E-01
   maximum displ.:     0.2137798 α      in ANC's #37, #34, #40, ...

........................................................................
.............................. CYCLE    8 ..............................
........................................................................

 iter      E             dE          RMSdq      gap      omega  full diag
   1   -406.2910071 -0.406291E+03  0.273E-01    0.06       0.0  T
   2   -406.2189353  0.720718E-01  0.403E-01    0.10       1.0  T
   3   -405.8804717  0.338464E+00  0.748E-01    0.02       1.0  T
   4   -406.2639533 -0.383482E+00  0.276E-01    0.12       1.0  T
   5   -406.2495291  0.144242E-01  0.351E-01    0.03       1.0  T
   6   -406.2761822 -0.266531E-01  0.252E-01    0.07       1.0  T
   7   -406.2848643 -0.868208E-02  0.173E-01    0.10       1.0  T
   8   -406.2979317 -0.130674E-01  0.931E-02    0.07       1.0  T
   9   -406.3025149 -0.458316E-02  0.471E-02    0.07       1.0  T
  10   -406.3029367 -0.421872E-03  0.361E-02    0.06       1.0  T
  11   -406.3030003 -0.635987E-04  0.317E-02    0.06       1.0  T
  12   -406.3031824 -0.182033E-03  0.248E-02    0.06       1.0  T
  13   -406.3032459 -0.634917E-04  0.242E-02    0.06       1.0  T
  14   -406.3034908 -0.244968E-03  0.965E-03    0.06       1.0  T
  15   -406.3034967 -0.584036E-05  0.714E-03    0.06       1.0  T
  16   -406.3035257 -0.290788E-04  0.194E-03    0.06       3.6  T
  17   -406.3035247  0.100105E-05  0.237E-03    0.06       3.0  T
  18   -406.3035281 -0.331095E-05  0.544E-04    0.06      12.9  T
  19   -406.3035279  0.146700E-06  0.657E-04    0.06      10.7  T
  20   -406.3035281 -0.210987E-06  0.415E-04    0.06      17.0  T
     SCC iter.                  ...        0 min,  3.090 sec
     gradient                   ...        0 min,  0.180 sec
 * total energy  :  -401.2416949 Eh     change       -0.1757440E-01 Eh
   gradient norm :     0.0816939 Eh/α   predicted    -0.8541516E-02 ( -51.40%)
   displ. norm   :     0.6357226 α      lambda       -0.2458780E-01
   maximum displ.:     0.1739773 α      in ANC's #37, #61, #57, ...

........................................................................
.............................. CYCLE    9 ..............................
........................................................................

 iter      E             dE          RMSdq      gap      omega  full diag
   1   -406.2559373 -0.406256E+03  0.318E-01    0.05       0.0  T
   2   -406.0790462  0.176891E+00  0.639E-01    0.37       1.0  T
   3   -406.2426748 -0.163629E+00  0.352E-01    0.17       1.0  T
   4   -406.2970881 -0.544133E-01  0.196E-01    0.06       1.0  T
   5   -406.2989506 -0.186251E-02  0.162E-01    0.08       1.0  T
   6   -406.2921656  0.678502E-02  0.168E-01    0.04       1.0  T
   7   -406.2832667  0.889889E-02  0.212E-01    0.06       1.0  T
   8   -406.3024646 -0.191979E-01  0.122E-01    0.04       1.0  T
   9   -406.3029447 -0.480151E-03  0.113E-01    0.07       1.0  T
  10   -406.3083804 -0.543572E-02  0.260E-02    0.06       1.0  T
  11   -406.3020644  0.631608E-02  0.940E-02    0.05       1.0  T
  12   -406.3084295 -0.636518E-02  0.203E-02    0.06       1.0  T
  13   -406.3084953 -0.657976E-04  0.162E-02    0.06       1.0  T
  14   -406.3086612 -0.165913E-03  0.683E-03    0.06       1.0  T
  15   -406.3086796 -0.183975E-04  0.340E-03    0.06       2.1  T
  16   -406.3086854 -0.572355E-05  0.193E-03    0.06       3.6  T
  17   -406.3086867 -0.133007E-05  0.129E-03    0.06       5.4  T
  18   -406.3086879 -0.122097E-05  0.268E-04    0.06      26.3  T
  19   -406.3086878  0.161604E-06  0.530E-04    0.06      13.3  T
  20   -406.3086880 -0.217318E-06  0.420E-05    0.06     167.6  T
     SCC iter.                  ...        0 min,  3.338 sec
     gradient                   ...        0 min,  0.166 sec
 * total energy  :  -401.2333392 Eh     change        0.8355717E-02 Eh
   gradient norm :     0.1817465 Eh/α   predicted    -0.1726248E-01 (-306.59%)
   displ. norm   :     0.4129198 α      lambda       -0.5731358E-01
   maximum displ.:     0.0924746 α      in ANC's #37, #171, #61, ...

........................................................................
.............................. CYCLE   10 ..............................
........................................................................

 iter      E             dE          RMSdq      gap      omega  full diag
   1   -406.3216414 -0.406322E+03  0.188E-01    0.08       0.0  T
   2   -405.4092301  0.912411E+00  0.104E+00    0.02       1.0  T
   3   -406.3159963 -0.906766E+00  0.192E-01    0.08       1.0  T
   4   -406.2977382  0.182580E-01  0.281E-01    0.02       1.0  T
   5   -406.3206734 -0.229351E-01  0.178E-01    0.08       1.0  T
   6   -406.3219861 -0.131271E-02  0.138E-01    0.07       1.0  T
   7   -406.3262668 -0.428075E-02  0.103E-01    0.06       1.0  T
   8   -406.3292995 -0.303272E-02  0.676E-02    0.06       1.0  T
   9   -406.3305592 -0.125969E-02  0.528E-02    0.05       1.0  T
  10   -406.3319710 -0.141176E-02  0.193E-02    0.06       1.0  T
  11   -406.3319866 -0.156570E-04  0.155E-02    0.06       1.0  T
  12   -406.3321212 -0.134598E-03  0.583E-03    0.06       1.2  T
  13   -406.3321412 -0.199533E-04  0.225E-03    0.06       3.1  T
  14   -406.3321409  0.259500E-06  0.162E-03    0.06       4.3  T
  15   -406.3321381  0.278939E-05  0.267E-03    0.06       2.6  T
  16   -406.3321415 -0.336091E-05  0.119E-03    0.06       5.9  T
  17   -406.3321425 -0.948223E-06  0.175E-04    0.06      40.3  T
  18   -406.3321424  0.399382E-08  0.153E-04    0.06      45.9  T
     SCC iter.                  ...        0 min,  2.711 sec
     gradient                   ...        0 min,  0.169 sec
 * total energy  :  -401.2538594 Eh     change       -0.2052020E-01 Eh
   gradient norm :     0.0370809 Eh/α   predicted    -0.3354286E-01 (  63.46%)
   displ. norm   :     0.4892677 α      lambda       -0.6674874E-02
   maximum displ.:     0.1150962 α      in ANC's #92, #69, #93, ...

........................................................................
.............................. CYCLE   11 ..............................
........................................................................

 iter      E             dE          RMSdq      gap      omega  full diag
   1   -406.3174941 -0.406317E+03  0.137E-01    0.06       0.0  T
   2   -406.2714777  0.460163E-01  0.266E-01    0.12       1.0  T
   3   -406.1799188  0.915590E-01  0.445E-01    0.05       1.0  T
   4   -406.2891295 -0.109211E+00  0.233E-01    0.06       1.0  T
   5   -406.3076166 -0.184871E-01  0.155E-01    0.06       1.0  T
   6   -406.3102060 -0.258932E-02  0.138E-01    0.04       1.0  T
   7   -406.3150002 -0.479427E-02  0.893E-02    0.07       1.0  T
   8   -406.3173943 -0.239404E-02  0.527E-02    0.06       1.0  T
   9   -406.3181971 -0.802879E-03  0.366E-02    0.06       1.0  T
  10   -406.3184536 -0.256499E-03  0.260E-02    0.06       1.0  T
  11   -406.3187115 -0.257841E-03  0.142E-02    0.06       1.0  T
  12   -406.3187780 -0.665018E-04  0.640E-03    0.06       1.1  T
  13   -406.3187789 -0.872879E-06  0.502E-03    0.06       1.4  T
  14   -406.3187977 -0.188236E-04  0.179E-03    0.06       3.9  T
  15   -406.3187997 -0.199858E-05  0.537E-04    0.06      13.1  T
  16   -406.3187998 -0.132479E-06  0.195E-04    0.06      36.1  T
  17   -406.3187998 -0.107501E-07  0.119E-04    0.06      59.0  T
     SCC iter.                  ...        0 min,  3.057 sec
     gradient                   ...        0 min,  0.175 sec
 * total energy  :  -401.2567126 Eh     change       -0.2853215E-02 Eh
   gradient norm :     0.0275268 Eh/α   predicted    -0.4136368E-02 (  44.97%)
   displ. norm   :     0.3843933 α      lambda       -0.5499903E-02
   maximum displ.:     0.1288409 α      in ANC's #69, #57, #58, ...

........................................................................
.............................. CYCLE   12 ..............................
........................................................................

 iter      E             dE          RMSdq      gap      omega  full diag
   1   -406.3123826 -0.406312E+03  0.104E-01    0.06       0.0  T
   2   -406.2620689  0.503136E-01  0.268E-01    0.14       1.0  T
   3   -406.2681836 -0.611464E-02  0.250E-01    0.05       1.0  T
   4   -406.2948372 -0.266537E-01  0.179E-01    0.07       1.0  T
   5   -406.3056021 -0.107649E-01  0.105E-01    0.08       1.0  T
   6   -406.3087545 -0.315235E-02  0.793E-02    0.07       1.0  T
   7   -406.3103209 -0.156646E-02  0.648E-02    0.07       1.0  T
   8   -406.3124976 -0.217670E-02  0.223E-02    0.06       1.0  T
   9   -406.3127914 -0.293801E-03  0.811E-03    0.06       1.0  T
  10   -406.3127261  0.653690E-04  0.111E-02    0.06       1.0  T
  11   -406.3128089 -0.828950E-04  0.405E-03    0.06       1.7  T
  12   -406.3128198 -0.108198E-04  0.860E-04    0.06       8.2  T
  13   -406.3128201 -0.303466E-06  0.369E-04    0.06      19.1  T
  14   -406.3128200  0.535213E-07  0.399E-04    0.06      17.6  T
     SCC iter.                  ...        0 min,  2.213 sec
     gradient                   ...        0 min,  0.166 sec
 * total energy  :  -401.2584760 Eh     change       -0.1763434E-02 Eh
   gradient norm :     0.0287522 Eh/α   predicted    -0.3156282E-02 (  78.98%)
   displ. norm   :     0.1113209 α      lambda       -0.1501564E-02
   maximum displ.:     0.0295441 α      in ANC's #87, #88, #79, ...

........................................................................
.............................. CYCLE   13 ..............................
........................................................................

 iter      E             dE          RMSdq      gap      omega  full diag
   1   -406.3170331 -0.406317E+03  0.402E-02    0.06       0.0  T
   2   -406.2936135  0.234196E-01  0.184E-01    0.10       1.0  T
   3   -406.3108318 -0.172183E-01  0.946E-02    0.05       1.0  T
   4   -406.3139620 -0.313027E-02  0.768E-02    0.07       1.0  T
   5   -406.3152204 -0.125841E-02  0.723E-02    0.05       1.0  T
   6   -406.3162932 -0.107277E-02  0.453E-02    0.06       1.0  T
   7   -406.3170387 -0.745534E-03  0.185E-02    0.06       1.0  T
   8   -406.3172188 -0.180010E-03  0.865E-03    0.06       1.0  T
   9   -406.3172389 -0.201431E-04  0.540E-03    0.06       1.3  T
  10   -406.3172567 -0.177610E-04  0.125E-03    0.06       5.6  T
  11   -406.3172565  0.113796E-06  0.105E-03    0.06       6.7  T
  12   -406.3172567 -0.201571E-06  0.818E-04    0.06       8.6  T
  13   -406.3172571 -0.387460E-06  0.321E-04    0.06      21.9  T
     SCC iter.                  ...        0 min,  1.856 sec
     gradient                   ...        0 min,  0.170 sec
 * total energy  :  -401.2593227 Eh     change       -0.8466310E-03 Eh
   gradient norm :     0.0086498 Eh/α   predicted    -0.7600869E-03 ( -10.22%)
   displ. norm   :     0.1169508 α      lambda       -0.3629023E-03
   maximum displ.:     0.0260600 α      in ANC's #57, #69, #87, ...

........................................................................
.............................. CYCLE   14 ..............................
........................................................................

 iter      E             dE          RMSdq      gap      omega  full diag
   1   -406.3188512 -0.406319E+03  0.249E-02    0.06       0.0  T
   2   -406.3165284  0.232287E-02  0.613E-02    0.07       1.0  T
   3   -406.3136318  0.289661E-02  0.843E-02    0.05       1.0  T
   4   -406.3163446 -0.271281E-02  0.610E-02    0.07       1.0  T
   5   -406.3180425 -0.169792E-02  0.478E-02    0.05       1.0  T
   6   -406.3184558 -0.413307E-03  0.313E-02    0.06       1.0  T
   7   -406.3188501 -0.394256E-03  0.859E-03    0.06       1.0  T
   8   -406.3188745 -0.244682E-04  0.435E-03    0.06       1.6  T
   9   -406.3188828 -0.827708E-05  0.261E-03    0.06       2.7  T
  10   -406.3188863 -0.354009E-05  0.704E-04    0.06      10.0  T
  11   -406.3188865 -0.195200E-06  0.320E-04    0.06      22.0  T
  12   -406.3188865  0.383577E-07  0.331E-04    0.06      21.2  T
     SCC iter.                  ...        0 min,  1.724 sec
     gradient                   ...        0 min,  0.193 sec
 * total energy  :  -401.2595308 Eh     change       -0.2081531E-03 Eh
   gradient norm :     0.0056042 Eh/α   predicted    -0.1839396E-03 ( -11.63%)
   displ. norm   :     0.1716024 α      lambda       -0.2936667E-03
   maximum displ.:     0.0668473 α      in ANC's #69, #57, #38, ...

........................................................................
.............................. CYCLE   15 ..............................
........................................................................

 iter      E             dE          RMSdq      gap      omega  full diag
   1   -406.3208118 -0.406321E+03  0.329E-02    0.06       0.0  T
   2   -406.3159592  0.485266E-02  0.816E-02    0.05       1.0  T
   3   -406.3122697  0.368950E-02  0.108E-01    0.08       1.0  T
   4   -406.3186587 -0.638906E-02  0.708E-02    0.07       1.0  T
   5   -406.3194694 -0.810617E-03  0.572E-02    0.06       1.0  T
   6   -406.3207004 -0.123102E-02  0.171E-02    0.06       1.0  T
   7   -406.3207712 -0.708036E-04  0.993E-03    0.06       1.0  T
   8   -406.3208100 -0.388370E-04  0.629E-03    0.06       1.1  T
   9   -406.3208261 -0.160740E-04  0.383E-03    0.06       1.8  T
  10   -406.3208355 -0.940842E-05  0.676E-04    0.06      10.4  T
  11   -406.3208356 -0.699659E-07  0.412E-04    0.06      17.1  T
  12   -406.3208355  0.834359E-07  0.457E-04    0.06      15.4  T
     SCC iter.                  ...        0 min,  1.737 sec
     gradient                   ...        0 min,  0.170 sec
 * total energy  :  -401.2596906 Eh     change       -0.1597396E-03 Eh
   gradient norm :     0.0067968 Eh/α   predicted    -0.1511660E-03 (  -5.37%)
   displ. norm   :     0.1192080 α      lambda       -0.1421572E-03
   maximum displ.:     0.0333851 α      in ANC's #69, #98, #57, ...

........................................................................
.............................. CYCLE   16 ..............................
........................................................................

 iter      E             dE          RMSdq      gap      omega  full diag
   1   -406.3207581 -0.406321E+03  0.207E-02    0.06       0.0  T
   2   -406.3207165  0.415759E-04  0.154E-02    0.06       1.0  T
   3   -406.3129188  0.779768E-02  0.107E-01    0.06       1.0  T
   4   -406.3189548 -0.603600E-02  0.511E-02    0.07       1.0  T
   5   -406.3194736 -0.518796E-03  0.520E-02    0.05       1.0  T
   6   -406.3207336 -0.125992E-02  0.773E-03    0.06       1.0  T
   7   -406.3207447 -0.111655E-04  0.556E-03    0.06       1.3  T
   8   -406.3207551 -0.103908E-04  0.365E-03    0.06       1.9  T
   9   -406.3207646 -0.953845E-05  0.115E-03    0.06       6.1  T
  10   -406.3207650 -0.362558E-06  0.608E-04    0.06      11.6  T
  11   -406.3207651 -0.115714E-06  0.353E-04    0.06      19.9  T
     SCC iter.                  ...        0 min,  1.526 sec
     gradient                   ...        0 min,  0.175 sec
 * total energy  :  -401.2597829 Eh     change       -0.9234640E-04 Eh
   gradient norm :     0.0036572 Eh/α   predicted    -0.7208921E-04 ( -21.94%)
   displ. norm   :     0.1205751 α      lambda       -0.9430867E-04
   maximum displ.:     0.0321133 α      in ANC's #20, #14, #38, ...

........................................................................
.............................. CYCLE   17 ..............................
........................................................................

 iter      E             dE          RMSdq      gap      omega  full diag
   1   -406.3220075 -0.406322E+03  0.182E-02    0.06       0.0  T
   2   -406.3204452  0.156225E-02  0.473E-02    0.05       1.0  T
   3   -406.3196632  0.782074E-03  0.567E-02    0.07       1.0  T
   4   -406.3204800 -0.816875E-03  0.511E-02    0.06       1.0  T
   5   -406.3218884 -0.140840E-02  0.171E-02    0.06       1.0  T
   6   -406.3219098 -0.213438E-04  0.150E-02    0.06       1.0  T
   7   -406.3220036 -0.938147E-04  0.431E-03    0.06       1.6  T
   8   -406.3220121 -0.848488E-05  0.203E-03    0.06       3.5  T
   9   -406.3220139 -0.182272E-05  0.116E-03    0.06       6.1  T
  10   -406.3220143 -0.428134E-06  0.638E-04    0.06      11.0  T
  11   -406.3220146 -0.225620E-06  0.280E-04    0.06      25.2  T
     SCC iter.                  ...        0 min,  2.227 sec
     gradient                   ...        0 min,  0.179 sec
 * total energy  :  -401.2598454 Eh     change       -0.6243805E-04 Eh
   gradient norm :     0.0030025 Eh/α   predicted    -0.4784283E-04 ( -23.38%)
   displ. norm   :     0.1203906 α      lambda       -0.6150188E-04
   maximum displ.:     0.0375711 α      in ANC's #20, #14, #30, ...

........................................................................
.............................. CYCLE   18 ..............................
........................................................................

 iter      E             dE          RMSdq      gap      omega  full diag
   1   -406.3223917 -0.406322E+03  0.178E-02    0.06       0.0  T
   2   -406.3216300  0.761699E-03  0.338E-02    0.06       1.0  T
   3   -406.3184724  0.315760E-02  0.731E-02    0.08       1.0  T
   4   -406.3211883 -0.271586E-02  0.528E-02    0.05       1.0  T
   5   -406.3222856 -0.109725E-02  0.153E-02    0.06       1.0  T
   6   -406.3223408 -0.552178E-04  0.895E-03    0.06       1.0  T
   7   -406.3223846 -0.437925E-04  0.408E-03    0.06       1.7  T
   8   -406.3223931 -0.852509E-05  0.196E-03    0.06       3.6  T
   9   -406.3223952 -0.210897E-05  0.750E-04    0.06       9.4  T
  10   -406.3223952 -0.144661E-07  0.570E-04    0.06      12.3  T
  11   -406.3223954 -0.189521E-06  0.216E-04    0.06      32.6  T
     SCC iter.                  ...        0 min,  1.681 sec
     gradient                   ...        0 min,  0.164 sec
 * total energy  :  -401.2598853 Eh     change       -0.3992145E-04 Eh
   gradient norm :     0.0028105 Eh/α   predicted    -0.3119828E-04 ( -21.85%)
   displ. norm   :     0.0937827 α      lambda       -0.3706878E-04
   maximum displ.:     0.0331925 α      in ANC's #20, #14, #30, ...

........................................................................
.............................. CYCLE   19 ..............................
........................................................................

 iter      E             dE          RMSdq      gap      omega  full diag
   1   -406.3225052 -0.406323E+03  0.138E-02    0.06       0.0  T
   2   -406.3224270  0.782249E-04  0.135E-02    0.06       1.0  T
   3   -406.3182141  0.421293E-02  0.772E-02    0.07       1.0  T
   4   -406.3211076 -0.289348E-02  0.482E-02    0.05       1.0  T
   5   -406.3223075 -0.119995E-02  0.218E-02    0.06       1.0  T
   6   -406.3224864 -0.178848E-03  0.695E-03    0.06       1.0  T
   7   -406.3224964 -0.999756E-05  0.372E-03    0.06       1.9  T
   8   -406.3225060 -0.960231E-05  0.152E-03    0.06       4.6  T
   9   -406.3225070 -0.102861E-05  0.765E-04    0.06       9.2  T
  10   -406.3225069  0.729671E-07  0.679E-04    0.06      10.4  T
  11   -406.3225072 -0.325168E-06  0.218E-04    0.06      32.3  T
     SCC iter.                  ...        0 min,  1.518 sec
     gradient                   ...        0 min,  0.172 sec
 * total energy  :  -401.2599095 Eh     change       -0.2426029E-04 Eh
   gradient norm :     0.0022265 Eh/α   predicted    -0.1869851E-04 ( -22.93%)
   displ. norm   :     0.0746119 α      lambda       -0.2297472E-04
   maximum displ.:     0.0284243 α      in ANC's #20, #14, #19, ...

........................................................................
.............................. CYCLE   20 ..............................
........................................................................

 iter      E             dE          RMSdq      gap      omega  full diag
   1   -406.3224332 -0.406322E+03  0.109E-02    0.06       0.0  T
   2   -406.3218407  0.592475E-03  0.285E-02    0.06       1.0  T
   3   -406.3211109  0.729816E-03  0.426E-02    0.07       1.0  T
   4   -406.3221395 -0.102864E-02  0.233E-02    0.06       1.0  T
   5   -406.3222601 -0.120571E-03  0.213E-02    0.06       1.0  T
   6   -406.3224316 -0.171485E-03  0.368E-03    0.06       1.9  T
   7   -406.3224356 -0.407904E-05  0.175E-03    0.06       4.0  T
   8   -406.3224362 -0.585757E-06  0.115E-03    0.06       6.1  T
   9   -406.3224369 -0.647378E-06  0.563E-04    0.06      12.5  T
  10   -406.3224369  0.570310E-08  0.463E-04    0.06      15.2  T
     SCC iter.                  ...        0 min,  1.539 sec
     gradient                   ...        0 min,  0.171 sec
 * total energy  :  -401.2599249 Eh     change       -0.1540653E-04 Eh
   gradient norm :     0.0016359 Eh/α   predicted    -0.1155322E-04 ( -25.01%)
   displ. norm   :     0.0975144 α      lambda       -0.1589625E-04
   maximum displ.:     0.0382285 α      in ANC's #19, #20, #14, ...
 * RMSD in coord.:     0.2203369 α      energy gain  -0.2919711E+00 Eh

generating ANC from model Hessian ...
Using Lindh-Hessian (1995)
 Shifting diagonal of input Hessian by    9.9944122367627720E-003
 Lowest  eigenvalues of input Hessian
    0.000000    0.000000    0.000000    0.000000    0.000000    0.000000
    0.010000    0.010088    0.010128    0.010137    0.010186    0.010201
    0.010298    0.010330    0.010347    0.010463    0.010519    0.010572
 Highest eigenvalues
    2.402978    2.404066    2.405391    2.405741    2.407646    2.410269


........................................................................
.............................. CYCLE   21 ..............................
........................................................................

 iter      E             dE          RMSdq      gap      omega  full diag
   1   -406.3219747 -0.406322E+03  0.132E-02    0.06       0.0  T
   2   -406.3217689  0.205805E-03  0.194E-02    0.06       1.0  T
   3   -406.3210781  0.690810E-03  0.356E-02    0.07       1.0  T
   4   -406.3198580  0.122009E-02  0.545E-02    0.05       1.0  T
   5   -406.3218953 -0.203737E-02  0.149E-02    0.06       1.0  T
   6   -406.3219564 -0.610117E-04  0.777E-03    0.06       1.0  T
   7   -406.3219762 -0.197959E-04  0.309E-03    0.06       2.3  T
   8   -406.3219792 -0.306546E-05  0.144E-03    0.06       4.9  T
   9   -406.3219802 -0.947187E-06  0.827E-04    0.06       8.5  T
  10   -406.3219802  0.180756E-08  0.680E-04    0.06      10.3  T
     SCC iter.                  ...        0 min,  1.330 sec
     gradient                   ...        0 min,  0.177 sec
 * total energy  :  -401.2599375 Eh     change       -0.1258487E-04 Eh
   gradient norm :     0.0017170 Eh/α   predicted     0.0000000E+00 (-100.00%)
   displ. norm   :     0.0249430 α      lambda       -0.7789996E-05
   maximum displ.:     0.0074668 α      in ANC's #18, #65, #64, ...

........................................................................
.............................. CYCLE   22 ..............................
........................................................................

 iter      E             dE          RMSdq      gap      omega  full diag
   1   -406.3221752 -0.406322E+03  0.448E-03    0.06       0.0  T
   2   -406.3220830  0.921665E-04  0.115E-02    0.06       1.0  T
   3   -406.3221023 -0.193085E-04  0.101E-02    0.06       1.0  T
   4   -406.3221264 -0.240818E-04  0.109E-02    0.06       1.0  T
   5   -406.3221570 -0.305327E-04  0.654E-03    0.06       1.1  T
   6   -406.3221739 -0.169668E-04  0.195E-03    0.06       3.6  T
   7   -406.3221748 -0.863331E-06  0.114E-03    0.06       6.2  T
   8   -406.3221755 -0.730896E-06  0.460E-04    0.06      15.3  T
   9   -406.3221756 -0.761615E-07  0.272E-04    0.06      25.9  T
     SCC iter.                  ...        0 min,  1.300 sec
     gradient                   ...        0 min,  0.172 sec
 * total energy  :  -401.2599459 Eh     change       -0.8368627E-05 Eh
   gradient norm :     0.0006267 Eh/α   predicted    -0.4201671E-05 ( -49.79%)
   displ. norm   :     0.0262176 α      lambda        0.1362508E-05
   maximum displ.:     0.0079369 α      in ANC's #18, #65, #64, ...

........................................................................
.............................. CYCLE   23 ..............................
........................................................................

 iter      E             dE          RMSdq      gap      omega  full diag
   1   -406.3223621 -0.406322E+03  0.465E-03    0.06       0.0  T
   2   -406.3223284  0.336760E-04  0.745E-03    0.06       1.0  T
   3   -406.3221005  0.227875E-03  0.187E-02    0.06       1.0  T
   4   -406.3222802 -0.179682E-03  0.136E-02    0.06       1.0  T
   5   -406.3223397 -0.594374E-04  0.718E-03    0.06       1.0  T
   6   -406.3223615 -0.218007E-04  0.153E-03    0.06       4.6  T
   7   -406.3223618 -0.338881E-06  0.984E-04    0.06       7.1  T
   8   -406.3223622 -0.378883E-06  0.561E-04    0.06      12.5  T
     SCC iter.                  ...        0 min,  1.256 sec
     gradient                   ...        0 min,  0.174 sec
 * total energy  :  -401.2599447 Eh     change        0.1174162E-05 Eh
   gradient norm :     0.0018227 Eh/α   predicted     0.6780689E-06 ( -42.25%)
   displ. norm   :     0.0165365 α      lambda       -0.6559123E-05
   maximum displ.:     0.0060557 α      in ANC's #18, #96, #1, ...

........................................................................
.............................. CYCLE   24 ..............................
........................................................................

 iter      E             dE          RMSdq      gap      omega  full diag
   1   -406.3224230 -0.406322E+03  0.342E-03    0.06       0.0  T
   2   -406.3223937  0.293754E-04  0.685E-03    0.06       1.0  T
   3   -406.3223077  0.859970E-04  0.124E-02    0.06       1.0  T
   4   -406.3223584 -0.507633E-04  0.967E-03    0.06       1.0  T
   5   -406.3224167 -0.582655E-04  0.416E-03    0.06       1.7  T
   6   -406.3224213 -0.463176E-05  0.235E-03    0.06       3.0  T
   7   -406.3224230 -0.165708E-05  0.834E-04    0.06       8.4  T
   8   -406.3224233 -0.293375E-06  0.363E-04    0.06      19.4  T
   9   -406.3224233 -0.526366E-07  0.188E-04    0.06      37.4  T
     SCC iter.                  ...        0 min,  1.245 sec
     gradient                   ...        0 min,  0.171 sec
 * total energy  :  -401.2599510 Eh     change       -0.6318430E-05 Eh
   gradient norm :     0.0007074 Eh/α   predicted    -0.3280967E-05 ( -48.07%)
   displ. norm   :     0.0315543 α      lambda       -0.3800632E-05
   maximum displ.:     0.0128638 α      in ANC's #18, #1, #3, ...

........................................................................
.............................. CYCLE   25 ..............................
........................................................................

 iter      E             dE          RMSdq      gap      omega  full diag
   1   -406.3223538 -0.406322E+03  0.370E-03    0.06       0.0  T
   2   -406.3223464  0.734199E-05  0.409E-03    0.06       1.7  T
   3   -406.3222067  0.139753E-03  0.144E-02    0.06       1.0  T
   4   -406.3221516  0.550773E-04  0.165E-02    0.06       1.0  T
   5   -406.3223380 -0.186377E-03  0.620E-03    0.06       1.1  T
   6   -406.3223515 -0.135020E-04  0.238E-03    0.06       3.0  T
   7   -406.3223536 -0.213561E-05  0.971E-04    0.06       7.2  T
   8   -406.3223539 -0.328992E-06  0.362E-04    0.06      19.4  T
   9   -406.3223540 -0.630798E-07  0.223E-04    0.06      31.6  T
     SCC iter.                  ...        0 min,  1.254 sec
     gradient                   ...        0 min,  0.173 sec
 * total energy  :  -401.2599547 Eh     change       -0.3700762E-05 Eh
   gradient norm :     0.0006097 Eh/α   predicted    -0.1901718E-05 ( -48.61%)
   displ. norm   :     0.0621171 α      lambda       -0.4243363E-05
   maximum displ.:     0.0259863 α      in ANC's #18, #1, #3, ...

   *** GEOMETRY OPTIMIZATION CONVERGED AFTER 25 ITERATIONS ***

------------------------------------------------------------------------
 total energy gain   :        -0.2920009 Eh     -183.2333 kcal/mol
 total RMSD          :         0.2201358 a0        0.1165 Å
 total power (kW/mol):       -30.6659264 (step)  -12.9381 (real)
------------------------------------------------------------------------

 ANCopt (total)                0 d,  0 h,  0 min, 59.255 sec
 optimizer setup                ...        0 min,  0.001 sec (  0.001%)
 model hessian                  ...        0 min,  0.240 sec (  0.404%)
 ANC generation                 ...        0 min,  0.249 sec (  0.421%)
 coordinate transformation      ...        0 min,  0.004 sec (  0.007%)
 single point calculation       ...        0 min, 58.720 sec ( 99.097%)
 optimization log               ...        0 min,  0.014 sec (  0.024%)
 hessian update                 ...        0 min,  0.004 sec (  0.006%)
 rational function              ...        0 min,  0.020 sec (  0.033%)

================
 final structure:
================
 xtb: 6.6.1 (8d0f1dd)
          11072412093D

202224  0     0  0            999 V2000
   -0.5694    4.8391    1.1427 C   0  0  0  0  0  0  0  0  0  0  0  0
   -0.1692    3.6059    1.6401 C   0  0  0  0  0  0  0  0  0  0  0  0
    1.2055    3.2564    1.6223 C   0  0  0  0  0  0  0  0  0  0  0  0
    2.1240    4.3366    1.4063 C   0  0  0  0  0  0  0  0  0  0  0  0
    1.6996    5.5515    0.8610 C   0  0  0  0  0  0  0  0  0  0  0  0
    0.3499    5.7838    0.6877 C   0  0  0  0  0  0  0  0  0  0  0  0
    1.7958    1.9547    1.8459 C   0  0  0  0  0  0  0  0  0  0  0  0
    3.1231    1.9901    2.3237 C   0  0  0  0  0  0  0  0  0  0  0  0
    3.7998    3.2352    2.4721 C   0  0  0  0  0  0  0  0  0  0  0  0
    3.3954    4.3002    1.8716 N   0  0  0  0  0  0  0  0  0  0  0  0
    1.2870    0.6519    1.4942 C   0  0  0  0  0  0  0  0  0  0  0  0
    2.1525   -0.4709    1.7346 C   0  0  0  0  0  0  0  0  0  0  0  0
    3.3855   -0.3753    2.2676 N   0  0  0  0  0  0  0  0  0  0  0  0
    3.8839    0.8008    2.5131 C   0  0  0  0  0  0  0  0  0  0  0  0
    5.3075    0.9128    2.7722 C   0  0  0  0  0  0  0  0  0  0  0  0
    5.8670    2.0854    3.1067 C   0  0  0  0  0  0  0  0  0  0  0  0
    4.9686    3.2564    3.4244 C   0  0  0  0  0  0  0  0  0  0  0  0
    0.0875    0.3615    0.7696 C   0  0  0  0  0  0  0  0  0  0  0  0
   -0.1180   -0.9148    0.2433 C   0  0  0  0  0  0  0  0  0  0  0  0
    0.7470   -1.9788    0.4848 C   0  0  0  0  0  0  0  0  0  0  0  0
    1.8477   -1.7655    1.2814 C   0  0  0  0  0  0  0  0  0  0  0  0
   -1.0828    2.8156    2.2139 O   0  0  0  0  0  0  0  0  0  0  0  0
   -0.8529    1.2442    0.4538 O   0  0  0  0  0  0  0  0  0  0  0  0
   -0.0925    7.0671    0.0872 C   0  0  0  0  0  0  0  0  0  0  0  0
    0.4899   -3.3280   -0.0730 C   0  0  0  0  0  0  0  0  0  0  0  0
    7.3315    2.3227    3.1498 C   0  0  0  0  0  0  0  0  0  0  0  0
   -1.8200   -1.2430    2.4995 C   0  0  0  0  0  0  0  0  0  0  0  0
   -2.6906   -0.2999    1.9568 C   0  0  0  0  0  0  0  0  0  0  0  0
   -3.7381   -0.6946    1.0807 C   0  0  0  0  0  0  0  0  0  0  0  0
   -3.7852   -2.1006    0.7563 C   0  0  0  0  0  0  0  0  0  0  0  0
   -2.8501   -3.0195    1.2893 C   0  0  0  0  0  0  0  0  0  0  0  0
   -1.8855   -2.6014    2.1674 C   0  0  0  0  0  0  0  0  0  0  0  0
   -4.8078    0.1386    0.5896 C   0  0  0  0  0  0  0  0  0  0  0  0
   -5.8568   -0.5481   -0.0681 C   0  0  0  0  0  0  0  0  0  0  0  0
   -5.7174   -1.9132   -0.4502 C   0  0  0  0  0  0  0  0  0  0  0  0
   -4.6900   -2.6501   -0.0475 N   0  0  0  0  0  0  0  0  0  0  0  0
   -5.0267    1.5537    0.7797 C   0  0  0  0  0  0  0  0  0  0  0  0
   -6.4078    1.9920    0.7265 C   0  0  0  0  0  0  0  0  0  0  0  0
   -7.3820    1.2834    0.1787 N   0  0  0  0  0  0  0  0  0  0  0  0
   -7.1036    0.0896   -0.3371 C   0  0  0  0  0  0  0  0  0  0  0  0
   -8.0959   -0.5766   -1.0751 C   0  0  0  0  0  0  0  0  0  0  0  0
   -7.8825   -1.8664   -1.5485 C   0  0  0  0  0  0  0  0  0  0  0  0
   -6.7106   -2.5339   -1.2378 C   0  0  0  0  0  0  0  0  0  0  0  0
   -4.0641    2.5954    0.8980 C   0  0  0  0  0  0  0  0  0  0  0  0
   -4.4741    3.8725    1.2888 C   0  0  0  0  0  0  0  0  0  0  0  0
   -5.8173    4.2209    1.4437 C   0  0  0  0  0  0  0  0  0  0  0  0
   -6.7814    3.2919    1.1403 C   0  0  0  0  0  0  0  0  0  0  0  0
   -2.4926    0.9629    2.3207 O   0  0  0  0  0  0  0  0  0  0  0  0
   -2.8002    2.4582    0.5221 O   0  0  0  0  0  0  0  0  0  0  0  0
   -0.8161   -3.5026    2.6785 C   0  0  0  0  0  0  0  0  0  0  0  0
   -6.2376    5.6091    1.7881 C   0  0  0  0  0  0  0  0  0  0  0  0
   -8.9689   -2.5162   -2.3345 C   0  0  0  0  0  0  0  0  0  0  0  0
   -1.7861    1.8677    1.4012 B   0  0  0  0  0  0  0  0  0  0  0  0
    7.8159    3.4277    3.1561 O   0  0  0  0  0  0  0  0  0  0  0  0
    8.0347    1.1923    3.1552 O   0  0  0  0  0  0  0  0  0  0  0  0
    9.4494    1.3497    3.2278 C   0  0  0  0  0  0  0  0  0  0  0  0
   -0.6576   -3.3881   -0.7577 O   0  0  0  0  0  0  0  0  0  0  0  0
   -0.9982   -4.6581   -1.2940 C   0  0  0  0  0  0  0  0  0  0  0  0
    1.2216   -4.2784    0.0715 O   0  0  0  0  0  0  0  0  0  0  0  0
    0.1101   -3.1223    3.3498 O   0  0  0  0  0  0  0  0  0  0  0  0
   -0.9724   -4.7629    2.2682 O   0  0  0  0  0  0  0  0  0  0  0  0
    0.0826   -5.6696    2.5807 C   0  0  0  0  0  0  0  0  0  0  0  0
   -9.8805   -1.9266   -2.8503 O   0  0  0  0  0  0  0  0  0  0  0  0
   -8.8176   -3.8477   -2.3958 O   0  0  0  0  0  0  0  0  0  0  0  0
   -9.8217   -4.5478   -3.1195 C   0  0  0  0  0  0  0  0  0  0  0  0
   -7.3809    5.9825    1.7844 O   0  0  0  0  0  0  0  0  0  0  0  0
   -5.1973    6.4092    2.0520 O   0  0  0  0  0  0  0  0  0  0  0  0
   -5.5364    7.7528    2.3666 C   0  0  0  0  0  0  0  0  0  0  0  0
    0.6095    7.8061   -0.5522 O   0  0  0  0  0  0  0  0  0  0  0  0
   -1.3916    7.3211    0.3330 O   0  0  0  0  0  0  0  0  0  0  0  0
   -1.9084    8.5131   -0.2394 C   0  0  0  0  0  0  0  0  0  0  0  0
   -9.8592   -4.1946   -4.1516 H   0  0  0  0  0  0  0  0  0  0  0  0
  -10.7984   -4.3888   -2.6588 H   0  0  0  0  0  0  0  0  0  0  0  0
   -9.5466   -5.5987   -3.0832 H   0  0  0  0  0  0  0  0  0  0  0  0
   -4.5956    8.2745    2.5283 H   0  0  0  0  0  0  0  0  0  0  0  0
   -6.1616    7.7730    3.2618 H   0  0  0  0  0  0  0  0  0  0  0  0
   -6.0910    8.2057    1.5419 H   0  0  0  0  0  0  0  0  0  0  0  0
   -2.9768    8.5086   -0.0377 H   0  0  0  0  0  0  0  0  0  0  0  0
   -1.7201    8.5293   -1.3145 H   0  0  0  0  0  0  0  0  0  0  0  0
   -1.4338    9.3873    0.2118 H   0  0  0  0  0  0  0  0  0  0  0  0
   -0.3636   -6.6592    2.6504 H   0  0  0  0  0  0  0  0  0  0  0  0
    0.5568   -5.3800    3.5183 H   0  0  0  0  0  0  0  0  0  0  0  0
    0.8252   -5.6391    1.7797 H   0  0  0  0  0  0  0  0  0  0  0  0
   -1.0870   -5.3929   -0.4911 H   0  0  0  0  0  0  0  0  0  0  0  0
   -0.2312   -4.9927   -1.9957 H   0  0  0  0  0  0  0  0  0  0  0  0
   -1.9510   -4.5246   -1.7995 H   0  0  0  0  0  0  0  0  0  0  0  0
    9.8694    0.3542    3.1122 H   0  0  0  0  0  0  0  0  0  0  0  0
    9.7212    1.7768    4.1954 H   0  0  0  0  0  0  0  0  0  0  0  0
    9.7976    2.0125    2.4338 H   0  0  0  0  0  0  0  0  0  0  0  0
   -9.0345   -0.0783   -1.2594 H   0  0  0  0  0  0  0  0  0  0  0  0
   -6.5356   -3.5472   -1.5630 H   0  0  0  0  0  0  0  0  0  0  0  0
   -7.8277    3.5507    1.1358 H   0  0  0  0  0  0  0  0  0  0  0  0
   -2.9477   -4.0499    0.9929 H   0  0  0  0  0  0  0  0  0  0  0  0
   -3.7084    4.6174    1.4322 H   0  0  0  0  0  0  0  0  0  0  0  0
   -1.0638   -0.8870    3.1859 H   0  0  0  0  0  0  0  0  0  0  0  0
   -1.6246    5.0529    1.1126 H   0  0  0  0  0  0  0  0  0  0  0  0
   -0.9911   -1.0556   -0.3747 H   0  0  0  0  0  0  0  0  0  0  0  0
    2.5379   -2.5612    1.5085 H   0  0  0  0  0  0  0  0  0  0  0  0
    2.4271    6.3191    0.6555 H   0  0  0  0  0  0  0  0  0  0  0  0
    5.5185    4.2019    3.3792 H   0  0  0  0  0  0  0  0  0  0  0  0
    5.9027    0.0318    2.5921 H   0  0  0  0  0  0  0  0  0  0  0  0
    0.4367    4.1220    5.5067 C   0  0  0  0  0  0  0  0  0  0  0  0
    0.8756    2.8819    5.9464 C   0  0  0  0  0  0  0  0  0  0  0  0
    2.1859    2.4399    5.6486 C   0  0  0  0  0  0  0  0  0  0  0  0
    3.0478    3.3586    4.9879 C   0  0  0  0  0  0  0  0  0  0  0  0
    2.5888    4.6027    4.5682 C   0  0  0  0  0  0  0  0  0  0  0  0
    1.2699    4.9651    4.7887 C   0  0  0  0  0  0  0  0  0  0  0  0
    2.7217    1.1635    6.0672 C   0  0  0  0  0  0  0  0  0  0  0  0
    4.1255    1.1821    6.2633 C   0  0  0  0  0  0  0  0  0  0  0  0
    4.9514    2.1586    5.6533 C   0  0  0  0  0  0  0  0  0  0  0  0
    4.3722    3.0268    4.7606 N   0  0  0  0  0  0  0  0  0  0  0  0
    2.0509   -0.0701    6.3338 C   0  0  0  0  0  0  0  0  0  0  0  0
    2.8172   -1.0644    7.0557 C   0  0  0  0  0  0  0  0  0  0  0  0
    4.0623   -0.8832    7.4736 N   0  0  0  0  0  0  0  0  0  0  0  0
    4.7495    0.1701    7.0528 C   0  0  0  0  0  0  0  0  0  0  0  0
    6.1246    0.2504    7.3441 C   0  0  0  0  0  0  0  0  0  0  0  0
    6.8864    1.2590    6.7931 C   0  0  0  0  0  0  0  0  0  0  0  0
    6.3105    2.1961    5.9284 C   0  0  0  0  0  0  0  0  0  0  0  0
    0.7698   -0.4906    5.8546 C   0  0  0  0  0  0  0  0  0  0  0  0
    0.3835   -1.8293    5.9930 C   0  0  0  0  0  0  0  0  0  0  0  0
    1.1289   -2.7586    6.7217 C   0  0  0  0  0  0  0  0  0  0  0  0
    2.2990   -2.3553    7.3134 C   0  0  0  0  0  0  0  0  0  0  0  0
    0.0549    2.1249    6.6757 O   0  0  0  0  0  0  0  0  0  0  0  0
   -0.0789    0.2833    5.1862 O   0  0  0  0  0  0  0  0  0  0  0  0
    0.7717    6.2484    4.2264 C   0  0  0  0  0  0  0  0  0  0  0  0
    0.6971   -4.1761    6.8599 C   0  0  0  0  0  0  0  0  0  0  0  0
    8.3490    1.3552    7.0499 C   0  0  0  0  0  0  0  0  0  0  0  0
   -1.7363   -1.3269    7.8068 C   0  0  0  0  0  0  0  0  0  0  0  0
   -2.2196   -0.4707    6.8218 C   0  0  0  0  0  0  0  0  0  0  0  0
   -3.0927   -0.9444    5.8064 C   0  0  0  0  0  0  0  0  0  0  0  0
   -3.3070   -2.3728    5.7956 C   0  0  0  0  0  0  0  0  0  0  0  0
   -2.7734   -3.2185    6.8012 C   0  0  0  0  0  0  0  0  0  0  0  0
   -2.0329   -2.6941    7.8274 C   0  0  0  0  0  0  0  0  0  0  0  0
   -3.8743   -0.1353    4.9035 C   0  0  0  0  0  0  0  0  0  0  0  0
   -4.8526   -0.8542    4.1701 C   0  0  0  0  0  0  0  0  0  0  0  0
   -4.8325   -2.2781    4.1042 C   0  0  0  0  0  0  0  0  0  0  0  0
   -4.0473   -3.0040    4.8911 N   0  0  0  0  0  0  0  0  0  0  0  0
   -3.9262    1.3047    4.7622 C   0  0  0  0  0  0  0  0  0  0  0  0
   -5.2057    1.8324    4.3208 C   0  0  0  0  0  0  0  0  0  0  0  0
   -6.1397    1.1136    3.7189 N   0  0  0  0  0  0  0  0  0  0  0  0
   -5.9342   -0.1865    3.5294 C   0  0  0  0  0  0  0  0  0  0  0  0
   -6.8734   -0.9088    2.7752 C   0  0  0  0  0  0  0  0  0  0  0  0
   -6.7429   -2.2834    2.6073 C   0  0  0  0  0  0  0  0  0  0  0  0
   -5.7292   -2.9649    3.2584 C   0  0  0  0  0  0  0  0  0  0  0  0
   -2.9005    2.2897    4.9051 C   0  0  0  0  0  0  0  0  0  0  0  0
   -3.2548    3.6433    4.9530 C   0  0  0  0  0  0  0  0  0  0  0  0
   -4.5692    4.0984    4.8364 C   0  0  0  0  0  0  0  0  0  0  0  0
   -5.5378    3.2010    4.4665 C   0  0  0  0  0  0  0  0  0  0  0  0
   -1.8195    0.7908    6.9009 O   0  0  0  0  0  0  0  0  0  0  0  0
   -1.6008    2.0590    4.9133 O   0  0  0  0  0  0  0  0  0  0  0  0
   -1.4330   -3.5007    8.9265 C   0  0  0  0  0  0  0  0  0  0  0  0
   -4.9473    5.5076    5.1169 C   0  0  0  0  0  0  0  0  0  0  0  0
   -7.7468   -2.9851    1.7604 C   0  0  0  0  0  0  0  0  0  0  0  0
   -0.8867    1.3159    5.9100 B   0  0  0  0  0  0  0  0  0  0  0  0
    9.1074    2.0284    6.3959 O   0  0  0  0  0  0  0  0  0  0  0  0
    8.7334    0.6045    8.0833 O   0  0  0  0  0  0  0  0  0  0  0  0
   10.1198    0.6294    8.3927 C   0  0  0  0  0  0  0  0  0  0  0  0
   -0.2501   -4.5123    5.9812 O   0  0  0  0  0  0  0  0  0  0  0  0
   -0.6990   -5.8611    6.0271 C   0  0  0  0  0  0  0  0  0  0  0  0
    1.1618   -4.9529    7.6582 O   0  0  0  0  0  0  0  0  0  0  0  0
   -0.6982   -3.0391    9.7617 O   0  0  0  0  0  0  0  0  0  0  0  0
   -1.7865   -4.7885    8.8817 O   0  0  0  0  0  0  0  0  0  0  0  0
   -1.1653   -5.6267    9.8529 C   0  0  0  0  0  0  0  0  0  0  0  0
   -8.6735   -2.4312    1.2210 O   0  0  0  0  0  0  0  0  0  0  0  0
   -7.5102   -4.2931    1.6645 O   0  0  0  0  0  0  0  0  0  0  0  0
   -8.4378   -5.0399    0.8867 C   0  0  0  0  0  0  0  0  0  0  0  0
   -6.0431    5.9707    4.9209 O   0  0  0  0  0  0  0  0  0  0  0  0
   -3.9506    6.2009    5.6796 O   0  0  0  0  0  0  0  0  0  0  0  0
   -4.2720    7.5147    6.1139 C   0  0  0  0  0  0  0  0  0  0  0  0
    1.4671    7.0838    3.7057 O   0  0  0  0  0  0  0  0  0  0  0  0
   -0.5549    6.3533    4.3451 O   0  0  0  0  0  0  0  0  0  0  0  0
   -1.1613    7.5091    3.7853 C   0  0  0  0  0  0  0  0  0  0  0  0
   -8.4120   -4.7125   -0.1542 H   0  0  0  0  0  0  0  0  0  0  0  0
   -9.4495   -4.9033    1.2741 H   0  0  0  0  0  0  0  0  0  0  0  0
   -8.1321   -6.0794    0.9711 H   0  0  0  0  0  0  0  0  0  0  0  0
   -3.4146    7.8656    6.6830 H   0  0  0  0  0  0  0  0  0  0  0  0
   -5.1656    7.4961    6.7415 H   0  0  0  0  0  0  0  0  0  0  0  0
   -4.4614    8.1695    5.2604 H   0  0  0  0  0  0  0  0  0  0  0  0
   -2.1252    7.6102    4.2764 H   0  0  0  0  0  0  0  0  0  0  0  0
   -1.2969    7.3730    2.7110 H   0  0  0  0  0  0  0  0  0  0  0  0
   -0.5366    8.3874    3.9619 H   0  0  0  0  0  0  0  0  0  0  0  0
   -1.6738   -6.5861    9.7985 H   0  0  0  0  0  0  0  0  0  0  0  0
   -1.2660   -5.1900   10.8476 H   0  0  0  0  0  0  0  0  0  0  0  0
   -0.1043   -5.7327    9.6146 H   0  0  0  0  0  0  0  0  0  0  0  0
   -1.1784   -6.0650    6.9856 H   0  0  0  0  0  0  0  0  0  0  0  0
    0.1424   -6.5463    5.9009 H   0  0  0  0  0  0  0  0  0  0  0  0
   -1.4127   -5.9686    5.2144 H   0  0  0  0  0  0  0  0  0  0  0  0
   10.2354    0.0643    9.3136 H   0  0  0  0  0  0  0  0  0  0  0  0
   10.4608    1.6580    8.5255 H   0  0  0  0  0  0  0  0  0  0  0  0
   10.6959    0.1699    7.5867 H   0  0  0  0  0  0  0  0  0  0  0  0
   -7.7131   -0.3845    2.3455 H   0  0  0  0  0  0  0  0  0  0  0  0
   -5.6391   -4.0360    3.1839 H   0  0  0  0  0  0  0  0  0  0  0  0
   -6.5498    3.5073    4.2564 H   0  0  0  0  0  0  0  0  0  0  0  0
   -3.0189   -4.2650    6.7419 H   0  0  0  0  0  0  0  0  0  0  0  0
   -2.4600    4.3578    5.0870 H   0  0  0  0  0  0  0  0  0  0  0  0
   -1.1103   -0.9074    8.5799 H   0  0  0  0  0  0  0  0  0  0  0  0
   -0.5686    4.4145    5.7486 H   0  0  0  0  0  0  0  0  0  0  0  0
   -0.5057   -2.1473    5.4764 H   0  0  0  0  0  0  0  0  0  0  0  0
    2.8935   -3.0349    7.9025 H   0  0  0  0  0  0  0  0  0  0  0  0
    3.2493    5.3020    4.0814 H   0  0  0  0  0  0  0  0  0  0  0  0
    6.9345    2.9712    5.5138 H   0  0  0  0  0  0  0  0  0  0  0  0
    6.5611   -0.5079    7.9719 H   0  0  0  0  0  0  0  0  0  0  0  0
  1  2  2  0  0  0  0
  1 96  1  0  0  0  0
  2  3  1  0  0  0  0
  3  4  2  0  0  0  0
  3  7  1  0  0  0  0
  4  5  1  0  0  0  0
  5  6  2  0  0  0  0
  5 99  1  0  0  0  0
  6  1  1  0  0  0  0
  6 24  1  0  0  0  0
  7  8  1  0  0  0  0
  7 11  2  0  0  0  0
  8  9  1  0  0  0  0
  9 10  2  0  0  0  0
 10  4  1  0  0  0  0
 11 12  1  0  0  0  0
 11 18  1  0  0  0  0
 12 13  2  0  0  0  0
 13 14  1  0  0  0  0
 14  8  1  0  0  0  0
 14 15  2  0  0  0  0
 15 16  1  0  0  0  0
 15101  1  0  0  0  0
 16 17  2  0  0  0  0
 16 26  1  0  0  0  0
 17  9  1  0  0  0  0
 17100  1  0  0  0  0
 18 19  2  0  0  0  0
 19 20  1  0  0  0  0
 19 97  1  0  0  0  0
 20 21  2  0  0  0  0
 20 25  1  0  0  0  0
 21 12  1  0  0  0  0
 21 98  1  0  0  0  0
 22  2  1  0  0  0  0
 23 18  1  0  0  0  0
 24 69  2  0  0  0  0
 24 70  1  0  0  0  0
 25 57  1  0  0  0  0
 25 59  2  0  0  0  0
 26 54  2  0  0  0  0
 26 55  1  0  0  0  0
 27 28  2  0  0  0  0
 27 95  1  0  0  0  0
 28 29  1  0  0  0  0
 28 48  1  0  0  0  0
 29 30  2  0  0  0  0
 29 33  1  0  0  0  0
 30 31  1  0  0  0  0
 31 32  2  0  0  0  0
 31 93  1  0  0  0  0
 32 27  1  0  0  0  0
 32 50  1  0  0  0  0
 33 37  2  0  0  0  0
 34 33  1  0  0  0  0
 34 35  1  0  0  0  0
 35 36  2  0  0  0  0
 36 30  1  0  0  0  0
 37 38  1  0  0  0  0
 37 44  1  0  0  0  0
 38 39  2  0  0  0  0
 39 40  1  0  0  0  0
 40 34  1  0  0  0  0
 40 41  2  0  0  0  0
 41 42  1  0  0  0  0
 41 90  1  0  0  0  0
 42 43  2  0  0  0  0
 42 52  1  0  0  0  0
 43 35  1  0  0  0  0
 43 91  1  0  0  0  0
 44 45  2  0  0  0  0
 44 49  1  0  0  0  0
 45 46  1  0  0  0  0
 45 94  1  0  0  0  0
 46 47  2  0  0  0  0
 46 51  1  0  0  0  0
 47 38  1  0  0  0  0
 47 92  1  0  0  0  0
 50 60  2  0  0  0  0
 50 61  1  0  0  0  0
 51 66  2  0  0  0  0
 51 67  1  0  0  0  0
 52 63  2  0  0  0  0
 52 64  1  0  0  0  0
 53 49  1  0  0  0  0
 53 22  1  0  0  0  0
 53 48  1  0  0  0  0
 53 23  1  0  0  0  0
 55 56  1  0  0  0  0
 56 87  1  0  0  0  0
 56 88  1  0  0  0  0
 56 89  1  0  0  0  0
 57 58  1  0  0  0  0
 58 84  1  0  0  0  0
 58 85  1  0  0  0  0
 58 86  1  0  0  0  0
 61 62  1  0  0  0  0
 62 81  1  0  0  0  0
 62 82  1  0  0  0  0
 62 83  1  0  0  0  0
 64 65  1  0  0  0  0
 65 72  1  0  0  0  0
 65 73  1  0  0  0  0
 65 74  1  0  0  0  0
 67 68  1  0  0  0  0
 68 75  1  0  0  0  0
 68 76  1  0  0  0  0
 68 77  1  0  0  0  0
 70 71  1  0  0  0  0
 71 78  1  0  0  0  0
 71 79  1  0  0  0  0
 71 80  1  0  0  0  0
102103  2  0  0  0  0
102197  1  0  0  0  0
103104  1  0  0  0  0
104105  2  0  0  0  0
104108  1  0  0  0  0
105106  1  0  0  0  0
106107  2  0  0  0  0
106200  1  0  0  0  0
107102  1  0  0  0  0
107125  1  0  0  0  0
108109  1  0  0  0  0
108112  2  0  0  0  0
109110  1  0  0  0  0
110111  2  0  0  0  0
111105  1  0  0  0  0
112113  1  0  0  0  0
112119  1  0  0  0  0
113114  2  0  0  0  0
114115  1  0  0  0  0
115109  1  0  0  0  0
115116  2  0  0  0  0
116117  1  0  0  0  0
116202  1  0  0  0  0
117118  2  0  0  0  0
117127  1  0  0  0  0
118110  1  0  0  0  0
118201  1  0  0  0  0
119120  2  0  0  0  0
120121  1  0  0  0  0
120198  1  0  0  0  0
121122  2  0  0  0  0
121126  1  0  0  0  0
122113  1  0  0  0  0
122199  1  0  0  0  0
123103  1  0  0  0  0
124119  1  0  0  0  0
125170  2  0  0  0  0
125171  1  0  0  0  0
126158  1  0  0  0  0
126160  2  0  0  0  0
127155  2  0  0  0  0
127156  1  0  0  0  0
128129  2  0  0  0  0
128196  1  0  0  0  0
129130  1  0  0  0  0
129149  1  0  0  0  0
130131  2  0  0  0  0
130134  1  0  0  0  0
131132  1  0  0  0  0
132133  2  0  0  0  0
132194  1  0  0  0  0
133128  1  0  0  0  0
133151  1  0  0  0  0
134138  2  0  0  0  0
135134  1  0  0  0  0
135136  1  0  0  0  0
136137  2  0  0  0  0
137131  1  0  0  0  0
138139  1  0  0  0  0
138145  1  0  0  0  0
139140  2  0  0  0  0
140141  1  0  0  0  0
141135  1  0  0  0  0
141142  2  0  0  0  0
142143  1  0  0  0  0
142191  1  0  0  0  0
143144  2  0  0  0  0
143153  1  0  0  0  0
144136  1  0  0  0  0
144192  1  0  0  0  0
145146  2  0  0  0  0
145150  1  0  0  0  0
146147  1  0  0  0  0
146195  1  0  0  0  0
147148  2  0  0  0  0
147152  1  0  0  0  0
148139  1  0  0  0  0
148193  1  0  0  0  0
151161  2  0  0  0  0
151162  1  0  0  0  0
152167  2  0  0  0  0
152168  1  0  0  0  0
153164  2  0  0  0  0
153165  1  0  0  0  0
154150  1  0  0  0  0
154123  1  0  0  0  0
154149  1  0  0  0  0
154124  1  0  0  0  0
156157  1  0  0  0  0
157188  1  0  0  0  0
157189  1  0  0  0  0
157190  1  0  0  0  0
158159  1  0  0  0  0
159185  1  0  0  0  0
159186  1  0  0  0  0
159187  1  0  0  0  0
162163  1  0  0  0  0
163182  1  0  0  0  0
163183  1  0  0  0  0
163184  1  0  0  0  0
165166  1  0  0  0  0
166173  1  0  0  0  0
166174  1  0  0  0  0
166175  1  0  0  0  0
168169  1  0  0  0  0
169176  1  0  0  0  0
169177  1  0  0  0  0
169178  1  0  0  0  0
171172  1  0  0  0  0
172179  1  0  0  0  0
172180  1  0  0  0  0
172181  1  0  0  0  0
M  CHG  1   8   1
M  CHG  1  53  -1
M  CHG  1 109   1
M  CHG  1 154  -1
M  END

 Bond Distances (Angstroems)
 ---------------------------
C1-C2=1.3886         C1-C6=1.3944         C1-H96=1.0771        C2-C1=1.3886         C2-C3=1.4185         C2-O22=1.3373        
C3-C2=1.4185         C3-C4=1.4343         C3-C7=1.4466         C4-C3=1.4343         C4-C5=1.3977         C4-N10=1.3544        
C5-C4=1.3977         C5-C6=1.3804         C5-H99=1.0774        C6-C1=1.3944         C6-C5=1.3804         C6-C24=1.4843        
C7-C3=1.4466         C7-C8=1.4112         C7-C11=1.4422        C8-C7=1.4112         C8-C9=1.4248         C8-C14=1.4244        
C9-C8=1.4248         C9-N10=1.2878        C9-C17=1.5078        N10-C4=1.3544        N10-C9=1.2878        C11-C7=1.4422        
C11-C12=1.4379       C11-C18=1.4312       C12-C11=1.4379       C12-N13=1.3466       C12-C21=1.4051       N13-C12=1.3466       
N13-C14=1.3008       C14-C8=1.4244        C14-N13=1.3008       C14-C15=1.4513       C15-C14=1.4513       C15-C16=1.3416       
C15-H101=1.0784      C16-C15=1.3416       C16-C17=1.5098       C16-C26=1.4842       C17-C9=1.5078        C17-C16=1.5098       
C17-H100=1.0947      C17-N111=1.4811      C18-C11=1.4312       C18-C19=1.3957       C18-O23=1.3279       C19-C18=1.3957       
C19-C20=1.3924       C19-H97=1.0789       C20-C19=1.3924       C20-C21=1.3754       C20-C25=1.4824       C21-C12=1.4051       
C21-C20=1.3754       C21-H98=1.0776       O22-C2=1.3373        O22-B53=1.4330       O23-C18=1.3279       O23-B53=1.4687       
C24-C6=1.4843        C24-O69=1.2032       C24-O70=1.3463       C25-C20=1.4824       C25-O57=1.3376       C25-O59=1.2081       
C26-C16=1.4842       C26-O54=1.2065       C26-O55=1.3313       C27-C28=1.3936       C27-C32=1.4000       C27-H95=1.0815       
C28-C27=1.3936       C28-C29=1.4214       C28-O48=1.3290       C29-C28=1.4214       C29-C30=1.4437       C29-C33=1.4421       
C30-C29=1.4437       C30-C31=1.4152       C30-N36=1.3291       C31-C30=1.4152       C31-C32=1.3698       C31-H93=1.0766       
C32-C27=1.4000       C32-C31=1.3698       C32-C50=1.4890       C33-C29=1.4421       C33-C34=1.4158       C33-C37=1.4445       
C34-C33=1.4158       C34-C35=1.4245       C34-C40=1.4260       C35-C34=1.4245       C35-N36=1.3270       C35-C43=1.4114       
N36-C30=1.3291       N36-C35=1.3270       C37-C33=1.4445       C37-C38=1.4500       C37-C44=1.4233       C38-C37=1.4500       
C38-N39=1.3234       C38-C47=1.4144       N39-C38=1.3234       N39-C40=1.3300       C40-C34=1.4260       C40-N39=1.3300       
C40-C41=1.4046       C41-C40=1.4046       C41-C42=1.3905       C41-H90=1.0785       C42-C41=1.3905       C42-C43=1.3841       
C42-C52=1.4900       C43-C35=1.4114       C43-C42=1.3841       C43-H91=1.0785       C44-C37=1.4233       C44-C45=1.3971       
C44-O49=1.3258       C45-C44=1.3971       C45-C46=1.3963       C45-H94=1.0778       C46-C45=1.3963       C46-C47=1.3727       
C46-C51=1.4908       C47-C38=1.4144       C47-C46=1.3727       C47-H92=1.0779       O48-C28=1.3290       O48-B53=1.4708       
O49-C44=1.3258       O49-B53=1.4662       C50-C32=1.4890       C50-O60=1.2054       C50-O61=1.3346       C51-C46=1.4908       
C51-O66=1.2028       C51-O67=1.3386       C52-C42=1.4900       C52-O63=1.2020       C52-O64=1.3414       B53-O22=1.4330       
B53-O23=1.4687       B53-O48=1.4708       B53-O49=1.4662       O54-C26=1.2065       O55-C26=1.3313       O55-C56=1.4252       
C56-O55=1.4252       C56-H87=1.0867       C56-H88=1.0920       C56-H89=1.0913       O57-C25=1.3376       O57-C58=1.4200       
C58-O57=1.4200       C58-H84=1.0920       C58-H85=1.0921       C58-H86=1.0868       O59-C25=1.2081       O60-C50=1.2054       
O61-C50=1.3346       O61-C62=1.4257       C62-O61=1.4257       C62-H81=1.0878       C62-H82=1.0899       C62-H83=1.0928       
O63-C52=1.2020       O64-C52=1.3414       O64-C65=1.4220       C65-O64=1.4220       C65-H72=1.0915       C65-H73=1.0916       
C65-H74=1.0869       O66-C51=1.2028       O67-C51=1.3386       O67-C68=1.4210       C68-O67=1.4210       C68-H75=1.0878       
C68-H76=1.0921       C68-H77=1.0922       O69-C24=1.2032       O70-C24=1.3463       O70-C71=1.4198       C71-O70=1.4198       
C71-H78=1.0872       C71-H79=1.0916       C71-H80=1.0922       H72-C65=1.0915       H73-C65=1.0916       H74-C65=1.0869       
H75-C68=1.0878       H76-C68=1.0921       H77-C68=1.0922       H78-C71=1.0872       H79-C71=1.0916       H80-C71=1.0922       
H81-C62=1.0878       H82-C62=1.0899       H83-C62=1.0928       H84-C58=1.0920       H85-C58=1.0921       H86-C58=1.0868       
H87-C56=1.0867       H88-C56=1.0920       H89-C56=1.0913       H90-C41=1.0785       H91-C43=1.0785       H92-C47=1.0779       
H93-C31=1.0766       H94-C45=1.0778       H95-C27=1.0815       H96-C1=1.0771        H97-C19=1.0789       H98-C21=1.0776       
[...]
   168   8 O    2.311 --   152 C    1.128   169 C    0.957   167 O    0.173
   169   6 C    3.922 --   176 H    0.980   177 H    0.975   178 H    0.974
                           168 O    0.957
   170   8 O    2.035 --   125 C    1.730   171 O    0.176
   171   8 O    2.314 --   125 C    1.132   172 C    0.953   170 O    0.176
   172   6 C    3.919 --   179 H    0.978   181 H    0.976   180 H    0.969
                           171 O    0.953
   173   1 H    0.994 --   166 C    0.970
   174   1 H    0.995 --   166 C    0.976
   175   1 H    0.994 --   166 C    0.981
   176   1 H    0.994 --   169 C    0.980
   177   1 H    0.995 --   169 C    0.975
   178   1 H    0.996 --   169 C    0.974
   179   1 H    0.994 --   172 C    0.978
   180   1 H    0.995 --   172 C    0.969
   181   1 H    0.995 --   172 C    0.976
   182   1 H    0.995 --   163 C    0.982
   183   1 H    0.995 --   163 C    0.976
   184   1 H    0.992 --   163 C    0.969
   185   1 H    0.994 --   159 C    0.969
   186   1 H    0.995 --   159 C    0.975
   187   1 H    0.994 --   159 C    0.980
   188   1 H    0.994 --   157 C    0.981
   189   1 H    0.995 --   157 C    0.976
   190   1 H    0.995 --   157 C    0.976
   191   1 H    0.990 --   142 C    0.957
   192   1 H    0.991 --   144 C    0.959
   193   1 H    0.990 --   148 C    0.956
   194   1 H    0.992 --   132 C    0.959
   195   1 H    0.990 --   146 C    0.950
   196   1 H    0.991 --   128 C    0.959
   197   1 H    0.992 --   102 C    0.952
   198   1 H    0.993 --   120 C    0.956
   199   1 H    0.989 --   122 C    0.957
   200   1 H    0.991 --   106 C    0.957
   201   1 H    0.992 --   118 C    0.956
   202   1 H    0.991 --   116 C    0.960
 ---------------------------------------------------------------------------

Topologies differ in total number of bonds
Writing corrected topology to xtbtopo.mol

molecular dipole:
                 x           y           z       tot (Debye)
 q only:       -0.582      -4.287       0.424
   full:       -0.597      -4.050       0.320      10.437
molecular quadrupole (traceless):
                xx          xy          yy          xz          yz          zz
 q only:       -1.538      28.075      42.454      39.181       1.481     -40.916
  q+dip:      -19.418      31.271      46.135      29.237      11.164     -26.717
   full:      -26.966      31.746      33.411      15.384      12.982      -6.446

           -------------------------------------------------
          |                Geometry Summary                 |
           -------------------------------------------------

      molecular mass/u    :     1907.2066742
   center of mass at/Å    :       -1.0787690       0.6972269       3.3169665
  moments of inertia/u·Å² :        0.3508606E+05   0.5533606E+05   0.6838103E+05
rotational constants/cm⁻¹ :        0.4804652E-03   0.3046410E-03   0.2465250E-03

 * 198 selected distances

     #   Z          #   Z                                           value/Å
     1   6 C        2   6 C                                       1.3886437
     2   6 C        3   6 C                                       1.4184988
     3   6 C        4   6 C                                       1.4342912
     4   6 C        5   6 C                                       1.3976751
     1   6 C        6   6 C                                       1.3944480
     5   6 C        6   6 C                                       1.3803891
     7   6 C        8   6 C                                       1.4111598
     8   6 C        9   6 C                                       1.4248055
     4   6 C       10   7 N                                       1.3543881
     9   6 C       10   7 N                                       1.2877943
    11   6 C       12   6 C                                       1.4379372
    12   6 C       13   7 N                                       1.3466115
     8   6 C       14   6 C                                       1.4244384
    13   7 N       14   6 C                                       1.3007615
    15   6 C       16   6 C                                       1.3416002
    11   6 C       18   6 C                                       1.4311586
    18   6 C       19   6 C                                       1.3957319
    19   6 C       20   6 C                                       1.3923976
    12   6 C       21   6 C                                       1.4051135
    20   6 C       21   6 C                                       1.3753583
     2   6 C       22   8 O                                       1.3373467
    18   6 C       23   8 O                                       1.3278992
    27   6 C       28   6 C                                       1.3935716
    28   6 C       29   6 C                                       1.4214311
    30   6 C       31   6 C                                       1.4152379
    27   6 C       32   6 C                                       1.3999512
    31   6 C       32   6 C                                       1.3697679
    33   6 C       34   6 C                                       1.4157607
    34   6 C       35   6 C                                       1.4244670
    30   6 C       36   7 N                                       1.3291300
    35   6 C       36   7 N                                       1.3269568
    38   6 C       39   7 N                                       1.3234124
    34   6 C       40   6 C                                       1.4259967
    39   7 N       40   6 C                                       1.3299996
    40   6 C       41   6 C                                       1.4045866
    41   6 C       42   6 C                                       1.3904787
    35   6 C       43   6 C                                       1.4113840
    42   6 C       43   6 C                                       1.3840672
    37   6 C       44   6 C                                       1.4232590
    44   6 C       45   6 C                                       1.3970550
    45   6 C       46   6 C                                       1.3962998
    38   6 C       47   6 C                                       1.4143583
    46   6 C       47   6 C                                       1.3727500
    28   6 C       48   8 O                                       1.3289919
    44   6 C       49   8 O                                       1.3258198
    22   8 O       53   5 B                                       1.4330242
    23   8 O       53   5 B                                       1.4687153
    48   8 O       53   5 B                                       1.4708427
    49   8 O       53   5 B                                       1.4662130
    26   6 C       54   8 O                                       1.2065269
    26   6 C       55   8 O                                       1.3313477
    55   8 O       56   6 C                                       1.4251853
    25   6 C       57   8 O                                       1.3376241
    57   8 O       58   6 C                                       1.4199998
    25   6 C       59   8 O                                       1.2080973
    50   6 C       60   8 O                                       1.2054234
    50   6 C       61   8 O                                       1.3345659
    61   8 O       62   6 C                                       1.4257494
    52   6 C       63   8 O                                       1.2019788
    52   6 C       64   8 O                                       1.3414269
    64   8 O       65   6 C                                       1.4219715
    51   6 C       66   8 O                                       1.2027991
    51   6 C       67   8 O                                       1.3385976
    67   8 O       68   6 C                                       1.4210188
    24   6 C       69   8 O                                       1.2032091
    24   6 C       70   8 O                                       1.3463114
    70   8 O       71   6 C                                       1.4197562
    65   6 C       72   1 H                                       1.0915168
    65   6 C       73   1 H                                       1.0915640
    65   6 C       74   1 H                                       1.0868944
    68   6 C       75   1 H                                       1.0878489
    68   6 C       76   1 H                                       1.0921223
    68   6 C       77   1 H                                       1.0921781
    71   6 C       78   1 H                                       1.0872288
    71   6 C       79   1 H                                       1.0916012
    71   6 C       80   1 H                                       1.0922416
    62   6 C       81   1 H                                       1.0877873
    62   6 C       82   1 H                                       1.0898896
    62   6 C       83   1 H                                       1.0927794
    58   6 C       84   1 H                                       1.0919705
    58   6 C       85   1 H                                       1.0921118
    58   6 C       86   1 H                                       1.0868193
    56   6 C       87   1 H                                       1.0866565
    56   6 C       88   1 H                                       1.0920430
    56   6 C       89   1 H                                       1.0912744
    41   6 C       90   1 H                                       1.0785196
    43   6 C       91   1 H                                       1.0784730
    47   6 C       92   1 H                                       1.0779210
    31   6 C       93   1 H                                       1.0766374
    45   6 C       94   1 H                                       1.0778203
    27   6 C       95   1 H                                       1.0814906
     1   6 C       96   1 H                                       1.0771429
    19   6 C       97   1 H                                       1.0788858
    21   6 C       98   1 H                                       1.0775895
     5   6 C       99   1 H                                       1.0774077
    17   6 C      100   1 H                                       1.0947082
    15   6 C      101   1 H                                       1.0783769
   102   6 C      103   6 C                                       1.3870569
   103   6 C      104   6 C                                       1.4145623
   104   6 C      105   6 C                                       1.4224414
   105   6 C      106   6 C                                       1.3909316
   102   6 C      107   6 C                                       1.3859057
   106   6 C      107   6 C                                       1.3854185
   108   6 C      109   6 C                                       1.4175261
   109   6 C      110   6 C                                       1.4169518
    17   6 C      111   7 N                                       1.4811121
   105   6 C      111   7 N                                       1.3840820
   110   6 C      111   7 N                                       1.3733408
   108   6 C      112   6 C                                       1.4293188
   113   6 C      114   7 N                                       1.3257981
   109   6 C      115   6 C                                       1.4272069
   114   7 N      115   6 C                                       1.3261457
   115   6 C      116   6 C                                       1.4079251
   116   6 C      117   6 C                                       1.3787959
   110   6 C      118   6 C                                       1.3871798
   117   6 C      118   6 C                                       1.3991023
   112   6 C      119   6 C                                       1.4308963
   119   6 C      120   6 C                                       1.4002109
   120   6 C      121   6 C                                       1.3964386
   113   6 C      122   6 C                                       1.4147099
   121   6 C      122   6 C                                       1.3718352
   103   6 C      123   8 O                                       1.3335803
   119   6 C      124   8 O                                       1.3289213
   128   6 C      129   6 C                                       1.3916957
   129   6 C      130   6 C                                       1.4204496
   131   6 C      132   6 C                                       1.4180671
   128   6 C      133   6 C                                       1.3991136
   132   6 C      133   6 C                                       1.3698930
   134   6 C      135   6 C                                       1.4183524
   135   6 C      136   6 C                                       1.4255642
   131   6 C      137   7 N                                       1.3284041
   136   6 C      137   7 N                                       1.3276766
   139   6 C      140   7 N                                       1.3232974
   135   6 C      141   6 C                                       1.4235065
   140   7 N      141   6 C                                       1.3297842
   141   6 C      142   6 C                                       1.4045058
   142   6 C      143   6 C                                       1.3909686
   136   6 C      144   6 C                                       1.4110540
   143   6 C      144   6 C                                       1.3841621
   138   6 C      145   6 C                                       1.4291808
   145   6 C      146   6 C                                       1.4000331
   146   6 C      147   6 C                                       1.3957399
   139   6 C      148   6 C                                       1.4158762
   147   6 C      148   6 C                                       1.3713002
   129   6 C      149   8 O                                       1.3257960
   145   6 C      150   8 O                                       1.3200663
   123   8 O      154   5 B                                       1.4585838
   124   8 O      154   5 B                                       1.4975480 (max)
   149   8 O      154   5 B                                       1.4586384
   150   8 O      154   5 B                                       1.4337044
   127   6 C      155   8 O                                       1.2066670
   127   6 C      156   8 O                                       1.3338880
   156   8 O      157   6 C                                       1.4207026
   126   6 C      158   8 O                                       1.3350379
   158   8 O      159   6 C                                       1.4222558
   126   6 C      160   8 O                                       1.2068994
   151   6 C      161   8 O                                       1.2043109
   151   6 C      162   8 O                                       1.3361613
   162   8 O      163   6 C                                       1.4253725
   153   6 C      164   8 O                                       1.2068475
   153   6 C      165   8 O                                       1.3326711
   165   8 O      166   6 C                                       1.4223368
   152   6 C      167   8 O                                       1.2056260
   152   6 C      168   8 O                                       1.3381753
   168   8 O      169   6 C                                       1.4205509
   125   6 C      170   8 O                                       1.2052452
   125   6 C      171   8 O                                       1.3360615
   171   8 O      172   6 C                                       1.4202035
   166   6 C      173   1 H                                       1.0915193
   166   6 C      174   1 H                                       1.0919240
   166   6 C      175   1 H                                       1.0868072
   169   6 C      176   1 H                                       1.0872999
   169   6 C      177   1 H                                       1.0920951
   169   6 C      178   1 H                                       1.0923438
   172   6 C      179   1 H                                       1.0865867
   172   6 C      180   1 H                                       1.0912917
   172   6 C      181   1 H                                       1.0921489
   163   6 C      182   1 H                                       1.0871392
   163   6 C      183   1 H                                       1.0909518
   163   6 C      184   1 H                                       1.0926573
   159   6 C      185   1 H                                       1.0909009
   159   6 C      186   1 H                                       1.0924546
   159   6 C      187   1 H                                       1.0869345
   157   6 C      188   1 H                                       1.0866918
   157   6 C      189   1 H                                       1.0917911
   157   6 C      190   1 H                                       1.0920459
   142   6 C      191   1 H                                       1.0791590
   144   6 C      192   1 H                                       1.0774735
   148   6 C      193   1 H                                       1.0780268
   132   6 C      194   1 H                                       1.0766163
   146   6 C      195   1 H                                       1.0771846
   128   6 C      196   1 H                                       1.0796144
   102   6 C      197   1 H                                       1.0745364 (min)
   120   6 C      198   1 H                                       1.0764122
   122   6 C      199   1 H                                       1.0781407
   106   6 C      200   1 H                                       1.0780691
   118   6 C      201   1 H                                       1.0780154
   116   6 C      202   1 H                                       1.0767968

 * 5 distinct bonds (by element types)

   Z      Z             #   av. dist./Å        max./Å        min./Å
   1 H    6 C          60     1.0855522     1.0947082     1.0745364
   6 C    6 C          69     1.4035934     1.4379372     1.3416002
   6 C    7 N          17     1.3410997     1.4811121     1.2877943
   5 B    8 O           8     1.4609087     1.4975480     1.4330242
   6 C    8 O          44     1.3227051     1.4257494     1.2019788


optimized geometry written to: xtbopt.mol


           -------------------------------------------------
          | TOTAL ENERGY             -401.259954771663 Eh   |
          | GRADIENT NORM               0.000611044582 Eh/α |
          | HOMO-LUMO GAP               0.061572572688 eV   |
           -------------------------------------------------
########################################################################
Note: The following floating-point exceptions are signalling: IEEE_UNDERFLOW_FLAG
normal termination of xtb
[WARNING] Runtime exception occurred
-3- restart_readRestart: Dimension missmatch in restart file.
-2- restart_readRestart: Multiplicity missmatch in restart file.
-1- restart_readRestart: Number of electron missmatch in restart file.
########################################################################

------------------------------------------------------------------------
 * finished run on 2024/11/07 at 12:09:13.046     
------------------------------------------------------------------------
 total:
 * wall-time:     0 d,  0 h,  1 min,  4.641 sec
 *  cpu-time:     0 d,  0 h,  3 min, 54.980 sec
 * ratio c/w:     3.635 speedup
 SCF:
 * wall-time:     0 d,  0 h,  0 min,  4.316 sec
 *  cpu-time:     0 d,  0 h,  0 min, 14.586 sec
 * ratio c/w:     3.380 speedup
 ANC optimizer:
 * wall-time:     0 d,  0 h,  1 min,  0.263 sec
 *  cpu-time:     0 d,  0 h,  3 min, 40.300 sec
 * ratio c/w:     3.656 speedup

