202
 energy: -401.098350374339 gnorm: 0.234391013080 xtb: 6.7.1 (edcfbbe)
C           -0.31280000000000        4.50420000000000        0.43130000000000
C            0.15690000000000        3.46750000000000        1.22990000000000
C            1.56750000000000        3.29290000000000        1.40840000000000
C            2.40290000000000        4.39980000000000        1.07570000000000
C            1.86690000000000        5.45910000000000        0.32330000000000
C            0.53800000000000        5.49950000000000       -0.02470000000000
C            2.15820000000000        2.13030000000000        2.01230000000000
C            3.43460000000000        2.34020000000000        2.56270000000000
C            4.12290000000000        3.57100000000000        2.34390000000000
N            3.66200000000000        4.53880000000000        1.53410000000000
C            1.68810000000000        0.76690000000000        1.98210000000000
C            2.47900000000000       -0.20720000000000        2.67240000000000
N            3.54590000000000        0.08810000000000        3.45010000000000
C            4.06030000000000        1.32140000000000        3.33470000000000
C            5.28870000000000        1.59200000000000        3.94690000000000
C            5.93050000000000        2.80100000000000        3.76720000000000
C            5.36200000000000        3.76540000000000        2.96080000000000
C            0.65080000000000        0.26500000000000        1.11190000000000
C            0.58690000000000       -1.09900000000000        0.84870000000000
C            1.37360000000000       -2.02350000000000        1.50870000000000
C            2.25930000000000       -1.57960000000000        2.45390000000000
O           -0.74260000000000        2.70560000000000        1.94330000000000
O           -0.31400000000000        0.99540000000000        0.44420000000000
C           -0.01030000000000        6.67530000000000       -0.73490000000000
C            1.27380000000000       -3.45770000000000        1.16320000000000
C            7.21900000000000        3.08130000000000        4.43200000000000
C           -1.89990000000000       -1.38420000000000        2.32490000000000
C           -2.54980000000000       -0.42060000000000        1.57320000000000
C           -3.43590000000000       -0.80430000000000        0.51540000000000
C           -3.50010000000000       -2.19740000000000        0.20270000000000
C           -2.74710000000000       -3.12160000000000        0.95430000000000
C           -1.98940000000000       -2.72720000000000        2.02840000000000
C           -4.40220000000000        0.07540000000000       -0.08550000000000
C           -5.39820000000000       -0.54560000000000       -0.85660000000000
C           -5.26390000000000       -1.91040000000000       -1.24380000000000
N           -4.31400000000000       -2.71650000000000       -0.74240000000000
C           -4.63040000000000        1.47440000000000        0.18900000000000
C           -5.96970000000000        1.96000000000000        0.07110000000000
N           -6.91700000000000        1.34810000000000       -0.66540000000000
C           -6.58210000000000        0.16880000000000       -1.21660000000000
C           -7.49520000000000       -0.44100000000000       -2.08290000000000
C           -7.30220000000000       -1.72550000000000       -2.55090000000000
C           -6.21270000000000       -2.45620000000000       -2.11600000000000
C           -3.62810000000000        2.44770000000000        0.55300000000000
C           -4.02210000000000        3.60110000000000        1.22950000000000
C           -5.36570000000000        3.93210000000000        1.34840000000000
C           -6.30930000000000        3.16050000000000        0.71380000000000
O           -2.26110000000000        0.86590000000000        1.95080000000000
O           -2.30980000000000        2.31310000000000        0.15260000000000
C           -1.24400000000000       -3.65730000000000        2.89840000000000
C           -5.81070000000000        5.11630000000000        2.11120000000000
C           -8.30320000000000       -2.32930000000000       -3.45740000000000
B           -1.40350000000000        1.71650000000000        1.12410000000000
O            7.77220000000000        4.14610000000000        4.23670000000000
O            7.71110000000000        2.11290000000000        5.25650000000000
C            8.89420000000000        2.56510000000000        5.82970000000000
O            0.44960000000000       -3.75130000000000        0.11470000000000
C            0.43330000000000       -5.12290000000000       -0.10940000000000
O            1.90690000000000       -4.28600000000000        1.78710000000000
O           -0.66000000000000       -3.18750000000000        3.85600000000000
O           -1.22950000000000       -4.98530000000000        2.59210000000000
C           -0.33430000000000       -5.61770000000000        3.45030000000000
O           -9.13510000000000       -1.62330000000000       -3.99300000000000
O           -8.23730000000000       -3.68230000000000       -3.62530000000000
C           -9.21200000000000       -4.08260000000000       -4.53320000000000
O           -7.00270000000000        5.31290000000000        2.25030000000000
O           -4.84900000000000        5.92180000000000        2.64380000000000
C           -5.46480000000000        6.90060000000000        3.41690000000000
O            0.73000000000000        7.40270000000000       -1.36650000000000
O           -1.35330000000000        6.88100000000000       -0.60400000000000
C           -1.71880000000000        8.01300000000000       -1.32260000000000
H           -9.02480000000000       -3.58610000000000       -5.48870000000000
H          -10.19320000000000       -3.78540000000000       -4.15500000000000
H           -9.16460000000000       -5.16670000000000       -4.65570000000000
H           -4.70330000000000        7.51380000000000        3.90270000000000
H           -6.07920000000000        6.40000000000000        4.17310000000000
H           -6.10100000000000        7.51360000000000        2.77360000000000
H           -2.79450000000000        8.17120000000000       -1.21830000000000
H           -1.45860000000000        7.85940000000000       -2.37310000000000
H           -1.16770000000000        8.87170000000000       -0.93060000000000
H           -0.51700000000000       -6.69430000000000        3.44340000000000
H           -0.46900000000000       -5.20290000000000        4.45410000000000
H            0.68250000000000       -5.39430000000000        3.11160000000000
H           -0.08630000000000       -5.60550000000000        0.72130000000000
H            1.46300000000000       -5.48510000000000       -0.16770000000000
H           -0.09160000000000       -5.32240000000000       -1.04600000000000
H            9.25310000000000        1.81960000000000        6.54280000000000
H            8.68970000000000        3.51230000000000        6.34110000000000
H            9.63070000000000        2.72540000000000        5.03830000000000
H           -8.39420000000000        0.08310000000000       -2.35610000000000
H           -6.11230000000000       -3.48110000000000       -2.42390000000000
H           -7.33840000000000        3.47230000000000        0.73840000000000
H           -2.81700000000000       -4.16750000000000        0.71840000000000
H           -3.27580000000000        4.24960000000000        1.65120000000000
H           -1.28950000000000       -1.06310000000000        3.15270000000000
H           -1.36660000000000        4.57320000000000        0.23360000000000
H           -0.13020000000000       -1.44670000000000        0.12740000000000
H            2.87380000000000       -2.29800000000000        2.96660000000000
H            2.49990000000000        6.28690000000000        0.05680000000000
H            5.88330000000000        4.69510000000000        2.81730000000000
H            5.75180000000000        0.83640000000000        4.55500000000000
C           -0.11120000000000        3.51840000000000        4.72120000000000
C            0.42370000000000        2.57800000000000        5.60270000000000
C            1.83890000000000        2.55620000000000        5.82470000000000
C            2.56980000000000        3.72250000000000        5.44660000000000
C            1.94810000000000        4.70150000000000        4.65380000000000
C            0.63730000000000        4.59130000000000        4.26560000000000
C            2.52350000000000        1.48710000000000        6.49700000000000
C            3.77700000000000        1.84860000000000        7.02780000000000
C            4.36930000000000        3.11130000000000        6.72150000000000
N            3.81840000000000        3.99110000000000        5.87160000000000
C            2.13480000000000        0.10010000000000        6.63500000000000
C            2.95240000000000       -0.71010000000000        7.48280000000000
N            4.03880000000000       -0.27780000000000        8.15510000000000
C            4.47980000000000        0.95510000000000        7.88080000000000
C            5.69610000000000        1.35520000000000        8.44160000000000
C            6.26040000000000        2.57850000000000        8.14850000000000
C            5.60810000000000        3.43750000000000        7.28720000000000
C            1.10450000000000       -0.59230000000000        5.89010000000000
C            0.97720000000000       -1.97710000000000        6.00000000000000
C            1.74870000000000       -2.72440000000000        6.86890000000000
C            2.70120000000000       -2.08380000000000        7.61000000000000
O           -0.41040000000000        1.76780000000000        6.34830000000000
O            0.19440000000000       -0.02250000000000        5.01760000000000
C            0.00420000000000        5.66030000000000        3.46400000000000
C            1.59200000000000       -4.18710000000000        7.02750000000000
C            7.57060000000000        2.94340000000000        8.72840000000000
C           -2.15050000000000       -2.42150000000000        6.80570000000000
C           -2.50770000000000       -1.32530000000000        6.02090000000000
C           -3.48850000000000       -1.49530000000000        4.96570000000000
C           -3.85110000000000       -2.84730000000000        4.65720000000000
C           -3.38270000000000       -3.90980000000000        5.44620000000000
C           -2.59350000000000       -3.70400000000000        6.54400000000000
C           -4.28040000000000       -0.46450000000000        4.32660000000000
C           -5.34640000000000       -0.88480000000000        3.51190000000000
C           -5.45740000000000       -2.25010000000000        3.13210000000000
N           -4.70100000000000       -3.21210000000000        3.67330000000000
C           -4.24210000000000        0.95520000000000        4.53760000000000
C           -5.40900000000000        1.73800000000000        4.28200000000000
N           -6.42590000000000        1.30430000000000        3.51330000000000
C           -6.33670000000000        0.04250000000000        3.05750000000000
C           -7.31360000000000       -0.40430000000000        2.15840000000000
C           -7.35700000000000       -1.71570000000000        1.72790000000000
C           -6.44540000000000       -2.62550000000000        2.21910000000000
C           -3.06080000000000        1.66900000000000        4.92290000000000
C           -3.19760000000000        2.92140000000000        5.51880000000000
C           -4.40420000000000        3.60550000000000        5.46730000000000
C           -5.46670000000000        3.04830000000000        4.79180000000000
O           -1.84170000000000       -0.17740000000000        6.41100000000000
O           -1.83120000000000        1.17050000000000        4.54800000000000
C           -2.30370000000000       -4.81650000000000        7.47470000000000
C           -4.49910000000000        4.95840000000000        6.05570000000000
C           -8.38100000000000       -2.16330000000000        0.76260000000000
B           -0.97270000000000        0.67140000000000        5.58520000000000
O            8.14450000000000        3.94500000000000        8.34830000000000
O            8.07100000000000        2.09350000000000        9.67200000000000
C            9.28460000000000        2.58140000000000       10.14410000000000
O            0.61320000000000       -4.81430000000000        6.31450000000000
C            0.55060000000000       -6.14020000000000        6.72780000000000
O            2.33380000000000       -4.76910000000000        7.79620000000000
O           -1.69360000000000       -4.60520000000000        8.50400000000000
O           -2.79880000000000       -6.04100000000000        7.12330000000000
C           -2.66380000000000       -6.92770000000000        8.18860000000000
O           -9.13100000000000       -1.35450000000000        0.25340000000000
O           -8.40350000000000       -3.50320000000000        0.49550000000000
C           -9.33170000000000       -3.77910000000000       -0.50370000000000
O           -5.53050000000000        5.59370000000000        5.96760000000000
O           -3.37520000000000        5.41480000000000        6.68050000000000
C           -3.60370000000000        6.68320000000000        7.20070000000000
O            0.68640000000000        6.56230000000000        3.02040000000000
O           -1.34510000000000        5.56850000000000        3.28090000000000
C           -1.79400000000000        6.64680000000000        2.52840000000000
H           -8.85290000000000       -3.60000000000000       -1.46820000000000
H          -10.19830000000000       -3.12210000000000       -0.38530000000000
H           -9.63510000000000       -4.82520000000000       -0.42780000000000
H           -2.72590000000000        6.99450000000000        7.77120000000000
H           -4.48300000000000        6.64470000000000        7.84900000000000
H           -3.78220000000000        7.37760000000000        6.37700000000000
H           -2.88060000000000        6.58670000000000        2.44470000000000
H           -1.33750000000000        6.59640000000000        1.53800000000000
H           -1.49730000000000        7.57370000000000        3.02490000000000
H           -2.96480000000000       -7.92570000000000        7.86380000000000
H           -3.30650000000000       -6.59010000000000        9.00520000000000
H           -1.62620000000000       -6.93620000000000        8.52790000000000
H            0.47820000000000       -6.14610000000000        7.81960000000000
H            1.46520000000000       -6.65170000000000        6.41740000000000
H           -0.32870000000000       -6.61970000000000        6.29210000000000
H            9.65590000000000        1.91520000000000       10.92580000000000
H            9.12650000000000        3.58540000000000       10.54610000000000
H            9.99630000000000        2.62620000000000        9.31650000000000
H           -8.04770000000000        0.28900000000000        1.78820000000000
H           -6.51500000000000       -3.65350000000000        1.91290000000000
H           -6.36230000000000        3.62770000000000        4.65340000000000
H           -3.72430000000000       -4.90600000000000        5.22910000000000
H           -2.35470000000000        3.39090000000000        5.99280000000000
H           -1.49710000000000       -2.26170000000000        7.64480000000000
H           -1.12550000000000        3.42470000000000        4.37980000000000
H            0.26690000000000       -2.47940000000000        5.36620000000000
H            3.32000000000000       -2.66890000000000        8.26770000000000
H            2.51030000000000        5.56540000000000        4.34680000000000
H            6.07060000000000        4.37560000000000        7.03610000000000
H            6.21770000000000        0.68210000000000        9.09780000000000
202
 energy: -401.153718317978 gnorm: 0.112478921162 xtb: 6.7.1 (edcfbbe)
C           -0.32105166180125        4.50369552672974        0.45109478693537
C            0.14560419695343        3.46813097029860        1.24859979064134
C            1.54474638353784        3.29238018791233        1.42335871881056
C            2.39496460419068        4.39709560054340        1.08126860614272
C            1.87171630177070        5.46463455461308        0.32349538865731
C            0.53963525599544        5.49844093363097       -0.01521601786634
C            2.14416937840910        2.13137482030114        2.01173274737345
C            3.42420487885546        2.34037891726548        2.56249094510482
C            4.11457863412356        3.57072246769256        2.34439101183234
N            3.64666691403414        4.52470081404667        1.53451269194072
C            1.67266214761414        0.77331769432205        1.96422158690338
C            2.47172198945372       -0.20260557746840        2.66092111727010
N            3.53201632068510        0.09294222325182        3.43079631758696
C            4.05071413669777        1.31797475975608        3.33121455005208
C            5.28247949895434        1.58265420849116        3.95521088324992
C            5.92296294035401        2.79653283741782        3.77092885615555
C            5.35921884252133        3.77057438083070        2.96089516214981
C            0.62618122939376        0.27322151625802        1.11561530170117
C            0.57134422592374       -1.09061371271786        0.84887639657503
C            1.37452156786247       -2.01745809381036        1.50612518667488
C            2.25862055641237       -1.58184002943970        2.46054432564827
O           -0.73761254263610        2.71001101688487        1.94516270589570
O           -0.30987823087891        0.98855238953583        0.43929900512574
C            0.01161325481644        6.67214736334756       -0.74555853394649
C            1.28309063782962       -3.45403411194948        1.17642951752169
C            7.21506652907747        3.09683360605178        4.42384656368269
C           -1.89308395034048       -1.37975966525746        2.32285760945447
C           -2.53380222604505       -0.40862776834974        1.57140173182990
C           -3.43153177643255       -0.78864630163548        0.52944371836356
C           -3.50372149862459       -2.18998582838293        0.20930128092086
C           -2.75089731036748       -3.13132418038355        0.94477706338062
C           -1.99874624546691       -2.73404807232184        2.02087353795766
C           -4.39747116555440        0.08256911026802       -0.07833282388765
C           -5.39507395522671       -0.54220706546971       -0.85163873347191
C           -5.26185869067238       -1.90923797962481       -1.23453353037353
N           -4.31420829178263       -2.70094245195467       -0.72933116084541
C           -4.60840234406392        1.47934096564134        0.18702995985334
C           -5.95889869417481        1.95728583209076        0.07285656323668
N           -6.89476526525360        1.34196253338412       -0.65817013535696
C           -6.57936392484184        0.16858757889953       -1.21287643225674
C           -7.50090715817963       -0.43787390673338       -2.07959172426429
C           -7.29842937164708       -1.72906964954204       -2.54522635029265
C           -6.20765890909427       -2.46623975916894       -2.11265413794998
C           -3.61421543165697        2.44382826936261        0.54151395523076
C           -4.00880674418947        3.59585899310630        1.21568329141569
C           -5.36144745144900        3.92458129785609        1.34527776741202
C           -6.31332046495425        3.15851429166579        0.71467942948719
O           -2.26278439129179        0.85583622501963        1.95305865980490
O           -2.31913301303116        2.29997483084063        0.14638938648993
C           -1.24784695738120       -3.64577743298871        2.89994995630521
C           -5.82844571291466        5.10317866456845        2.10623949845274
C           -8.30504920276803       -2.30970298764362       -3.46193953921845
B           -1.40328359727160        1.71182199239384        1.12562069138541
O            7.77982005936683        4.14735663388114        4.23698792085709
O            7.69871246987254        2.13606375572976        5.23932206021182
C            8.90285242050249        2.56402952303682        5.82879047686765
O            0.47001219519551       -3.74529316013656        0.13792990323175
C            0.43324259042869       -5.12864697672495       -0.11455695520002
O            1.90725318294043       -4.29267074048109        1.78482317790620
O           -0.65987702086881       -3.19238529030954        3.85544006250051
O           -1.22864014564481       -4.95634471020835        2.59588341666112
C           -0.33383452806431       -5.63035932745802        3.45295481872934
O           -9.13700794851108       -1.62309454367905       -4.00197343055909
O           -8.23375422805244       -3.65050129366477       -3.63237454408260
C           -9.21502307476393       -4.08718473560412       -4.54026620522230
O           -7.00842702250901        5.31834733281874        2.25130623677166
O           -4.87512404114577        5.89906012437043        2.63480931422463
C           -5.46878910642159        6.90951161864096        3.41636782662116
O            0.73135111816202        7.40743925299389       -1.37547833083053
O           -1.32060568544322        6.87306834350530       -0.61898908699901
C           -1.72233118323547        8.01800619177655       -1.32831372724371
H           -9.04348057032573       -3.59943015963979       -5.50293896068652
H          -10.20231764698148       -3.79774818028374       -4.17038014768376
H           -9.15080463406725       -5.16865412220764       -4.64558839917793
H           -4.69214743758912        7.50891717532026        3.88862314209971
H           -6.08830758554990        6.43394991255667        4.18143948723562
H           -6.10408986412175        7.53231250310600        2.78314324755457
H           -2.79569207306263        8.15700701445116       -1.20877662135265
H           -1.47015184929214        7.88321681123598       -2.38298143900396
H           -1.18001515254132        8.88572358650987       -0.94342120191372
H           -0.53047399850753       -6.69979057154662        3.42615889826024
H           -0.45998657947612       -5.23164175643050        4.46108043905746
H            0.68966077611643       -5.41645706824374        3.12851893941124
H           -0.08679211082982       -5.62649039469073        0.70611062834827
H            1.45676479859598       -5.50805745830252       -0.17578417199836
H           -0.09390830294120       -5.30568453694606       -1.05029640184077
H            9.24333797843637        1.80782523040361        6.53457519397886
H            8.72308408784895        3.51212305790063        6.34372378982023
H            9.64978515761982        2.72518888752505        5.04842358590203
H           -8.39822299428422        0.09123521732415       -2.35611714813736
H           -6.09965578602876       -3.49161700741365       -2.42370868910502
H           -7.34456527985265        3.47110674731221        0.72919812850882
H           -2.82619810322297       -4.17637329642844        0.70120039105407
H           -3.26208066041612        4.24390193722416        1.64278624488363
H           -1.28407271842556       -1.05679259363995        3.15355694281537
H           -1.37419923572080        4.56320493576783        0.23571659289078
H           -0.13704530764426       -1.43824549808915        0.11643347167995
H            2.87755692664220       -2.29547041295702        2.97986616470303
H            2.51052708157686        6.29040209517661        0.05833888648406
H            5.88310519513264        4.70113808410187        2.81171903396036
H            5.74653197076035        0.82188153616082        4.55989551871937
C           -0.11823425976629        3.51027144193675        4.73448222015711
C            0.41289504431440        2.57648546093501        5.62071700238751
C            1.81865366954435        2.55245347629902        5.83505682461662
C            2.56632450336621        3.71632446763158        5.44542794704000
C            1.95514836231654        4.70420746505725        4.64870318185617
C            0.64050627415573        4.58299397767127        4.26852063146220
C            2.51284225809678        1.48604874456787        6.49356313006415
C            3.77127019985904        1.84501732877751        7.02302037008025
C            4.36526978111611        3.10755672662620        6.71888323682575
N            3.80799584406895        3.97544582510246        5.87044079911882
C            2.12052953693904        0.10339348157619        6.61625636030498
C            2.94732572454498       -0.70815735737800        7.47272037258476
N            4.02595913703673       -0.27586270326429        8.13735441619599
C            4.47575241863491        0.94850944078108        7.87434654000650
C            5.69462201649050        1.34300704239714        8.44769911308263
C            6.25578828815778        2.57248374512787        8.15191089603158
C            5.60869715703747        3.43931845717524        7.28363538987073
C            1.09076757945602       -0.58449716945345        5.88640079774119
C            0.97376799148920       -1.96953222261306        5.99393379047451
C            1.75194940499285       -2.72109601927374        6.86695748977674
C            2.70541379878368       -2.08599363537930        7.61789787840678
O           -0.40187191534416        1.76978571280795        6.35301549380755
O            0.19915158971834       -0.02605507617541        5.01902240728835
C            0.02374145484759        5.65527469509673        3.45706057706226
C            1.60840922725439       -4.18256605704595        7.04122647993311
C            7.56357810904852        2.95791850161119        8.72467484381719
C           -2.14483470807275       -2.41718841938967        6.80170720188963
C           -2.48416511192542       -1.31630720983824        6.01507089732973
C           -3.47507212317011       -1.47813157593774        4.97604343799923
C           -3.84615402885075       -2.83720090005253        4.66137854894524
C           -3.38469756347351       -3.91722103833963        5.43598784845516
C           -2.59984549553786       -3.70531743501088        6.53854145451224
C           -4.26759952023233       -0.45812407907830        4.32748550558920
C           -5.33847420422219       -0.88215820299829        3.51321764421949
C           -5.45162315533743       -2.24915605549026        3.13671079552455
N           -4.69485784808415       -3.19529537753900        3.68644570843973
C           -4.21871503755578        0.95737291991964        4.52980138682491
C           -5.39892750582385        1.73554212498340        4.28014333084062
N           -6.40743508896947        1.29599403842076        3.51996206066552
C           -6.33009992539044        0.04271784423136        3.05848795020551
C           -7.31337665108738       -0.39920563859371        2.15654612068981
C           -7.35195470282378       -1.71961354078994        1.73045941235549
C           -6.43882803264928       -2.63679790878323        2.21845573826376
C           -3.04506898664048        1.66665710614039        4.90152481999678
C           -3.18339302291331        2.91213040070742        5.50757515839399
C           -4.40144868854660        3.59440036298138        5.46664826623267
C           -5.47088070797945        3.04943242360560        4.79004200587827
O           -1.84213027732468       -0.18701509671975        6.41762610342007
O           -1.84623672097019        1.16252048678058        4.53815053296554
C           -2.29320195332500       -4.80193108542912        7.48066706716224
C           -4.51310252929210        4.94657876844029        6.05498402821142
C           -8.38414606485099       -2.14373330726210        0.76249771263136
B           -0.97835352600926        0.67039395332675        5.58205797829577
O            8.14320083509853        3.95603096122782        8.36579433028946
O            8.05900135067527        2.11450649985829        9.65423271789498
C            9.28997969802713        2.58152435955951       10.14845095847798
O            0.62904558924910       -4.79703224026833        6.34491852439064
C            0.54931564662376       -6.14743523092407        6.73095990950260
O            2.33612004073043       -4.78014444762607        7.79965964017109
O           -1.69276919344054       -4.60749802739229        8.51034840579401
O           -2.79048302543901       -6.01326694453809        7.13536967952234
C           -2.66529554682785       -6.93348752426964        8.19301977429256
O           -9.13152701072331       -1.34921158055823        0.24436037312851
O           -8.40745534816195       -3.46931845377194        0.50135132000016
C           -9.33879303167424       -3.78687562470850       -0.50424906606960
O           -5.53475255295983        5.58973686157710        5.98744352394614
O           -3.39930911775968        5.40261371653018        6.66713659426305
C           -3.60207944365775        6.68621975216342        7.20314452966049
O            0.68478874975325        6.56465460461069        3.00993258974375
O           -1.31213690081723        5.57043260334812        3.29265725163158
C           -1.79608509745363        6.65155202972701        2.53322555883455
H           -8.87095764111759       -3.61349479189682       -1.47270824681037
H          -10.21262721444326       -3.13798394087256       -0.40207372125517
H           -9.62667993119883       -4.83260421784273       -0.41352883268943
H           -2.71802686460860        6.98073771415787        7.76660862184629
H           -4.47906195543197        6.66734581320141        7.85592523112208
H           -3.78324034361404        7.39360915879707        6.38980537844723
H           -2.87749029110556        6.57496459977521        2.45675141286842
H           -1.35014252275181        6.61658765452193        1.53929646242633