116
 energy: -22.928061455056 gnorm: 0.329736929581 xtb: 6.6.1 (8d0f1dd)
C           -3.31122850772930        0.79849766164622       -0.92477639677520
C           -2.44380812530352       -0.12270372891954       -0.27661132624697
C           -1.41337090092821        0.39579727573559        0.56335275196199
C           -0.89266158675590        1.65801491088749        0.27377586709581
C           -1.72665675402493        2.51431363229076       -0.49448366572522
C           -2.95444148494349        2.13954154133227       -1.01494489940871
C           -0.74098268209890       -0.43411532818871        1.49825021926784
C            0.56872586496315        0.03782116815119        1.86248088067890
C            1.03782416582094        1.29402317993033        1.50887470833621
N            0.31238977034758        2.07067427098208        0.65193736800696
C           -1.29695700510141       -1.39996043042223        2.41574187746061
C           -0.38243517664656       -2.18060797534842        3.13232615520648
N            0.91308504082021       -1.90366887689689        3.30325166013478
C            1.37712470144904       -0.74872102533751        2.81811050966982
C            2.52149331701875       -0.17739833758153        3.39379298866852
C            2.95849061756259        1.02681208890480        2.95105897606587
C            2.24288949469137        1.78498308775960        2.03503020483770
C           -2.74860936222260       -1.74497937691422        2.38401158947411
C           -3.09416315450955       -2.91614440870436        3.00571134491758
C           -2.16786021984049       -3.77788778654213        3.63251872101904
C           -0.85708937311598       -3.40495313382985        3.68547234358092
O           -3.71994433332149       -0.94984598373544        1.67726658385724
O           -2.55702603277562       -1.47241711578389       -0.57241635275616
C           -3.84297843593025        3.13357444054366       -1.60938954875544
C           -2.68769581069131       -5.03867041417370        4.30484659386931
H           -1.39666850744143        3.51251503834900       -0.76806311868865
H           -4.27662633836220        0.55105838579656       -1.33106614114542
H            2.66329581305412        2.73912661909249        1.72562431984580
H            3.05775395548473       -0.69369546277216        4.16536137542516
H           -0.24710966264510       -4.12034095424229        4.22946223699121
H           -4.11477991332403       -3.04712728052358        3.03244694615357
O           -4.21824883374556        4.03433712717988       -0.87713382485991
O           -4.44510595673734        2.90643496899600       -2.81853501752979
C           -5.44216520282800        3.83300025693726       -3.02488532025093
C            4.23586651889298        1.50004220933226        3.59165660008449
O            5.05927614697201        0.66079890002952        3.91714215179376
O            4.47001334453535        2.86385149488593        3.72605651435371
C            5.79457498613219        3.08584475587818        4.15829123132174
O           -3.82227255313510       -5.27347675879771        4.16636005494405
O           -1.85023202017753       -5.79767454267276        5.06656077253571
C           -2.55119635829503       -6.86252441382958        5.62930343183426
C           -5.07197156564436       -1.42399175670916        1.58830531863830
C           -1.33089900128490       -2.23622472573986       -0.99264499351172
H           -2.54510546830388       -7.76426885143998        4.99136022291012
H           -3.57194749219491       -6.44405511486021        5.74196173723541
H           -2.09133598235598       -7.02043774843818        6.64022264233588
H            5.72707967266424        3.46798026205549        5.10135971236643
H            6.34060091246885        3.78468702308830        3.50069950143490
H            6.17933064298187        2.03010500085905        4.19342358084693
H           -0.91862729772622       -2.57650129080332       -0.01361370304871
H           -0.49769766914251       -1.60651221708571       -1.34094446550576
H           -1.52632419730509       -2.94569707152159       -1.75361447637286
H           -5.11788846557077       -2.41810833635233        1.17520213188926
H           -5.67929807973498       -0.69619639428435        1.04301666067831
H           -5.57598832326623       -1.42383358739762        2.57928294206544
H           -6.13050215934830        3.76035386975488       -2.23272855695873
H           -5.86615610071888        3.45938329385866       -4.02668959924245
H           -5.13479557532099        4.87790991548477       -2.98314551356402
C           -1.38192942069774        3.73616555005018        2.91232598411686
C           -1.84821468128685        2.59982427735607        3.49755545445181
C           -1.05946531454833        2.05730632010638        4.60922730982276
C            0.19893954712228        2.69376791964407        4.86302140881997
C            0.50425395911860        3.94630308659851        4.28768785650746
C           -0.26031777722226        4.46998310053134        3.25072669343212
C           -1.20488993561782        0.74454293276906        5.14851520323437
C           -0.06287609782692        0.02744069315890        5.60930570802864
C            1.19208754369866        0.71421540266195        5.78882868583885
N            1.19428660993148        2.06344359410476        5.62744624321596
C           -2.41361422770794        0.07928500213936        5.25249410304426
C           -2.45851584031083       -1.32662100968547        5.60237876023992
N           -1.29466212405906       -1.98318595734370        5.89916817085159
C           -0.14475655767527       -1.32117560077092        5.98824682881008
C            0.97209270935794       -1.98958449505532        6.53157704134458
C            2.21982707914082       -1.36973967291181        6.68703967237737
C            2.30561929262884       -0.09745313075593        6.26436900324455
C           -3.73018485967715        0.71367583494582        5.25810242262992
C           -4.89964478833448       -0.06184623426677        5.21204641615509
C           -4.82617965800088       -1.39228978090841        5.46901303780036
C           -3.67144193418464       -1.98914944386360        5.67265433266067
O           -3.75568638935321        2.07705011038914        5.52067969627343
O           -2.94192434743730        1.91263938797883        3.01658762327703
C            0.21273512614467        5.50086066357994        2.34765104514621
C           -6.06660304520411       -2.17604633098929        5.80641622556876
H            1.41756699010566        4.38133362238595        4.66974005703471
H           -1.82880610647429        4.11982501512100        2.06992133318584
H            3.26888037378556        0.32655662585251        6.31721410015598
H            0.87146188387207       -3.08471526305024        6.57830423410869
H           -3.67716811065157       -3.05999292755990        5.83019634570050
H           -5.77379677507622        0.43595144608221        4.71017130754348
O            1.34459852619901        5.82615848916894        2.44941456579099
O           -0.74718748219123        6.07961784856304        1.59848183464284
C           -0.21473095568964        7.24015934882472        1.05753806029483
C            3.53228080814219       -2.00967610361154        7.02506769044485
O            3.64093082622715       -3.14437803815732        7.50071391725347
O            4.56565258381079       -1.22937033368332        6.69086985080897
C            5.72579357310716       -1.80692399125161        7.22246151275881
O           -7.04801223588612       -1.95726935745904        5.14194115322235
O           -6.01514389321278       -2.93743591896022        6.94765316328794
C           -7.21292732384718       -3.62681918543340        7.15115816329978
C           -4.95459780685163        2.65960679932188        5.86868674392943
C           -3.68284113682406        2.59129188358641        2.05479246020704
H           -7.43119628931628       -4.22607794725959        6.20622607140901
H           -8.06548455146707       -2.91765848248592        7.29781126410398
H           -7.07314693247270       -4.33087306029711        7.91223421050944
H            6.57332189837178       -1.29353136199234        6.78341268688262
H            5.74663761932316       -2.84282155125561        6.88089468184451
H            5.69426191474290       -1.72781984964892        8.29460302186842
H           -4.10481209541493        3.44288266176275        2.60483747673152
H           -4.49244774344916        1.87419893016926        1.82433103764650
H           -3.18901540870812        2.85154642679373        1.06781919454921
H           -5.55414326821421        2.76698137191684        4.93950725322359
H           -4.78658370641210        3.62090640967288        6.25983200635257
H           -5.43485580473958        1.97242995129449        6.65265772412460
H            0.89164886030839        7.38838561720231        1.13776105146914
H           -0.62894889903848        8.04195665205089        1.64837664327952
H           -0.59282546386754        7.45699159724320        0.03719083132488
116
 energy: -22.704347418093 gnorm: 0.433868398801 xtb: 6.6.1 (8d0f1dd)
C           -2.83059438827151        0.47066256530408       -1.48933152360520
C           -2.33332535060814       -0.44897878308591       -0.58673052719036
C           -1.60132011682145        0.08865680648181        0.55199515450602
C           -1.08684021128223        1.48199359241941        0.48822691018478
C           -1.99173779839011        2.35422334458853       -0.24874334013684
C           -2.74306420403991        1.81900121522735       -1.30624505437202
C           -0.79808776671189       -0.75295069756836        1.46834003918741
C            0.46716147193551       -0.31229581172886        1.84510244655174
C            0.87876221920312        1.05131808216203        1.69581230049673
N            0.11587799392781        1.97908619922569        0.95751561021050
C           -1.51630167058768       -1.93481720218379        1.78586628122821
C           -0.61617307819339       -2.89452140829342        2.39265746532220
N            0.64375932594725       -2.41852858380753        2.85460569248703
C            1.19704190993534       -1.24099132956522        2.66369516828920
C            2.41581197567673       -0.96631085629563        3.23838659264791
C            2.85712229453973        0.31198986552215        3.06813119991557
C            2.10164919878677        1.25501178667227        2.39505829363897
C           -2.94998884086051       -2.10838366420672        1.70667231346645
C           -3.35337763405306       -3.41292658595683        2.14228835156843
C           -2.42589954582618       -4.41307474796732        2.50925029755417
C           -1.08741850476845       -4.08572983148295        2.80434127443660
O           -3.76893333503802       -1.07684545167784        1.38831220656749
O           -2.47614986157448       -1.90743479257218       -0.94555664395029
C           -3.09577314926981        2.89873363130679       -2.28596239869659
C           -2.94621409695329       -5.71260333174243        2.93657077852144
H           -1.77410340290987        3.43492139462896       -0.28728259959776
H           -3.48395511629621        0.08911416494754       -2.28100194271614
H            2.58661749718815        2.24032496487002        2.31150742343775
H            2.90302492198402       -1.72703031796849        3.92370933453281
H           -0.46699473694988       -4.66221333973458        3.48988732539939
H           -4.40305184034472       -3.63049263133993        2.46742319181504
O           -2.22351153065572        3.71596777024030       -2.37094408745523
O           -4.39579776670677        2.86437959041748       -2.77045860448911
C           -4.38790420885500        4.11754515970955       -3.47895337136258
C            4.13799045473652        0.78769632640043        3.39559958172739
O            5.13995162852112        0.08473042333819        3.51169780231440
O            4.32982375641278        2.16618828867241        3.32130047435496
C            5.61441679434210        2.54581579141881        3.74350054275350
O           -4.19928081150432       -5.92987241191823        2.85559425007324
O           -1.97750449711852       -6.58031072407468        3.47357091456074
C           -2.63366848947862       -7.61731879119881        4.25452517750998
C           -5.11168417243903       -1.30750672847355        1.69320861926760
C           -1.88154506330193       -2.11482657144000       -2.27053150217090
H           -3.43842162495113       -7.10460351845494        4.92821410008743
H           -1.86789392665396       -8.17254450631593        4.84279043417447
H           -2.91414454605525       -8.21249681944718        3.38603170740826
H            5.66994028417029        2.66331675044134        4.75435411077456
H            5.61579959688931        3.58731966950285        3.46852774921684
H            6.34584207833398        1.87216323753071        3.30979130294019
H           -1.36689291028181       -1.18036903961131       -2.61497897832014
H           -2.46659504458933       -2.40447637483431       -3.05893985277306
H           -1.55858211505669       -3.03424412563306       -1.87109009627376
H           -5.42859610632001       -2.25417171159209        1.31155081531563
H           -5.53735239873309       -0.42108733523877        1.21339684432294
H           -5.34447991018275       -1.33654532541837        2.73693894558554
H           -4.15278546415867        4.83167002030774       -2.65773047128172
H           -5.38500161272710        4.53805514009605       -4.05438895055531
H           -3.47238508518388        4.23168029100817       -4.21681937361115
C           -1.95948965344699        3.80007173649855        3.33624267739198
C           -2.04767439542339        2.70208120160502        4.22089955439835
C           -1.00121462736394        2.35227624909721        5.17903619718404
C            0.19233225814538        3.02017580598676        5.10436394159395
C            0.28067109256809        4.21232500237282        4.28517128771373
C           -0.75432251813807        4.44081762111892        3.28064379975863
C           -1.05834667912289        1.29648004044628        6.08953124737942
C            0.11788090910100        0.65943885700497        6.55020234547101
C            1.37774030517772        1.28035933955668        6.12396555266514
N            1.37532160224770        2.53744985153825        5.58663580669059
C           -2.28355737489542        0.73255784640611        6.56680949681784
C           -2.31705898285043       -0.50840783717965        7.25344775453373
N           -1.13528384908669       -1.13279270547602        7.67122769055300
C            0.06492625931299       -0.55792788044334        7.30131170681035
C            1.32483485264817       -1.22059334350404        7.37970038223908
C            2.51563028451131       -0.68132221730517        7.13924681208775
C            2.60024836103795        0.62387831855094        6.56853987626159
C           -3.50659696609688        1.45618151307444        6.49152785255601
C           -4.77448380447103        0.77004621452023        6.43261228886856
C           -4.75150743332653       -0.63983067047150        6.59969498402834
C           -3.60173160864978       -1.14767154766446        7.16789632935723
O           -3.49202479054372        2.85842992705749        6.67550165934357
O           -2.98120186252327        1.74931112976664        3.96644573992618
C           -0.80016814064666        5.67462971189652        2.45502825782788
C           -5.86714565867088       -1.51216596836705        6.09435600689498
H            1.21007306184329        4.84881031875574        4.24829135459514
H           -2.54460898355952        3.74924892782835        2.43686330327138
H            3.60855943548994        0.83352620506608        6.39213203376744
H            1.41981127243021       -2.26955840489736        7.60063680563624
H           -3.67757936028187       -2.24520824964410        7.32201244507544
H           -5.60830624556017        1.37660230542452        6.15042411026641
O           -0.01010099363787        6.58572321466370        2.62673496575844
O           -1.66978387931984        5.80072147795567        1.32022830007454
C           -1.00676538398849        6.63472947609537        0.34267870937834
C            3.76060852388064       -1.51591073839754        7.15111327864354
O            3.58618507172157       -2.70108087516873        7.23298086249252
O            5.03011065095745       -1.05714329358766        6.81968092433919
C            6.12259595419935       -1.41910838312961        7.57986381884811
O           -6.57727843961135       -1.09734468068825        5.20447085200936
O           -6.09864205147539       -2.60711357159596        6.78903246121614
C           -6.94945167869139       -3.49130029280454        6.10055908886945
C           -4.52164986613731        3.63891441126399        7.38701572621661
C           -3.87925766666241        1.84220049019169        2.85796876770654
H           -6.23213100786291       -4.10546326620387        5.52544181839094
H           -7.53276079370915       -2.95098464719856        5.27575675319082
H           -7.53137911461446       -4.23766176175784        6.85888400398456
H            6.65129381023792       -2.33207481757443        7.13005349765195
H            5.67673910898650       -1.69558739855476        8.47715108270006
H            6.78646739536883       -0.43367599053353        7.68340237212593
H           -4.16180828362601        2.75384897029763        2.40323958286994
H           -4.65491676802525        1.25145918084723        3.33029625054277
H           -3.41593898355516        1.19666401470040        1.99395772010253
H           -4.18479226189955        3.48518165888961        8.45549291510643
H           -5.41427013217387        3.00993687574075        7.22078514802008
H           -4.44486301846784        4.70001629013980        7.13175045979933
H            0.03525572026899        6.71927417147657        0.76733574725589
H           -1.50378268822240        7.60207660093735        0.43367751591827
H           -0.89196957546685        6.33153829904744       -0.76593851825024
116
 energy: -22.724195662204 gnorm: 0.482180058538 xtb: 6.6.1 (8d0f1dd)
C           -3.42610026618351        1.12588012773871       -1.01035511070316
C           -2.95425714899551        0.13147492987329       -0.18131419504451
C           -1.81971369554425        0.46984350730287        0.68886338888904
C           -1.11023971111889        1.66850587329193        0.46330978879234
C           -1.59433976105672        2.70171047736122       -0.38285151459919
C           -2.66843983811746        2.34452916275944       -1.17277655954228
C           -1.24003055064420       -0.49541178334008        1.62860658487086
C            0.12592665863181       -0.18382794354077        2.11505653673345
C            0.73271351353625        1.02625833352830        1.80576329357647
N            0.06941783102054        1.92926289071151        1.03714393630036
C           -1.80629295341242       -1.69440684720386        2.17382360726029
C           -0.85316386778879       -2.74068167550436        2.55940459035621
N            0.53438333355037       -2.46666116017771        2.72641890678731
C            0.95574056945250       -1.23238802440624        2.65576321359078
C            2.31091475703478       -0.99735490348233        2.86639626056217
C            2.73907981814603        0.23546481512661        2.72896697836384
C            1.97652243930034        1.33357464489722        2.20998718648696
C           -3.18549318926221       -2.08125623111760        2.45833187163949
C           -3.47914101634788       -3.33412745336259        2.88876550788649
C           -2.53193038747781       -4.37754570911350        2.98453029846871
C           -1.19733224489422       -4.06086407071249        3.04629330298015
O           -4.10929394406750       -1.06657374728583        2.43120378568296
O           -3.29881611271228       -1.26418601067534       -0.11147369068091
C           -2.96487409747155        3.57703384905587       -2.07655781585040
C           -2.96927422380705       -5.79840487372985        3.02430527072816
H           -1.26622570563101        3.75604587140024       -0.26495537095130
H           -4.19356155458067        1.08137730938909       -1.67050492234585
H            2.40593472523582        2.23835980766493        1.91196361631201
H            2.92145346819665       -1.71453443535870        3.49080022394457
H           -0.35477849919893       -4.75726696771914        3.28128049569517
H           -4.50493536101270       -3.67355300666370        2.95831845526499
O           -2.91958507544268        4.67669358756361       -1.51095756419412
O           -3.30091852074429        3.39496679965677       -3.35387923088040
C           -4.03916946128090        4.62002665014762       -3.73260981483718
C            4.15282441092457        0.53768739475879        3.33174541393866
O            4.41763580744637        0.17775243364290        4.47064037921304
O            5.08925833487792        0.86740061513175        2.44928950316334
C            6.40287534633342        0.76373345004861        3.06874011586399
O           -4.15254857297350       -5.99982406212077        3.00199565881768
O           -1.98392169920487       -6.73698941575854        2.94722237850467
C           -2.41247296649563       -7.89846678740368        2.36600008780484
C           -5.16977905331323       -1.03531376196237        3.52669062521990
C           -2.50254151082714       -2.21337703096417       -0.93582768102727
H           -3.34273010811330       -7.73969472362604        1.72522150120434
H           -2.75167919210228       -8.69154689888211        2.98944048012529
H           -1.64665725791639       -8.45729522382914        2.00404272905480
H            6.62948108452860        1.44605420764597        3.99182048996815
H            7.27666458436785        0.75392039165975        2.36717317088740
H            6.47011047340175       -0.30322832461849        3.27870862756461
H           -3.27311474669302       -2.42231702270501       -1.68759628395097
H           -2.31063914688613       -3.07414000625041       -0.43015016487110
H           -1.65517827785448       -1.82632777406902       -1.35255190370171
H           -6.14885366114029       -0.98750065536306        3.17385838083167
H           -5.02721713014330       -0.11922418238539        4.11615586512199
H           -5.10100279629408       -1.85299536054531        4.28049906385078
H           -5.06679625105999        4.50026548228501       -3.46398519601616
H           -4.03098384534310        4.63549082932100       -4.89246047037118
H           -3.78181107142316        5.61626871831820       -3.45818280116876
C           -1.60620524657810        3.81606247748691        2.73155561766604
C           -1.94393300150867        2.73638934101984        3.63222700023465
C           -1.07095931726368        2.39087553301286        4.63923745433736
C            0.21646286702176        2.97050518843358        4.61832659032091
C            0.57889894178670        3.88304209997805        3.69095612997536
C           -0.29942211147831        4.38216031518622        2.74756459081362
C           -1.14625163067675        1.10271794951659        5.40808231024474
C            0.04552297288905        0.50493614209013        5.97376343020876
C            1.20516694016880        1.35795423114779        6.06806329968657
N            1.19670490484882        2.54357491658434        5.42191247795076
C           -2.29216503357162        0.42173999867335        5.84194251584904
C           -2.07657202888235       -0.92393567783239        6.37570785251724
N           -1.01121669260669       -1.49023288634690        6.81744712627467
C            0.09457474794081       -0.67291477155256        6.73829854835659
C            1.34708976856121       -1.04965573003516        7.31020062128548
C            2.38920590136626       -0.07580777958328        7.42138887913775
C            2.41697963019567        1.14551913629028        6.76578422619925
C           -3.59708071540527        0.98810646183459        5.91321640466216
C           -4.66298284421430        0.14266353614327        6.20623649561070
C           -4.49661611299328       -1.29073513455876        6.25818558915664
C           -3.20693686288963       -1.85633898355846        6.40145041287509
O           -3.68778867659271        2.39804919593281        5.84499270494029
O           -2.93065166528630        1.79908656907072        3.24954135266210
C            0.21723313445001        5.36081375628482        1.80753296511629
C           -5.62823522233044       -2.12927368972884        6.70842057569833
H            1.56894550966138        4.10459084508284        3.41359322216217
H           -2.50632870634515        4.25888006955801        2.29277361835215
H            3.02556185906185        1.97203530233344        6.90908315272955
H            1.50353202453440       -2.02631235442495        7.64641127543560
H           -3.09399550909326       -2.97595910064222        6.15385410935807
H           -5.57379955976245        0.54109943503555        6.36654184446640
O            1.26578261402856        5.29306838387925        1.16166744745768
O           -0.60497414970173        6.47623316183850        1.66073111889887
C           -0.96156583572135        6.79974021023321        0.34302043128379
C            3.59012535150503       -0.51423820134113        8.25740002917022
O            3.65857681650721       -1.64436670204343        8.69245407753779
O            4.62370652446391        0.38661623382777        8.36020174673597
C            5.75354118402590       -0.02175131167964        8.93328300318311
O           -6.14950370571654       -1.94040380267807        7.75748274701874
O           -6.06780573240246       -3.13986751400016        5.89504348475501
C           -6.86401203939463       -4.05025521998420        6.61597460496013
C           -5.04056372443305        2.82704046116999        5.63217286607806
C           -3.90071149379628        2.22705508965701        2.30464008107355
H           -7.86483455766542       -4.25142472985990        6.09274816765795
H           -7.04577663035885       -3.74945861552362        7.64983352769501
H           -6.47781588789933       -5.10606945067387        6.65199205428434
H            6.24943440573903        0.90564915874289        9.60112543173176
H            6.46436900645084       -0.41690056323746        8.26337968822625
H            5.39880925246224       -0.84537928963370        9.67798214223177
H           -4.72463947924525        1.60952373657662        2.17344076478017
H           -3.50407909997879        2.75784924723000        1.32449623349356
H           -4.52221802374615        3.02322249938447        2.82086988523069
H           -5.10150968402244        3.48370012611297        4.78210757415487
H           -5.15046235591981        3.52625640636287        6.54239640984192
H           -5.74387927330796        2.03391984935439        5.81184824866529
H           -0.42538891884370        6.09759656558299       -0.35242315416190
H           -0.88780286844652        7.86844608540271        0.23749594148705
H           -1.90953762665552        6.36412589285298        0.24729344790154
116
 energy: -22.667532667658 gnorm: 0.506390132244 xtb: 6.6.1 (8d0f1dd)
C           -2.06002918581861        1.05981111418733       -1.66720657848285
C           -1.67307517673456       -0.04514371334661       -0.94191379748800
C           -1.26661955463461        0.15959302681674        0.42759791120394
C           -0.95147546322463        1.50540022973525        0.89598838493204
C           -1.79714073041745        2.53740858021864        0.36916575697010
C           -2.41031770275859        2.19909653912686       -0.86088749249490
C           -1.22018123730091       -0.91106413290658        1.50082232712049
C           -0.04797030078817       -0.60437149713157        2.26050001422797
C            0.61534320195534        0.63739068702532        2.14267423062648
N            0.05065273035509        1.72575781557859        1.67073988366482
C           -2.04273018826711       -2.03260771120419        1.89734286092510
C           -1.26385010606063       -3.07389276546521        2.56309938779264
N            0.08708263076328       -3.05360318058265        2.77633202836629
C            0.59943119117927       -1.75964520517750        2.86960583157393
C            1.98819690463007       -1.63275339621816        3.09179075735781
C            2.66436861408244       -0.41018697040477        2.94590365798356
C            2.00133066878704        0.74352787718164        2.54029436058224
C           -3.36247375727683       -2.48268814595327        1.51052848541482
C           -3.96177157676554       -3.53215541428087        2.15263080851755
C           -3.18811428732897       -4.39424504076904        2.90374722029216
C           -1.80386513118822       -4.21061568630942        3.01034975552995
O           -3.80581004660275       -1.58729730380705        0.50896104887771
O           -1.64475539793124       -1.29938003256045       -1.55565310518196
C           -3.15661936586257        3.21012367487945       -1.72883970211490
C           -3.66998664969803       -5.67878601614970        3.30392837844382
H           -1.66492005472762        3.50390538306844        0.79793718884762
H           -2.44592219925240        1.05066529104357       -2.57902854696750
H            2.63362111092843        1.52941941623734        2.27836186544148
H            2.61826888272073       -2.53376797182953        3.40586644297000
H           -1.35412047813181       -4.78188427767957        3.73357570050652
H           -4.83411307523876       -4.04271675994999        1.91808284878224
O           -2.57263134687267        4.16282559481982       -2.17218911161130