116
 energy: -22.928061455056 gnorm: 0.329736929581 xtb: 6.6.1 (8d0f1dd)
C           -3.31122850772930        0.79849766164622       -0.92477639677520
C           -2.44380812530352       -0.12270372891954       -0.27661132624697
C           -1.41337090092821        0.39579727573559        0.56335275196199
C           -0.89266158675590        1.65801491088749        0.27377586709581
C           -1.72665675402493        2.51431363229076       -0.49448366572522
C           -2.95444148494349        2.13954154133227       -1.01494489940871
C           -0.74098268209890       -0.43411532818871        1.49825021926784
C            0.56872586496315        0.03782116815119        1.86248088067890
C            1.03782416582094        1.29402317993033        1.50887470833621
N            0.31238977034758        2.07067427098208        0.65193736800696
C           -1.29695700510141       -1.39996043042223        2.41574187746061
C           -0.38243517664656       -2.18060797534842        3.13232615520648
N            0.91308504082021       -1.90366887689689        3.30325166013478
C            1.37712470144904       -0.74872102533751        2.81811050966982
C            2.52149331701875       -0.17739833758153        3.39379298866852
C            2.95849061756259        1.02681208890480        2.95105897606587
C            2.24288949469137        1.78498308775960        2.03503020483770
C           -2.74860936222260       -1.74497937691422        2.38401158947411
C           -3.09416315450955       -2.91614440870436        3.00571134491758
C           -2.16786021984049       -3.77788778654213        3.63251872101904
C           -0.85708937311598       -3.40495313382985        3.68547234358092
O           -3.71994433332149       -0.94984598373544        1.67726658385724
O           -2.55702603277562       -1.47241711578389       -0.57241635275616
C           -3.84297843593025        3.13357444054366       -1.60938954875544
C           -2.68769581069131       -5.03867041417370        4.30484659386931
H           -1.39666850744143        3.51251503834900       -0.76806311868865
H           -4.27662633836220        0.55105838579656       -1.33106614114542
H            2.66329581305412        2.73912661909249        1.72562431984580
H            3.05775395548473       -0.69369546277216        4.16536137542516
H           -0.24710966264510       -4.12034095424229        4.22946223699121
H           -4.11477991332403       -3.04712728052358        3.03244694615357
O           -4.21824883374556        4.03433712717988       -0.87713382485991
O           -4.44510595673734        2.90643496899600       -2.81853501752979
C           -5.44216520282800        3.83300025693726       -3.02488532025093
C            4.23586651889298        1.50004220933226        3.59165660008449
O            5.05927614697201        0.66079890002952        3.91714215179376
O            4.47001334453535        2.86385149488593        3.72605651435371
C            5.79457498613219        3.08584475587818        4.15829123132174
O           -3.82227255313510       -5.27347675879771        4.16636005494405
O           -1.85023202017753       -5.79767454267276        5.06656077253571
C           -2.55119635829503       -6.86252441382958        5.62930343183426
C           -5.07197156564436       -1.42399175670916        1.58830531863830
C           -1.33089900128490       -2.23622472573986       -0.99264499351172
H           -2.54510546830388       -7.76426885143998        4.99136022291012
H           -3.57194749219491       -6.44405511486021        5.74196173723541
H           -2.09133598235598       -7.02043774843818        6.64022264233588
H            5.72707967266424        3.46798026205549        5.10135971236643
H            6.34060091246885        3.78468702308830        3.50069950143490
H            6.17933064298187        2.03010500085905        4.19342358084693
H           -0.91862729772622       -2.57650129080332       -0.01361370304871
H           -0.49769766914251       -1.60651221708571       -1.34094446550576
H           -1.52632419730509       -2.94569707152159       -1.75361447637286
H           -5.11788846557077       -2.41810833635233        1.17520213188926
H           -5.67929807973498       -0.69619639428435        1.04301666067831
H           -5.57598832326623       -1.42383358739762        2.57928294206544
H           -6.13050215934830        3.76035386975488       -2.23272855695873
H           -5.86615610071888        3.45938329385866       -4.02668959924245
H           -5.13479557532099        4.87790991548477       -2.98314551356402
C           -1.38192942069774        3.73616555005018        2.91232598411686
C           -1.84821468128685        2.59982427735607        3.49755545445181
C           -1.05946531454833        2.05730632010638        4.60922730982276
C            0.19893954712228        2.69376791964407        4.86302140881997
C            0.50425395911860        3.94630308659851        4.28768785650746
C           -0.26031777722226        4.46998310053134        3.25072669343212
C           -1.20488993561782        0.74454293276906        5.14851520323437
C           -0.06287609782692        0.02744069315890        5.60930570802864
C            1.19208754369866        0.71421540266195        5.78882868583885
N            1.19428660993148        2.06344359410476        5.62744624321596
C           -2.41361422770794        0.07928500213936        5.25249410304426
C           -2.45851584031083       -1.32662100968547        5.60237876023992
N           -1.29466212405906       -1.98318595734370        5.89916817085159
C           -0.14475655767527       -1.32117560077092        5.98824682881008
C            0.97209270935794       -1.98958449505532        6.53157704134458
C            2.21982707914082       -1.36973967291181        6.68703967237737
C            2.30561929262884       -0.09745313075593        6.26436900324455
C           -3.73018485967715        0.71367583494582        5.25810242262992
C           -4.89964478833448       -0.06184623426677        5.21204641615509
C           -4.82617965800088       -1.39228978090841        5.46901303780036
C           -3.67144193418464       -1.98914944386360        5.67265433266067
O           -3.75568638935321        2.07705011038914        5.52067969627343
O           -2.94192434743730        1.91263938797883        3.01658762327703
C            0.21273512614467        5.50086066357994        2.34765104514621
C           -6.06660304520411       -2.17604633098929        5.80641622556876
H            1.41756699010566        4.38133362238595        4.66974005703471
H           -1.82880610647429        4.11982501512100        2.06992133318584
H            3.26888037378556        0.32655662585251        6.31721410015598
H            0.87146188387207       -3.08471526305024        6.57830423410869
H           -3.67716811065157       -3.05999292755990        5.83019634570050
H           -5.77379677507622        0.43595144608221        4.71017130754348
O            1.34459852619901        5.82615848916894        2.44941456579099
O           -0.74718748219123        6.07961784856304        1.59848183464284
C           -0.21473095568964        7.24015934882472        1.05753806029483
C            3.53228080814219       -2.00967610361154        7.02506769044485
O            3.64093082622715       -3.14437803815732        7.50071391725347
O            4.56565258381079       -1.22937033368332        6.69086985080897
C            5.72579357310716       -1.80692399125161        7.22246151275881
O           -7.04801223588612       -1.95726935745904        5.14194115322235
O           -6.01514389321278       -2.93743591896022        6.94765316328794
C           -7.21292732384718       -3.62681918543340        7.15115816329978
C           -4.95459780685163        2.65960679932188        5.86868674392943
C           -3.68284113682406        2.59129188358641        2.05479246020704
H           -7.43119628931628       -4.22607794725959        6.20622607140901
H           -8.06548455146707       -2.91765848248592        7.29781126410398
H           -7.07314693247270       -4.33087306029711        7.91223421050944
H            6.57332189837178       -1.29353136199234        6.78341268688262
H            5.74663761932316       -2.84282155125561        6.88089468184451
H            5.69426191474290       -1.72781984964892        8.29460302186842
H           -4.10481209541493        3.44288266176275        2.60483747673152
H           -4.49244774344916        1.87419893016926        1.82433103764650
H           -3.18901540870812        2.85154642679373        1.06781919454921
H           -5.55414326821421        2.76698137191684        4.93950725322359
H           -4.78658370641210        3.62090640967288        6.25983200635257
H           -5.43485580473958        1.97242995129449        6.65265772412460
H            0.89164886030839        7.38838561720231        1.13776105146914
H           -0.62894889903848        8.04195665205089        1.64837664327952
H           -0.59282546386754        7.45699159724320        0.03719083132488
116
 energy: -22.768274171763 gnorm: 0.451575790870 xtb: 6.6.1 (8d0f1dd)
C           -2.56920650171642        1.02117823851791       -1.28312086661238
C           -1.95107337866571       -0.06432181435654       -0.64301759647254
C           -1.05435307591983        0.38825341159183        0.40947556057155
C           -0.45117382083471        1.69459711239576        0.42580718518382
C           -1.09378869356606        2.68215011912883       -0.34543512388703
C           -2.15371683858640        2.35603346905005       -1.10992470991926
C           -0.38890423473742       -0.60808087144487        1.23341915251049
C            0.97291469321223       -0.26792696507201        1.63127811345787
C            1.51110661458975        0.99294771989857        1.53952402957077
N            0.78918760214063        2.00229330791820        0.88299135214523
C           -0.94178272172316       -1.70373987711771        1.93248819208907
C           -0.03426128884072       -2.66404604339269        2.42696726692771
N            1.28360965609325       -2.40343020671433        2.65508754765301
C            1.76046451285028       -1.23066576526033        2.28327774584756
C            3.01325570034396       -0.89846495265056        2.86066700585353
C            3.47128164118285        0.42467935903108        2.71310979947522
C            2.74163953358195        1.32953364316625        1.95986710408778
C           -2.33871308989452       -2.05853919272991        1.92563228130685
C           -2.77488174360436       -3.24984479341814        2.45727730693962
C           -1.80209300997785       -4.19134254809620        2.86505040523229
C           -0.45631948610671       -3.83606391773729        2.97903888446442
O           -3.22120724110773       -1.15767996140861        1.39509929489843
O           -2.23065197960268       -1.38969708437470       -0.94049385814059
C           -2.98363140104664        3.32857705730857       -1.71027264595343
C           -2.27623431552133       -5.60526966622428        3.23305400433237
H           -0.82142461150427        3.78847637553896       -0.29773782288272
H           -3.64104973884111        0.82221005244517       -1.67093809501222
H            3.19353680950431        2.27255513066233        1.82484439816900
H            3.35515725382186       -1.61803263547468        3.55002781834671
H            0.27346951907602       -4.55744722522332        3.30106321966344
H           -3.74224669428725       -3.43196916165460        2.66962435188204
O           -2.33145538686663        4.15890639991089       -2.32548230781157
O           -4.30271422210263        3.40579301561673       -1.29294417843284
C           -4.73632321516560        4.64173281556982       -1.87616725958968
C            4.80106495410725        0.65554684164365        3.37084076919712
O            5.34995115449292       -0.09208709395173        4.16138644909422
O            5.58233541064899        1.59359450523731        2.89065263877465
C            6.82811010780113        1.60351836142502        3.55740221750812
O           -3.43513468639447       -6.07711383601531        2.93062562780974
O           -1.33459727123338       -6.36674474901783        3.88983952244791
C           -1.92948501332610       -7.60256646508724        4.41371112961500
C           -4.58341899879046       -1.50670169493707        1.19230592619610
C           -1.76668821387033       -1.74798558171665       -2.14669295990505
H           -2.94230989303882       -7.52414036371264        4.22302833629218
H           -1.81709823889052       -7.60040601485850        5.50271107236115
H           -1.65236024310068       -8.47734256876834        3.86301999848605
H            6.85913944998543        0.51642918809283        3.81318125878336
H            6.96833568013764        2.20101593520426        4.43321760995254
H            7.56182872455147        2.09129619765667        2.89891200551069
H           -0.74228191833994       -1.55039651029938       -2.24978277320413
H           -2.31206268513039       -1.71151063319696       -2.98107853901683
H           -1.73417172385379       -2.90563230109617       -2.05330122581410
H           -4.64439454951034       -2.58443030575674        0.89449914499767
H           -5.24007688952186       -0.84949923115439        0.61081024499390
H           -5.08938603959466       -1.39651401831673        2.16849172353219
H           -3.94451646194321        5.26252785301265       -2.34617106714959
H           -5.44808193203990        5.13078427385312       -1.20268123916602
H           -5.11290982762926        4.48709196677035       -2.88419527052917
C           -2.17115921962619        3.57963414660670        2.76059660446554
C           -2.41303478312492        2.44505723312910        3.50344979991045
C           -1.43445669941039        2.13128912749648        4.54689430836920
C           -0.16205816054262        2.72318185462433        4.55790019704052
C           -0.07602634357035        3.92347140130332        3.91030344979290
C           -1.06484615612631        4.34974119949466        2.97376759356962
C           -1.58447462109219        0.84652121411336        5.26591108215865
C           -0.39909218144533        0.26284277378498        5.77531420294633
C            0.79658680227875        0.95118491064080        5.56473071171794
N            1.00412202698811        2.18843980922409        5.00832731102870
C           -2.81709197036155        0.38978145993806        5.76659285523198
C           -2.83155192367893       -0.90815820923526        6.22611812581476
N           -1.75617856834247       -1.62757545629005        6.47212941898701
C           -0.57288589441250       -0.96390756691093        6.47834887835260
C            0.63905060148007       -1.63787810785169        6.64204237726365
C            1.80702547151503       -0.92940911307450        6.84301773381614
C            1.86920786022990        0.28864164752707        6.11127569226136
C           -3.93803675763577        1.25414047241168        6.06990792466663
C           -5.12754953908951        0.54852303155941        6.33339525932545
C           -5.25092423437364       -0.82946095049958        6.47619941567741
C           -4.07504889846416       -1.55178822234133        6.54222839489782
O           -3.60068140150274        2.67330065913800        6.18687805115394
O           -3.47132791180511        1.54644426073539        3.34854464674560
C           -1.03702089666921        5.68841906839046        2.26544200850749
C           -6.46028789495610       -1.51172670315311        7.06461620465912
H            0.75505693320607        4.51127762713237        3.94523177936848
H           -2.73416130490504        3.81110164389472        1.84907678984108
H            2.84529522447080        0.78292256836046        6.25507652735226
H            0.66754509607458       -2.65902278121307        7.09877261554024
H           -3.95114684665389       -2.53518550308674        6.97487650420953
H           -5.97583752726386        1.17641309772919        6.44097928057129
O           -0.22089193119245        6.56025519086795        2.64393124308648
O           -1.92730899705729        5.73998772165129        1.19998084241585
C           -2.21771686004073        7.06393049607433        0.62124746547795
C            2.96747732625248       -1.32569199587215        7.71096882440763
O            2.77129931301551       -2.29266643189717        8.37858110654955
O            4.15529295830655       -0.61651690776703        7.52247415072007
C            5.18117646348285       -1.07150218615368        8.22902274872481
O           -7.48595555456307       -0.92802156845259        7.47933369433987
O           -6.23399920381993       -2.83347407690368        7.00721472139295
C           -7.09578535967210       -3.43781012942152        7.82012986581980
C           -4.56811197665567        3.63218926115548        6.54253532802013
C           -4.51350845629970        1.55893363862537        2.39975098355774
H           -7.14846040068620       -2.92019624795256        8.80736005778447
H           -6.91876861057118       -4.49745379345772        7.76740758702681
H           -8.17396640799314       -3.43744652275359        7.34326379215075
H            5.38879578022330       -2.16587308191283        8.14615591156302
H            4.91781278287182       -0.79292022616454        9.32732436776168
H            5.99861114215878       -0.39989401237019        8.00836408310957
H           -5.38939260594400        2.29350989027833        2.65422163994903
H           -4.78808291009379        0.51576249121173        2.53002881667528
H           -4.08206186848669        1.79604952263512        1.32652356330779
H           -5.55113218710882        3.12957943428943        6.11921113725156
H           -4.19200402117144        4.47296281772538        5.92925208098577
H           -4.62339369253648        3.76934290199841        7.60085021304608
H           -3.23282952043685        7.13259412388889        0.12558936261178
H           -1.57797872171596        7.03274188005427       -0.23543789972392
H           -1.84967340353354        7.84056369320130        1.30181228101705
116
 energy: -22.809849083590 gnorm: 0.409603539216 xtb: 6.6.1 (8d0f1dd)
C           -2.14510987709228        0.90882543998522       -0.76026489224218
C           -1.63782242722242       -0.15307874588812       -0.09888196591147
C           -0.70764273889580        0.20916903863939        0.91920340157991
C           -0.03410035405014        1.54169309680184        0.94602053522394
C           -0.68287893579453        2.54883041085241        0.11227737967657
C           -1.72876600240211        2.21043890827818       -0.75674931109600
C           -0.08577763209692       -0.70949725192052        1.84035373041155
C            1.16903048613824       -0.45501822676744        2.23321938802268
C            1.82130255545545        0.71133836226704        2.02119904737872
N            1.18863071045181        1.75890258356848        1.52473849839774
C           -0.74304904912430       -1.85265665128988        2.43576719872536
C            0.17513067466217       -2.86301095438105        2.94215785229364
N            1.46560162235035       -2.70483472323779        3.15024808794604
C            1.98727697835176       -1.59177759370126        2.64326671316230
C            3.38059462139569       -1.36752965498553        2.96898190917869
C            3.97992996305606       -0.14649785194304        2.71512101527507
C            3.19461245286544        0.99232917850314        2.36441344505490
C           -2.21975139187055       -2.09646294863436        2.41752480670584
C           -2.67119419051363       -3.39191909186591        2.72735096932761
C           -1.79185799905679       -4.39322986285720        3.14908704287030
C           -0.42672362943916       -4.08381717892052        3.26178762697336
O           -3.01433921405541       -0.99232038813191        2.10297292106617
O           -1.76031930186873       -1.50119922214469       -0.51411055204108
C           -2.63707435992761        3.30449889164044       -1.11661073087922
C           -2.28166300540601       -5.85484765856524        3.27581087782227
H           -0.40681263599027        3.62996293173182        0.24226216566291
H           -3.23445374558785        0.86563604718868       -0.97218041007936
H            3.44869039798886        2.07018538174751        2.36157339295664
H            3.83959720342572       -2.01607793900200        3.62382749506852
H            0.26012011268751       -4.75673725451200        3.65574858747886
H           -3.68873655853655       -3.60823847302247        2.79547421889115
O           -2.15803319916533        4.18083575488815       -1.88970281996075
O           -3.86801517366271        3.26325107175309       -0.43492006183100
C           -4.32305302303350        4.51293062032650       -0.69821309788544
C            5.35431237953221        0.08857649571849        3.14624480717369
O            6.10256681198683       -0.82377529533992        3.45405565892159
O            5.84523440970851        1.33857560752285        3.27002141351836
C            7.23467962992662        1.17342057390303        3.75497864426751
O           -3.39489630029201       -6.23385582500349        3.12683667649950
O           -1.19827209813398       -6.68769946562762        3.58692017133542
C           -1.35174966402130       -7.95836162106267        3.22585907540494
C           -4.34313621728792       -1.31558549806937        2.47006361812453
C           -1.95665615584388       -1.65579666931015       -1.93371872083724
H           -2.30238296589337       -8.41642428451595        3.60170587330890
H           -0.50705871312239       -8.58807930936174        3.66883379806090
H           -1.33722764805531       -7.98211779494537        2.08215408141767
H            7.56913661109448        2.00172119428191        4.38069333672053
H            7.77628838819059        1.14102918741041        2.74601330915510
H            7.33087932295051        0.19364796575553        4.27140468821130
H           -1.29434473802716       -1.03038952378314       -2.44399489031134
H           -3.02254163660832       -1.61334353506407       -2.08876655849605
H           -1.57343892059572       -2.63122443354046       -2.20397213647381
H           -4.64707136532133       -2.27857017791197        1.93086158761295
H           -5.01796755490980       -0.49107126621594        2.18056269924778
H           -4.35258722667712       -1.29695804314294        3.57639508914842
H           -3.68784344861290        5.18926000213541       -0.03311089407719
H           -5.39421573444817        4.53600992166907       -0.29935219028901
H           -4.18892934743909        4.69246972215208       -1.82495149158666
C           -2.69701521675565        3.88038630570780        2.53723617726970
C           -2.89941018252094        2.77095953742672        3.32619305250070
C           -1.98457599350362        2.42212970310091        4.43387861977678
C           -0.74381895504197        3.12302503325526        4.38682069549494
C           -0.58978741115110        4.28043317558165        3.51622626566638
C           -1.59290547999750        4.70760473539494        2.72499059983274
C           -2.09797889314687        1.30446979317256        5.19372882311554
C           -0.94533303634140        0.71751340631824        5.76805459219126
C            0.28564930157684        1.46432314998191        5.72284842380545
N            0.27209156424451        2.72716981068871        5.16801873710132
C           -3.26876423636678        0.52285591253487        5.57454106339238
C           -3.10512075609387       -0.86090422146192        5.91018045681924
N           -1.90454397182431       -1.46451881046437        6.14468967998353
C           -0.84644010405370       -0.63257653316381        6.26991028580573
C            0.41700889153864       -1.08001340410036        6.65540278041608
C            1.55524712574967       -0.27278042151415        6.60814191691318
C            1.61305639477851        1.00749329212851        6.08574122375052
C           -4.48385671266887        1.17677748818980        5.72241261334336
C           -5.59993580550956        0.44334420015669        6.17528182841667
C           -5.39970983436621       -0.94360801317883        6.45732611532803
C           -4.21128748587975       -1.57502730875723        6.41352169626606
O           -4.39055098151201        2.58276532760488        5.81464244907599
O           -3.87518911576681        1.85430844452735        3.01264526491751
C           -1.27942150662548        5.77232460556771        1.77800888792072
C           -6.41806310899500       -1.68686013659634        7.13962476541539
H            0.34651852229629        4.73639957939183        3.43493782661389
H           -3.32818590686932        4.21600463973723        1.69409466367494
H            2.44630857063611        1.74895892630247        6.11298675505938
H            0.56656995961399       -2.18316055566976        6.94587851102632
H           -4.09700438466924       -2.58560899638904        6.93164994070057
H           -6.38460459137819        0.91255686462965        6.67763089290271
O           -0.21995254867595        5.87386684821361        1.26969460796553
O           -2.30197114128268        6.58434645680903        1.27238052911067
C           -1.96597476360434        7.32585495064485        0.09433395330329
C            2.76178911639851       -1.09545042793010        6.90397461919579
O            2.85056785289564       -2.16090516447780        7.54771411745932
O            3.85862201566259       -0.38851370862307        6.59149349462773
C            5.04973114734589       -1.16678003443647        6.50729773309497
O           -7.58524213660134       -1.33761680046244        7.08887117496820
O           -5.94508353193742       -2.74610259160692        7.91436627220110
C           -7.11276660367028       -3.40838338013608        8.24312130650770
C           -5.44813344138280        3.43574666756506        5.39425232389812
C           -4.73464000081338        2.33970908375596        1.98967133076508
H           -6.90056562360188       -4.10490328564329        9.07618111826879
H           -7.12512294254836       -4.09310374682050        7.40593356732856
H           -8.06184381239987       -2.77992670799364        8.19066935747285
H            5.78399344514655       -0.77456423096170        7.32020486036941
H            5.53704496994756       -1.05932443703858        5.53708812443933
H            5.05550836700058       -2.16061749540058        6.89840668260965
H           -4.83407114801893        3.47706756051855        1.98249968847911
H           -5.81211217166886        2.04532192371080        2.34164452495149
H           -4.38433744191248        2.06093797715048        0.90871547777035
H           -6.22198342460885        2.78804556286891        4.94025208932841
H           -5.15467890552435        4.12660602540712        4.54921343341027
H           -5.99058242910402        3.89457400136820        6.34966711140564
H           -2.71020241910728        7.83428806278734       -0.54288920797589
H           -1.48996005611259        6.63448056403044       -0.61059297537052
H           -1.14448213334238        8.00146869372288        0.30956496935431
116
 energy: -22.802701349995 gnorm: 0.422519182459 xtb: 6.6.1 (8d0f1dd)
C           -2.11067421525555        0.99281934144921       -0.50686965336277
C           -1.59378906053655       -0.11294645196783        0.18347990804674
C           -0.42410041922712        0.07354279942977        1.02034935365241
C            0.17095277144308        1.32836863202296        0.98809202439157
C           -0.42151862566668        2.45125598001390        0.39320737014017
C           -1.54928633645365        2.26738770619845       -0.42557074124256
C            0.26664350968020       -0.99737132071650        1.77037303143102
C            1.61071819272197       -0.76456512629004        2.04344026372584
C            2.15715286820853        0.54913467824001        1.93727283382557
N            1.42059852295171        1.59966376773832        1.55408860486602
C           -0.26694464926524       -2.25774519100313        2.29431538516177
C            0.66456359737849       -3.22569241926699        2.80241730733369
N            2.01449101845103       -3.10280831456968        2.68972726454814
C            2.45312183447691       -1.89935033049148        2.47520757337333
C            3.82332947681047       -1.65117670465549        2.75864821567682
C            4.33088158491747       -0.32674726649386        2.53827183894018
C            3.45359951490626        0.67979613175121        2.31246940603279
C           -1.63163183621234       -2.37609517053575        2.58668429128125
C           -2.12918292362445       -3.67805204327101        2.94727440260928
C           -1.20648590308701       -4.66365388232783        3.34059705158412
C            0.13582151983227       -4.39921376338427        3.32061550908209
O           -2.42727170527137       -1.19521845831111        2.44204096137007
O           -2.21403900329276       -1.33569854657596        0.06096145662767
C           -2.14514676497006        3.42950603426724       -1.23242028977374
C           -1.65195444691759       -5.93668848853453        3.80281225312044
H            0.05675770637211        3.40768537946515        0.58653057591207
H           -2.87363074229823        0.77227799862562       -1.38160824737688
H            3.98926295442653        1.62640856589200        2.16152472301911
H            4.61994705761010       -2.27978343158948        3.16505266062871
H            0.75641942145392       -5.23810733352635        3.46782832620647
H           -3.11440059051141       -3.89142241488928        2.81384965074934
O           -1.62269111631021        4.50837017993505       -1.16749830519365