116
 energy: -22.928061455056 gnorm: 0.329736929581 xtb: 6.6.1 (8d0f1dd)
C           -3.31122850772930        0.79849766164622       -0.92477639677520
C           -2.44380812530352       -0.12270372891954       -0.27661132624697
C           -1.41337090092821        0.39579727573559        0.56335275196199
C           -0.89266158675590        1.65801491088749        0.27377586709581
C           -1.72665675402493        2.51431363229076       -0.49448366572522
C           -2.95444148494349        2.13954154133227       -1.01494489940871
C           -0.74098268209890       -0.43411532818871        1.49825021926784
C            0.56872586496315        0.03782116815119        1.86248088067890
C            1.03782416582094        1.29402317993033        1.50887470833621
N            0.31238977034758        2.07067427098208        0.65193736800696
C           -1.29695700510141       -1.39996043042223        2.41574187746061
C           -0.38243517664656       -2.18060797534842        3.13232615520648
N            0.91308504082021       -1.90366887689689        3.30325166013478
C            1.37712470144904       -0.74872102533751        2.81811050966982
C            2.52149331701875       -0.17739833758153        3.39379298866852
C            2.95849061756259        1.02681208890480        2.95105897606587
C            2.24288949469137        1.78498308775960        2.03503020483770
C           -2.74860936222260       -1.74497937691422        2.38401158947411
C           -3.09416315450955       -2.91614440870436        3.00571134491758
C           -2.16786021984049       -3.77788778654213        3.63251872101904
C           -0.85708937311598       -3.40495313382985        3.68547234358092
O           -3.71994433332149       -0.94984598373544        1.67726658385724
O           -2.55702603277562       -1.47241711578389       -0.57241635275616
C           -3.84297843593025        3.13357444054366       -1.60938954875544
C           -2.68769581069131       -5.03867041417370        4.30484659386931
H           -1.39666850744143        3.51251503834900       -0.76806311868865
H           -4.27662633836220        0.55105838579656       -1.33106614114542
H            2.66329581305412        2.73912661909249        1.72562431984580
H            3.05775395548473       -0.69369546277216        4.16536137542516
H           -0.24710966264510       -4.12034095424229        4.22946223699121
H           -4.11477991332403       -3.04712728052358        3.03244694615357
O           -4.21824883374556        4.03433712717988       -0.87713382485991
O           -4.44510595673734        2.90643496899600       -2.81853501752979
C           -5.44216520282800        3.83300025693726       -3.02488532025093
C            4.23586651889298        1.50004220933226        3.59165660008449
O            5.05927614697201        0.66079890002952        3.91714215179376
O            4.47001334453535        2.86385149488593        3.72605651435371
C            5.79457498613219        3.08584475587818        4.15829123132174
O           -3.82227255313510       -5.27347675879771        4.16636005494405
O           -1.85023202017753       -5.79767454267276        5.06656077253571
C           -2.55119635829503       -6.86252441382958        5.62930343183426
C           -5.07197156564436       -1.42399175670916        1.58830531863830
C           -1.33089900128490       -2.23622472573986       -0.99264499351172
H           -2.54510546830388       -7.76426885143998        4.99136022291012
H           -3.57194749219491       -6.44405511486021        5.74196173723541
H           -2.09133598235598       -7.02043774843818        6.64022264233588
H            5.72707967266424        3.46798026205549        5.10135971236643
H            6.34060091246885        3.78468702308830        3.50069950143490
H            6.17933064298187        2.03010500085905        4.19342358084693
H           -0.91862729772622       -2.57650129080332       -0.01361370304871
H           -0.49769766914251       -1.60651221708571       -1.34094446550576
H           -1.52632419730509       -2.94569707152159       -1.75361447637286
H           -5.11788846557077       -2.41810833635233        1.17520213188926
H           -5.67929807973498       -0.69619639428435        1.04301666067831
H           -5.57598832326623       -1.42383358739762        2.57928294206544
H           -6.13050215934830        3.76035386975488       -2.23272855695873
H           -5.86615610071888        3.45938329385866       -4.02668959924245
H           -5.13479557532099        4.87790991548477       -2.98314551356402
C           -1.38192942069774        3.73616555005018        2.91232598411686
C           -1.84821468128685        2.59982427735607        3.49755545445181
C           -1.05946531454833        2.05730632010638        4.60922730982276
C            0.19893954712228        2.69376791964407        4.86302140881997
C            0.50425395911860        3.94630308659851        4.28768785650746
C           -0.26031777722226        4.46998310053134        3.25072669343212
C           -1.20488993561782        0.74454293276906        5.14851520323437
C           -0.06287609782692        0.02744069315890        5.60930570802864
C            1.19208754369866        0.71421540266195        5.78882868583885
N            1.19428660993148        2.06344359410476        5.62744624321596
C           -2.41361422770794        0.07928500213936        5.25249410304426
C           -2.45851584031083       -1.32662100968547        5.60237876023992
N           -1.29466212405906       -1.98318595734370        5.89916817085159
C           -0.14475655767527       -1.32117560077092        5.98824682881008
C            0.97209270935794       -1.98958449505532        6.53157704134458
C            2.21982707914082       -1.36973967291181        6.68703967237737
C            2.30561929262884       -0.09745313075593        6.26436900324455
C           -3.73018485967715        0.71367583494582        5.25810242262992
C           -4.89964478833448       -0.06184623426677        5.21204641615509
C           -4.82617965800088       -1.39228978090841        5.46901303780036
C           -3.67144193418464       -1.98914944386360        5.67265433266067
O           -3.75568638935321        2.07705011038914        5.52067969627343
O           -2.94192434743730        1.91263938797883        3.01658762327703
C            0.21273512614467        5.50086066357994        2.34765104514621
C           -6.06660304520411       -2.17604633098929        5.80641622556876
H            1.41756699010566        4.38133362238595        4.66974005703471
H           -1.82880610647429        4.11982501512100        2.06992133318584
H            3.26888037378556        0.32655662585251        6.31721410015598
H            0.87146188387207       -3.08471526305024        6.57830423410869
H           -3.67716811065157       -3.05999292755990        5.83019634570050
H           -5.77379677507622        0.43595144608221        4.71017130754348
O            1.34459852619901        5.82615848916894        2.44941456579099
O           -0.74718748219123        6.07961784856304        1.59848183464284
C           -0.21473095568964        7.24015934882472        1.05753806029483
C            3.53228080814219       -2.00967610361154        7.02506769044485
O            3.64093082622715       -3.14437803815732        7.50071391725347
O            4.56565258381079       -1.22937033368332        6.69086985080897
C            5.72579357310716       -1.80692399125161        7.22246151275881
O           -7.04801223588612       -1.95726935745904        5.14194115322235
O           -6.01514389321278       -2.93743591896022        6.94765316328794
C           -7.21292732384718       -3.62681918543340        7.15115816329978
C           -4.95459780685163        2.65960679932188        5.86868674392943
C           -3.68284113682406        2.59129188358641        2.05479246020704
H           -7.43119628931628       -4.22607794725959        6.20622607140901
H           -8.06548455146707       -2.91765848248592        7.29781126410398
H           -7.07314693247270       -4.33087306029711        7.91223421050944
H            6.57332189837178       -1.29353136199234        6.78341268688262
H            5.74663761932316       -2.84282155125561        6.88089468184451
H            5.69426191474290       -1.72781984964892        8.29460302186842
H           -4.10481209541493        3.44288266176275        2.60483747673152
H           -4.49244774344916        1.87419893016926        1.82433103764650
H           -3.18901540870812        2.85154642679373        1.06781919454921
H           -5.55414326821421        2.76698137191684        4.93950725322359
H           -4.78658370641210        3.62090640967288        6.25983200635257
H           -5.43485580473958        1.97242995129449        6.65265772412460
H            0.89164886030839        7.38838561720231        1.13776105146914
H           -0.62894889903848        8.04195665205089        1.64837664327952
H           -0.59282546386754        7.45699159724320        0.03719083132488
116
 energy: -22.654733934282 gnorm: 0.503101010447 xtb: 6.6.1 (8d0f1dd)
C           -3.51768484760620        0.54386310987104       -1.25836614557803
C           -2.55946458084092       -0.26020568526111       -0.47681671745273
C           -1.46318841217566        0.24905688019869        0.34769311559309
C           -1.19459307372744        1.55157780594193        0.00910728565997
C           -1.91556038903556        2.37519342595978       -0.86175441561660
C           -2.89942284734656        1.86920049717610       -1.63650712961342
C           -0.66049436231004       -0.53727193408796        1.28987488396782
C            0.56004424799311       -0.02203659695416        1.60426112297233
C            0.83773307083197        1.39716915180480        1.26074323105446
N           -0.15762021967010        2.22761300894219        0.70013939874039
C           -1.01804564941497       -1.82142977349714        1.86327270336573
C            0.05440443546924       -2.60182824752867        2.40820006543629
N            1.29400801065154       -2.17407060222468        2.52486062445121
C            1.50942845880858       -0.81374158465471        2.36378083446712
C            2.75092718657244       -0.18242117797129        2.69787288220619
C            2.97007039955169        1.21377501357414        2.48749903595515
C            1.99318438021903        1.92335311411411        1.76299520342795
C           -2.36048475246125       -1.92822792758388        2.21812721019105
C           -2.71135512259005       -3.14852399396139        2.79531095772343
C           -1.78904070907590       -4.18611812473741        2.98288538727530
C           -0.43511694925376       -3.80413131059643        3.00229524391103
O           -3.14845130241334       -0.81470302779443        1.99910907408648
O           -2.59852359236533       -1.75329984351634       -0.49511438067156
C           -3.39493984820152        2.76952409615627       -2.64733823008110
C           -2.23787753308191       -5.38034976800120        3.74278983453688
H           -1.37114541940046        3.25451823386691       -1.14752767833620
H           -4.09774459090119       -0.05687992370568       -1.90422159011795
H            2.29000731756058        2.98019091568640        1.46614634567716
H            3.64581236982301       -0.71020860355650        3.21686166674017
H            0.25104334025976       -4.53739534462783        3.42048137339434
H           -3.75538814846913       -3.31989822412349        2.79165639328813
O           -3.05265846629664        3.94972675725239       -2.62056534048324
O           -4.45403800652255        2.37956105459909       -3.41915649524187
C           -5.19046214975710        3.42934385652824       -4.07997347841631
C            4.33679121104893        1.82629324506158        2.91294078079139
O            5.26918949538572        1.15147605347010        3.29111049017280
O            4.28501373754246        3.12117335128600        2.52359274657328
C            5.50961149173850        3.84620366610690        2.65384046618061
O           -3.43663013142976       -5.67373193943141        3.78921408681709
O           -1.28818730311652       -6.22014110829392        4.18943668934516
C           -1.76635062704882       -7.37357649284401        4.97741902749496
C           -4.47311595724700       -0.80519279817471        2.55881752577534
C           -2.35991211881690       -2.18023762167343       -1.95603324039401
H           -1.29347192052654       -7.74557745015503        5.83924732108870
H           -1.84725157133041       -8.22603073628516        4.41902258100952
H           -2.75801892281532       -7.25851342786085        5.14862244733990
H            5.88895487905596        3.55956993165720        3.55171307653010
H            5.61456466062681        4.92903631336633        2.24697512727870
H            6.23200467513057        3.26418550323797        2.01003431191934
H           -2.11695568773248       -3.20459188778693       -1.81172863563185
H           -1.52689554305289       -1.50140144034446       -2.16822621175121
H           -2.94769840420630       -1.85253338131353       -2.96229784907889
H           -4.87360971004617       -1.72226122890214        2.05067480204925
H           -5.06023881443834        0.08012191220770        2.24487681259105
H           -4.46152608123614       -1.05138771279015        3.55180541934431
H           -6.16471020598679        3.20958123470300       -3.91998972090119
H           -5.06982862039023        3.46054407942418       -5.26095309280679
H           -4.88257462344514        4.38086369172194       -3.49518739442801
C           -1.81727942868587        3.44151830165251        3.27420337623041
C           -2.08271570092042        2.54522516715917        4.23348236063292
C           -0.99006069834985        1.99246007335405        4.94584483380845
C            0.38014476492527        2.54036966552003        4.69770183616753
C            0.44381857938731        3.80007116387754        4.02211066931467
C           -0.63744050498014        4.19848370280056        3.23386011957254
C           -1.21053641800453        0.95224787752873        5.88433224601439
C           -0.15068646271066        0.02931754386228        5.94859531453590
C            1.10831560024455        0.63529384773075        5.89909280992172
N            1.42046870715094        1.82680989514610        5.31963749795450
C           -2.48544731167517        0.23461355032983        6.23363912951590
C           -2.51692132696773       -1.19322736249743        6.15445878590316
N           -1.37785991366790       -2.01309352459793        6.21123083657731
C           -0.18860927407332       -1.33824040465138        6.22670062708648
C            0.98593854564875       -1.96395116059362        6.78763520102433
C            2.25544194770186       -1.39384457340818        6.83259035574536
C            2.25781403813508       -0.03700009446720        6.29610969749767
C           -3.54680238307020        0.89359147424787        6.93815247363058
C           -4.76029873384242        0.19309050779293        6.96873680175379
C           -4.92727848706197       -1.05847699801594        6.44711269230368
C           -3.83631255867957       -1.77360693404554        6.06867111039869
O           -3.78486860598662        2.10712657656112        7.49398095677576
O           -3.36385609045109        2.13027583532136        4.43454155066111
C           -0.45184944927350        5.43953304768431        2.39149007257894
C           -6.31949170388905       -1.47916300879199        6.13212438328423
H            1.42132963868392        4.26870984643424        3.96210044958206
H           -2.65682367029811        3.62343840347626        2.60004902217086
H            3.07642841200752        0.59630824981662        6.63738385471203
H            1.00505856970872       -3.02386284272071        7.08729653236650
H           -3.89100481753866       -2.84132917867192        5.64373644031502
H           -5.66114405445653        0.82817501060749        7.20744355652306
O           -0.81164107573871        6.54664526320177        2.71187435900604
O            0.10004906117374        5.44522016883552        1.12288909568944
C           -0.18184443806816        6.62075782764566        0.46114118247035
C            3.16982274305977       -2.09696006220778        7.75860952528058
O            3.22436888421289       -3.30528802515839        7.64759545056540
O            3.95152941806313       -1.26195376669143        8.54261522057846
C            4.39328316063842       -2.14321298948401        9.40099175511580
O           -7.29089937103645       -0.82665059222056        6.48393408794122
O           -6.23002396519777       -2.61352595620561        5.36060787938008
C           -7.52305213950664       -3.09937277007351        5.10211402933465
C           -2.81593255820408        3.05285924103959        8.08066797112373
C           -4.29049032506854        3.14660391556128        4.12683555942975
H           -8.10790783617925       -2.22038803860386        5.08704198856020
H           -8.08419470179667       -3.82794161510924        5.60533994454833
H           -7.36763951171277       -3.50948204288445        4.01355126135327
H            4.96682958170638       -3.04771879321001        8.85159804346282
H            3.35790202047873       -2.54002312712714        9.85783984443037
H            4.94519296252838       -1.71867949093340       10.29690374023579
H           -4.24671371148284        3.14182362627467        3.03417632064062
H           -3.84479148023911        3.86997937217311        4.80993349456736
H           -5.28388869432049        2.77044871837080        4.38423153041292
H           -3.28403649812509        4.03613558819571        7.88600893257529
H           -1.88244790068753        3.12889946916790        7.61973708871983
H           -2.80586595444778        2.84461984694172        9.05164401775742
H           -0.64048293137617        6.64448406051227       -0.66313755984381
H            0.66190187137297        7.39937968938169        0.50956454406728
H           -0.97742841598756        7.25835784720938        0.99027809372631
116
 energy: -22.665927914600 gnorm: 0.513682561185 xtb: 6.6.1 (8d0f1dd)
C           -3.31658868782144        0.42768911514893       -1.16724855232101
C           -2.54589315257074       -0.35465762062721       -0.31964630762023
C           -1.46891642004827        0.33833333083284        0.33103528577030
C           -1.12133965505573        1.61552239825690       -0.01509020985192
C           -1.88200173081356        2.29631994100177       -0.96232821559640
C           -2.87115290062608        1.64069918966689       -1.72088471334498
C           -0.59225391893946       -0.44397493887352        1.31117541904745
C            0.70653813342292        0.01660188986442        1.45189000285205
C            0.96282349647440        1.34544738393719        1.02924590043233
N            0.09605240872752        2.01555245970051        0.30849776049682
C           -1.12036453282046       -1.32180697856777        2.29884597619738
C           -0.12979210255647       -2.25992706073246        2.85865210886722
N            1.19843529001672       -1.93024440375890        2.97656911122630
C            1.52768342130285       -0.65548483783188        2.45788077203819
C            2.68414360536501       -0.01071406936180        2.87194502676502
C            3.12474009087458        1.13929354473024        2.27954993406662
C            2.25094148420592        1.77988417510005        1.34522043772393
C           -2.49735750194196       -1.77195210061714        2.41648754209950
C           -2.75932450055959       -3.12036099563739        2.93458219367171
C           -1.78236327128964       -3.91613568918169        3.46493957232095
C           -0.51774113418433       -3.51164239425380        3.35695373680353
O           -3.64049969479890       -0.95330906678656        2.04732677433544
O           -2.81097958116072       -1.81748387464871       -0.13328518119393
C           -3.70216689766495        2.53849936168661       -2.65092203660751
C           -2.07005776371573       -5.24187637523296        4.01312854487942
H           -1.87179825939100        3.33260739203262       -1.42843920643637
H           -4.17072539958388        0.06024502603039       -1.59274240575833
H            2.41009185053412        2.90541257581222        1.07297358863281
H            3.47591221889409       -0.66165054316410        3.52797624568788
H            0.20216220428975       -4.09967482290666        4.02100168279846
H           -3.69090830046922       -3.41820950067483        3.27944149443618
O           -3.79230192230757        3.75062094217885       -2.60255136268282
O           -4.35748252663135        1.78951919855451       -3.51172072160004
C           -5.26128101292932        2.47042209647775       -4.31349390465545
C            4.24539100991774        2.09448119789843        2.61404799916770
O            4.04403921637264        2.82041898232154        3.60572909668216
O            5.20928045935032        2.48400369629314        1.73753022696887
C            5.88485897505120        3.70115181108709        1.98423738360468
O           -3.14354786753380       -5.31732663380460        4.57701235476431
O           -1.12667375675291       -6.27693554778159        3.93766470307609
C           -1.91784945360255       -7.50893331427368        3.82673481061367
C           -4.50250804955312       -0.79868991836971        3.08042639283552
C           -2.84849779067688       -2.57802465708395       -1.33745688009025
H           -1.18128855168297       -8.23462754574605        3.38463593738639
H           -2.91955679040896       -7.28686692129357        3.29548020923107
H           -2.17153047870542       -7.65866472325138        4.88501021993378
H            6.28086821374812        3.96510510420695        3.05954712229280
H            5.16493886393917        4.54213725098385        1.83290785339006
H            6.60635458119609        3.68256203008573        1.13691920597805
H           -2.61877335839020       -3.73230744418464       -1.02477526683941
H           -1.87868172809530       -2.26379361498048       -1.60391573729584
H           -3.56178609381375       -2.15637502264216       -2.00138803609137
H           -5.49582920694915       -1.06669062884016        2.79451860980089
H           -4.44925702795940        0.33984048800707        3.01644292387457
H           -4.23725961808435       -1.16434483191805        4.03540363703576
H           -5.50120346244708        1.87441910448652       -5.21072144711631
H           -4.91656477120635        3.59711453706520       -4.38857411750601
H           -6.21496756676177        2.35588260333032       -3.74028772544664
C           -1.36433357248355        3.95650742123587        3.67144965513660
C           -1.88619002670877        2.86614435729976        4.38418964587613
C           -1.18943360508978        2.31854026838258        5.46472859944317
C            0.14143331451026        2.77108815870994        5.76270295226009
C            0.54109508570672        3.94554296168038        5.11738291028982
C           -0.15770160278811        4.49079978417014        3.99588264242424
C           -1.48166135848769        1.00382838239588        6.19641027209749
C           -0.42777648507321        0.18459622000592        6.61265474675762
C            0.83926363791080        0.85513489745257        6.70508167902277
N            0.80326965916245        2.16071625421588        6.75015118214354
C           -2.72841381549669        0.20180195642946        6.20546751464880
C           -2.75465372421762       -1.22868718042456        6.46888468388528
N           -1.64124555667095       -1.88482731837321        6.70290822854233
C           -0.52709676100984       -1.16569889549099        6.89867316176652
C            0.59664771465825       -1.91204573770640        7.12397529043080
C            1.91357534827326       -1.34185503751622        7.18552275719752
C            2.01831346874018       -0.01239805392594        6.84696708377572
C           -3.95456982747498        0.97278770068735        6.24475034927182
C           -5.08373619356861        0.26587138385613        6.03267984368557
C           -5.13998127754798       -1.17894948028168        6.13365485579805
C           -4.03335276881709       -1.83445012997834        6.44661595405672
O           -3.96278594243730        2.50298936909274        6.31693565645617
O           -3.07340442576913        2.38825138553139        3.84068173339066
C            0.36499921352019        5.63162432679702        3.24141093246099
C           -6.34622589780464       -1.96222637046687        5.70814732447633
H            1.46683010111345        4.44217270312153        5.28223973546360
H           -1.96230674893758        4.48655080808645        2.92923077651556
H            2.94473669589908        0.44829503300468        6.67265903089652
H            0.39445419584460       -2.86597301039508        7.59693593074114
H           -4.10385237850713       -2.90668731408283        6.35569518639107
H           -6.00583734122278        0.65287309589343        5.64041338738931
O            1.19777080838625        6.41481789260245        3.72065645893753
O           -0.19358777672917        5.67798345814937        1.89959381090029
C            0.59328111871570        6.54859922657761        1.13042738730358
C            3.23791352420935       -2.09771938777381        7.45403884003815
O            3.23896035709405       -3.14641055627252        8.02542203056129
O            4.26805180035538       -1.55902541471119        6.97720204924249
C            5.37208530054165       -2.56004935871560        6.78730907123235
O           -7.43570526820466       -1.43668708773244        5.57824678662443
O           -6.20833944717218       -3.28347293708484        5.41534335838009
C           -7.36676305241607       -3.75459727282521        4.87863356616278
C           -3.91344507177291        3.20887219720333        7.56554010588228
C           -3.74027131940767        3.35698847745523        3.12528161337342
H           -8.01843907319331       -2.91304126562377        4.50344912311364
H           -7.89520091271994       -3.93890313232993        5.92659079708436
H           -7.37938391349359       -4.62669602540204        4.31131998637875
H            5.08422242089706       -3.42600788933767        6.34430404658834
H            5.78623291819522       -2.70094602767575        7.71695144027875
H            5.94550787035027       -1.91466193007720        6.20313371879497
H           -3.55590865424452        3.54775045986656        2.03403650759095
H           -3.54816269318865        4.30117088302564        3.72527281024007
H           -4.79086326664314        3.12990596748378        3.21650187797947
H           -2.81770937283676        3.16884461938994        7.93196028563659
H           -4.83869291143198        2.71101600208758        8.26282146086013
H           -4.27391326234847        4.26235536468862        7.46774524682179
H            1.26547121260145        5.98252216624118        0.55495859298859
H            1.12014536329360        7.05951619519967        1.93701675796874
H           -0.01751163423628        7.30770768907963        0.56606631379476
116
 energy: -22.717430836140 gnorm: 0.494166068148 xtb: 6.6.1 (8d0f1dd)
C           -3.21204320676248        0.25628123314033       -1.29858141341736
C           -2.48792270812568       -0.52470201061829       -0.43540970818641
C           -1.42569601428943        0.22694498188935        0.39824044875797
C           -1.06834405068756        1.57608666847127       -0.11289492662984
C           -1.93168738181839        2.19837326172115       -1.04156196315955
C           -2.91449023938641        1.52394116654793       -1.62480883525406
C           -0.87196121829304       -0.25651120284386        1.59045191797264
C            0.32910714676396        0.43831606303242        2.04532418360451
C            0.72600120089202        1.64065198651763        1.46306498165413
N           -0.03985772179980        2.24573826387377        0.48024000660804
C           -1.40203439122946       -1.36520459221921        2.29083960986401
C           -0.45642603977280       -1.87760479642646        3.16754374584286
N            0.89836705807432       -1.61952380773379        3.38644161729355
C            1.21575141798643       -0.40826653596682        2.92501173698169
C            2.50316287383282        0.03961875254079        2.89307426754319
C            2.84510960529831        1.34441221251559        2.52925028506782
C            2.02394100416816        2.22243896144758        1.87964081867461
C           -2.74210060586841       -1.72782190497785        2.15411408834798
C           -3.20723280289639       -2.84408674190057        2.85764228649918
C           -2.16343847300879       -3.58572550503116        3.50167849796957
C           -0.87410005750339       -3.07928528417768        3.71671054705186
O           -3.80014317274819       -0.93588185607801        1.64320539732138
O           -2.58459723234896       -2.01325371150439       -0.42623288517881
C           -3.92987609716962        2.13916281114642       -2.56451540746174
C           -2.58367988571501       -4.63496941361993        4.47269044527949
H           -1.67476898130622        3.22901524913874       -1.46076976986690
H           -4.02504333826752       -0.24675888679884       -1.80236528532810
H            2.45895754929053        3.16944327494311        1.35356921942476
H            3.30354413371266       -0.65290883185424        3.31416873941722
H           -0.05096976632455       -3.67173329594430        4.30685731442028
H           -4.19409894857618       -3.03282460277636        3.17807369774500
O           -4.23321950789618        3.36178835537176       -2.66069277782672