Optimization of monomers started
      -----------------------------------------------------------      
     |                   =====================                   |     
     |                           x T B                           |     
     |                   =====================                   |     
     |                         S. Grimme                         |     
     |          Mulliken Center for Theoretical Chemistry        |     
     |                    University of Bonn                     |     
      -----------------------------------------------------------      

   * xtb version 6.7.1 (edcfbbe) compiled by 'runner@Mac-1732539442253.local' on 2024-11-25

   xtb is free software: you can redistribute it and/or modify it under
   the terms of the GNU Lesser General Public License as published by
   the Free Software Foundation, either version 3 of the License, or
   (at your option) any later version.
   
   xtb is distributed in the hope that it will be useful,
   but WITHOUT ANY WARRANTY; without even the implied warranty of
   MERCHANTABILITY or FITNESS FOR A PARTICULAR PURPOSE.  See the
   GNU Lesser General Public License for more details.
   
   Cite this work as:
   * C. Bannwarth, E. Caldeweyher, S. Ehlert, A. Hansen, P. Pracht,
     J. Seibert, S. Spicher, S. Grimme, WIREs Comput. Mol. Sci., 2020, 11,
     e01493. DOI: 10.1002/wcms.1493
   
   for GFN2-xTB:
   * C. Bannwarth, S. Ehlert and S. Grimme., J. Chem. Theory Comput., 2019,
     15, 1652-1671. DOI: 10.1021/acs.jctc.8b01176
   for GFN1-xTB:
   * S. Grimme, C. Bannwarth, P. Shushkov, J. Chem. Theory Comput., 2017,
     13, 1989-2009. DOI: 10.1021/acs.jctc.7b00118
   for GFN0-xTB:
   * P. Pracht, E. Caldeweyher, S. Ehlert, S. Grimme, ChemRxiv, 2019, preprint.
     DOI: 10.26434/chemrxiv.8326202.v1
   for GFN-FF:
   * S. Spicher and S. Grimme, Angew. Chem. Int. Ed., 2020, 59, 15665-15673.
     DOI: 10.1002/anie.202004239
   
   for ALPB and GBSA implicit solvation:
   * S. Ehlert, M. Stahn, S. Spicher, S. Grimme, J. Chem. Theory Comput.,
     2021, 17, 4250-4261. DOI: 10.1021/acs.jctc.1c00471
   
   for ddCOSMO and CPCM-X implicit solvation:
   * M. Stahn, S. Ehlert, S. Grimme, J. Phys. Chem. A,
     2023, XX, XXXX-XXXX. DOI: 10.1021/acs.jpca.3c04382
   
   for DFT-D4:
   * E. Caldeweyher, C. Bannwarth and S. Grimme, J. Chem. Phys., 2017,
     147, 034112. DOI: 10.1063/1.4993215
   * E. Caldeweyher, S. Ehlert, A. Hansen, H. Neugebauer, S. Spicher,
     C. Bannwarth and S. Grimme, J. Chem. Phys., 2019, 150, 154122.
     DOI: 10.1063/1.5090222
   * E. Caldeweyher, J.-M. Mewes, S. Ehlert and S. Grimme, Phys. Chem. Chem. Phys.
     2020, 22, 8499-8512. DOI: 10.1039/D0CP00502A
   
   for sTDA-xTB:
   * S. Grimme and C. Bannwarth, J. Chem. Phys., 2016, 145, 054103.
     DOI: 10.1063/1.4959605
   
   in the mass-spec context:
   * V. Asgeirsson, C. Bauer and S. Grimme, Chem. Sci., 2017, 8, 4879.
     DOI: 10.1039/c7sc00601b
   * J. Koopman and S. Grimme, ACS Omega 2019, 4, 12, 15120-15133.
     DOI: 10.1021/acsomega.9b02011
   
   for metadynamics refer to:
   * S. Grimme, J. Chem. Theory Comput., 2019, 155, 2847-2862
     DOI: 10.1021/acs.jctc.9b00143
   
   for SPH calculations refer to:
   * S. Spicher and S. Grimme, J. Chem. Theory Comput., 2021, 17, 1701-1714
     DOI: 10.1021/acs.jctc.0c01306
   
   for ONIOM refer to:
   * C. Plett, A. Katbashev, S. Ehlert, S. Grimme, M. Bursch,
     Phys. Chem. Chem. Phys., 2023, 25, 17860-17868. DOI: 10.1039/D3CP02178E
   
   for DIPRO refer to:
   * J. Kohn, N. Gildemeister, S. Grimme, D. Fazzi, A. Hansen,
     J. Chem. Phys., 2023, just accepted.
   
   for PTB refer to:
   * S. Grimme, M. Mueller, A. Hansen, J. Chem. Phys., 2023, 158, 124111.
     DOI: 10.1063/5.0137838
   
   with help from (in alphabetical order)
   P. Atkinson, C. Bannwarth, F. Bohle, G. Brandenburg, E. Caldeweyher
   M. Checinski, S. Dohm, S. Ehlert, S. Ehrlich, I. Gerasimov, C. Hölzer
   A. Katbashev, J. Kohn, J. Koopman, C. Lavigne, S. Lehtola, F. März, M. Müller,
   F. Musil, H. Neugebauer, J. Pisarek, C. Plett, P. Pracht, F. Pultar,
   J. Seibert, P. Shushkov, S. Spicher, M. Stahn, M. Steiner, T. Strunk,
   J. Stückrath, T. Rose, and J. Unsleber
   
 * started run on 2025/03/03 at 14:17:44.129     
   ID    Z sym.   atoms
    1    6 C      1-11, 13, 14, 16-23, 31, 34, 37, 44-49
    2    7 N      12, 15
    3    8 O      24, 25, 29, 30, 32, 33, 35, 36
    4   16 S      26-28
    5    1 H      38-43, 50-78

           -------------------------------------------------
          |                Calculation Setup                |
           -------------------------------------------------

          program call               : xtb Base4SO2Me.mol --opt tight --cycles 500 --chrg 0 --uhf 1 --spinpol --tblite
          coordinate file            : Base4SO2Me.mol
          omp threads                :                     8

repulsion energy          2.0921972057135E+00 Eh
dispersion energy         8.4770594444920E-04 Eh
interaction energy        0.0000000000000E+00 Eh
number of electrons       2.3100000000000E+02 e
integral cutoff           1.8403572253217E+01 bohr

------------------------------------------------------------
  cycle        total energy    energy error   density error
------------------------------------------------------------
      1     -126.9251500092  -1.2901819E+02   1.5166671E-01
      2     -126.5435827165   3.8156729E-01   1.3057686E-01
      3     -126.8010115737  -2.5742886E-01   8.9327382E-02
      4     -125.9668263460   8.3418523E-01   9.8346199E-02
      5     -126.9043031311  -9.3747679E-01   7.5286219E-02
      6     -127.6199285729  -7.1562544E-01   4.0342726E-02
      7     -127.8031028645  -1.8317429E-01   2.2393256E-02
      8     -127.8078329129  -4.7300485E-03   1.3965227E-02
      9     -127.7404285073   6.7404406E-02   3.1499440E-02
     10     -127.8102335766  -6.9805069E-02   8.8657084E-03
     11     -127.7979175905   1.2315986E-02   1.7293702E-02
     12     -127.8189151727  -2.0997582E-02   2.7303394E-03
     13     -127.8177646459   1.1505268E-03   7.3294696E-03
     14     -127.8185343309  -7.6968506E-04   5.9902078E-03
     15     -127.8196819721  -1.1476412E-03   2.6415400E-03
     16     -127.8192009236   4.8104848E-04   3.7679006E-03
     17     -127.8191835058   1.7417844E-05   3.7073023E-03
     18     -127.8196927165  -5.0921069E-04   2.0177149E-03
     19     -127.8198370726  -1.4435608E-04   1.1795909E-03
     20     -127.8198975134  -6.0440866E-05   4.6463345E-04
     21     -127.8199072461  -9.7326277E-06   1.4233166E-04
     22     -127.8199068711   3.7497895E-07   1.3866394E-04
     23     -127.8199084970  -1.6258900E-06   2.8377730E-05
     24     -127.8199083200   1.7701694E-07   6.7669497E-05
     25     -127.8199081863   1.3366389E-07   8.0585796E-05
     26     -127.8199084397  -2.5339608E-07   4.1178920E-05
     27     -127.8199085111  -7.1391156E-08   1.6970199E-05
------------------------------------------------------------

electronic energy        -1.2991295342275E+02 Eh
total energy             -1.2781990851109E+02 Eh

 total:                                   1.473 sec
 - repulsion                              0.000 sec (  0%)
 - dispersion                             0.006 sec (  0%)
 - coulomb                                0.002 sec (  0%)
 - hamiltonian                            0.016 sec (  1%)
 - scc                                    1.448 sec ( 98%)

      ----------------------------------------------------------- 
     |                   =====================                   |
     |                        A N C O P T                        |
     |                   =====================                   |
     |               Approximate Normal Coordinate               |
     |                Rational Function Optimizer                |
      ----------------------------------------------------------- 
      ----------------------------------------------------------- 
     |                   =====================                   |
     |                        A N C O P T                        |
     |                   =====================                   |
     |               Approximate Normal Coordinate               |
     |                Rational Function Optimizer                |
      ----------------------------------------------------------- 

          ...................................................
          :                      SETUP                      :
          :.................................................:
          :   optimization level             tight          :
          :   max. optcycles                   500          :
          :   ANC micro-cycles                  20          :
          :   degrees of freedom               228          :
          :.................................................:
          :   RF solver                   davidson          :
          :   write xtbopt.log                true          :
          :   linear?                        false          :
          :   energy convergence         0.1000000E-05 Eh   :
          :   grad. convergence          0.8000000E-03 Eh/α :
          :   maxmium RF displ.          1.0000000          :
          :   Hlow (freq-cutoff)         0.1000000E-01      :
          :   Hmax (freq-cutoff)         5.0000000          :
          :   S6 in model hess.         20.0000000          :
          ...................................................

generating ANC from exact Hessian ...
Using Lindh-Hessian (1995)
 Shifting diagonal of input Hessian by    1.0055480382489233E-002
 Lowest  eigenvalues of input Hessian
    0.010000    0.010011    0.000000    0.000000    0.000000    0.000000
    0.000000    0.000000    0.010103    0.010128    0.010244    0.010312
    0.010380    0.010451    0.010671    0.010856    0.010947    0.010978
 Highest eigenvalues
    3.188380    3.315410    6.236110    6.293670    7.809258    7.991832


........................................................................
.............................. CYCLE    1 ..............................
........................................................................
------------------------------------------------------------
  cycle        total energy    energy error   density error
------------------------------------------------------------
      1     -127.8198989557  -1.2991294E+02   3.6655114E-04
      2     -127.8188496189   1.0493368E-03   3.8821057E-03
      3     -127.8199085210  -1.0589020E-03   6.2116778E-06
      4     -127.8199085063   1.4658582E-08   1.4264959E-05
------------------------------------------------------------

 total:                                   0.253 sec
 * total energy  :  -127.8199085 Eh     change        0.4769404E-08 Eh
   gradient norm :     3.9558351 Eh/α   predicted     0.0000000E+00 (-100.00%)
   displ. norm   :     0.5992911 α      lambda       -0.2294046E+01
   maximum displ.:     0.3795581 α      in ANC's #225, #228, #212, ...

........................................................................
.............................. CYCLE    2 ..............................
........................................................................
------------------------------------------------------------
  cycle        total energy    energy error   density error
------------------------------------------------------------
      1     -128.7870842485  -1.3005830E+02   4.6058559E-02
      2     -128.5539604086   2.3312384E-01   5.7607055E-02
      3     -128.8363515499  -2.8239114E-01   2.5043617E-02
      4     -128.7901815315   4.6170018E-02   3.3915069E-02
      5     -128.8486820349  -5.8500503E-02   1.9637946E-02
      6     -128.8803836359  -3.1701601E-02   1.3253870E-02
      7     -128.8780021629   2.3814730E-03   1.1478555E-02
      8     -128.8883444867  -1.0342324E-02   6.6249962E-03
      9     -128.8894320099  -1.0875232E-03   5.2889788E-03
     10     -128.8904253111  -9.9330119E-04   3.4114623E-03
     11     -128.8911750577  -7.4974663E-04   8.1541043E-04
     12     -128.8911892388  -1.4181060E-05   7.6886781E-04
     13     -128.8912259536  -3.6714845E-05   3.6895102E-04
     14     -128.8912129046   1.3049035E-05   5.2913040E-04
     15     -128.8912286514  -1.5746830E-05   1.5136721E-04
     16     -128.8912300639  -1.4125106E-06   5.1931533E-05
     17     -128.8912298791   1.8476115E-07   6.0457963E-05
     18     -128.8912301529  -2.7379832E-07   2.4671018E-05
     19     -128.8912301785  -2.5515448E-08   1.3142116E-05
------------------------------------------------------------

 total:                                   1.066 sec
 * total energy  :  -128.8912302 Eh     change       -0.1071322E+01 Eh
   gradient norm :     0.7764769 Eh/α   predicted    -0.1558978E+01 (  45.52%)
   displ. norm   :     0.6805262 α      lambda       -0.3906817E+00
   maximum displ.:     0.2299123 α      in ANC's #92, #93, #97, ...

........................................................................
.............................. CYCLE    3 ..............................
........................................................................
------------------------------------------------------------
  cycle        total energy    energy error   density error
------------------------------------------------------------
      1     -129.1837121077  -1.3036355E+02   2.5241112E-02
      2     -129.1046455550   7.9066553E-02   2.7245327E-02
      3     -129.1364662940  -3.1820739E-02   2.6908566E-02
      4     -129.2237831414  -8.7316847E-02   1.1527651E-02
      5     -129.2180071307   5.7760107E-03   9.3456301E-03
      6     -129.2269832625  -8.9761319E-03   7.0016012E-03
      7     -129.2286533086  -1.6700460E-03   5.0125569E-03
      8     -129.2294095875  -7.5627894E-04   3.5282830E-03
      9     -129.2298297184  -4.2013091E-04   2.1047602E-03
     10     -129.2299028809  -7.3162517E-05   1.2057771E-03
     11     -129.2299708260  -6.7945099E-05   7.6887567E-04
     12     -129.2299915843  -2.0758230E-05   3.8901655E-04
     13     -129.2300009175  -9.3332335E-06   1.0441958E-04
     14     -129.2300014781  -5.6062024E-07   7.4031398E-05
     15     -129.2300017401  -2.6199118E-07   4.8627237E-05
     16     -129.2300018575  -1.1745189E-07   2.5728115E-05
     17     -129.2300019129  -5.5333771E-08   1.1580568E-05
------------------------------------------------------------

 total:                                   0.948 sec
 * total energy  :  -129.2300019 Eh     change       -0.3387717E+00 Eh
   gradient norm :     0.5580515 Eh/α   predicted    -0.2858066E+00 ( -15.63%)
   displ. norm   :     0.8296660 α      lambda       -0.3898139E+00
   maximum displ.:     0.2580539 α      in ANC's #93, #156, #92, ...

........................................................................
.............................. CYCLE    4 ..............................
........................................................................
------------------------------------------------------------
  cycle        total energy    energy error   density error
------------------------------------------------------------
      1     -129.5130146097  -1.3063971E+02   2.5283439E-02
      2     -129.4922241937   2.0790416E-02   2.3218356E-02
      3     -129.5516815507  -5.9457357E-02   1.3332296E-02
      4     -129.5619108063  -1.0229256E-02   7.2602682E-03
      5     -129.5661953537  -4.2845475E-03   3.3576214E-03
      6     -129.5678713909  -1.6760372E-03   1.4141819E-03
      7     -129.5679037859  -3.2394996E-05   9.2241184E-04
      8     -129.5679543858  -5.0599874E-05   4.7790354E-04
      9     -129.5679750710  -2.0685269E-05   2.2306563E-04
     10     -129.5679774622  -2.3911300E-06   1.2083696E-04
     11     -129.5679784263  -9.6409732E-07   5.2102978E-05
     12     -129.5679784596  -3.3317008E-08   3.5075124E-05
     13     -129.5679785392  -7.9562739E-08   2.0603253E-05
     14     -129.5679785576  -1.8446229E-08   1.2072876E-05
------------------------------------------------------------

 total:                                   0.835 sec
 * total energy  :  -129.5679786 Eh     change       -0.3379766E+00 Eh
   gradient norm :     0.4097490 Eh/α   predicted    -0.3290712E+00 (  -2.63%)
   displ. norm   :     0.8290738 α      lambda       -0.2882263E+00
   maximum displ.:     0.2862109 α      in ANC's #93, #92, #135, ...

........................................................................
.............................. CYCLE    5 ..............................
........................................................................
------------------------------------------------------------
  cycle        total energy    energy error   density error
------------------------------------------------------------
      1     -129.7786932726  -1.3092052E+02   1.5769304E-02
      2     -129.7864954778  -7.8022052E-03   1.1816133E-02
      3     -129.7886033296  -2.1078518E-03   7.7450631E-03
      4     -129.7866511140   1.9522156E-03   5.3700560E-03
      5     -129.7927785621  -6.1274481E-03   1.2578375E-03
      6     -129.7929043721  -1.2580997E-04   7.4518298E-04
      7     -129.7929303931  -2.6021087E-05   3.5527422E-04
      8     -129.7929369961  -6.6029665E-06   1.8003237E-04
      9     -129.7929388592  -1.8630880E-06   1.0864084E-04
     10     -129.7929394848  -6.2561270E-07   4.2144552E-05
     11     -129.7929396631  -1.7824669E-07   2.1553365E-05
     12     -129.7929396874  -2.4300448E-08   1.2173924E-05
------------------------------------------------------------

 total:                                   0.659 sec
 * total energy  :  -129.7929397 Eh     change       -0.2249611E+00 Eh
   gradient norm :     0.3109810 Eh/α   predicted    -0.2431712E+00 (   8.09%)
   displ. norm   :     0.7704529 α      lambda       -0.1659014E+00
   maximum displ.:     0.3498844 α      in ANC's #92, #93, #49, ...

........................................................................
.............................. CYCLE    6 ..............................
........................................................................
------------------------------------------------------------
  cycle        total energy    energy error   density error
------------------------------------------------------------
      1     -129.9261548461  -1.3113916E+02   1.0383133E-02
      2     -129.9277890803  -1.6342342E-03   7.1014528E-03
      3     -129.9269596080   8.2947229E-04   4.3135150E-03
      4     -129.9280260232  -1.0664152E-03   2.0825880E-03
      5     -129.9288451122  -8.1908906E-04   6.7341894E-04
      6     -129.9289229579  -7.7845688E-05   3.1866848E-04
      7     -129.9289297493  -6.7914049E-06   1.2974120E-04
      8     -129.9289305784  -8.2907266E-07   6.3968577E-05
      9     -129.9289307532  -1.7478743E-07   3.9530457E-05
     10     -129.9289308693  -1.1610305E-07   1.6356858E-05
------------------------------------------------------------

 total:                                   0.454 sec
 * total energy  :  -129.9289309 Eh     change       -0.1359912E+00 Eh
   gradient norm :     0.2424467 Eh/α   predicted    -0.1321900E+00 (  -2.80%)
   displ. norm   :     0.7645754 α      lambda       -0.1152420E+00
   maximum displ.:     0.2818561 α      in ANC's #92, #49, #93, ...

........................................................................
.............................. CYCLE    7 ..............................
........................................................................
------------------------------------------------------------
  cycle        total energy    energy error   density error
------------------------------------------------------------
      1     -130.0213831796  -1.3131828E+02   8.3711769E-03
      2     -130.0229207080  -1.5375284E-03   6.2046153E-03
      3     -130.0238745117  -9.5380366E-04   3.4202165E-03
      4     -130.0235557858   3.1872587E-04   2.1000356E-03
      5     -130.0243099217  -7.5413588E-04   5.2202559E-04
      6     -130.0243551824  -4.5260706E-05   2.6287596E-04
      7     -130.0243617360  -6.5536394E-06   9.7606164E-05
      8     -130.0243622603  -5.2431818E-07   4.3842705E-05
      9     -130.0243623311  -7.0734899E-08   2.8054716E-05
     10     -130.0243623688  -3.7741870E-08   1.1584792E-05
------------------------------------------------------------

 total:                                   0.516 sec
 * total energy  :  -130.0243624 Eh     change       -0.9543150E-01 Eh
   gradient norm :     0.1732571 Eh/α   predicted    -0.9130482E-01 (  -4.32%)
   displ. norm   :     0.7662181 α      lambda       -0.8035479E-01
   maximum displ.:     0.2802316 α      in ANC's #49, #44, #39, ...

........................................................................
.............................. CYCLE    8 ..............................
........................................................................
------------------------------------------------------------
  cycle        total energy    energy error   density error
------------------------------------------------------------
      1     -130.0879600503  -1.3146266E+02   7.1135841E-03
      2     -130.0892210769  -1.2610266E-03   5.1934188E-03
      3     -130.0899190733  -6.9799639E-04   2.7930946E-03
      4     -130.0896746301   2.4444322E-04   1.7796186E-03
      5     -130.0901682024  -4.9357235E-04   4.1031994E-04
      6     -130.0901955097  -2.7307268E-05   2.0784682E-04
      7     -130.0901995341  -4.0243851E-06   7.6956367E-05
      8     -130.0901998476  -3.1350541E-07   3.6677443E-05
      9     -130.0901998890  -4.1431974E-08   2.3587506E-05
     10     -130.0901999091  -2.0111287E-08   8.6609610E-06
------------------------------------------------------------

 total:                                   0.615 sec
 * total energy  :  -130.0901999 Eh     change       -0.6583754E-01 Eh
   gradient norm :     0.1114679 Eh/α   predicted    -0.6376518E-01 (  -3.15%)
   displ. norm   :     0.7765391 α      lambda       -0.5416399E-01
   maximum displ.:     0.2751042 α      in ANC's #49, #22, #39, ...

........................................................................
.............................. CYCLE    9 ..............................
........................................................................
------------------------------------------------------------
  cycle        total energy    energy error   density error
------------------------------------------------------------
      1     -130.1339195289  -1.3156369E+02   6.0071251E-03
      2     -130.1343953655  -4.7583661E-04   3.6823488E-03
      3     -130.1342513024   1.4406309E-04   2.0627275E-03
      4     -130.1345078118  -2.5650940E-04   1.0049165E-03
      5     -130.1346487641  -1.4095231E-04   2.8484212E-04
      6     -130.1346584230  -9.6588237E-06   1.5384051E-04
      7     -130.1346605587  -2.1357023E-06   6.1797770E-05
      8     -130.1346607035  -1.4480875E-07   3.6703434E-05
      9     -130.1346607281  -2.4595835E-08   2.2393438E-05
     10     -130.1346607604  -3.2366614E-08   7.0540423E-06
------------------------------------------------------------

 total:                                   0.586 sec
 * total energy  :  -130.1346608 Eh     change       -0.4446085E-01 Eh
   gradient norm :     0.0738983 Eh/α   predicted    -0.4341279E-01 (  -2.36%)
   displ. norm   :     0.7851608 α      lambda       -0.3864317E-01
   maximum displ.:     0.3005172 α      in ANC's #22, #49, #39, ...

........................................................................
.............................. CYCLE   10 ..............................
........................................................................
------------------------------------------------------------
  cycle        total energy    energy error   density error
------------------------------------------------------------
      1     -130.1646856550  -1.3163364E+02   5.5666277E-03
      2     -130.1649201450  -2.3448997E-04   3.1500334E-03
      3     -130.1647928896   1.2725542E-04   1.4661691E-03
      4     -130.1649577408  -1.6485128E-04   5.6682930E-04
      5     -130.1649857082  -2.7967333E-05   2.2865284E-04
      6     -130.1649893504  -3.6422116E-06   1.3347964E-04
      7     -130.1649915839  -2.2335220E-06   4.7679844E-05
      8     -130.1649916243  -4.0401829E-08   3.0999842E-05
      9     -130.1649916411  -1.6839181E-08   1.8249887E-05
------------------------------------------------------------

 total:                                   0.470 sec
 * total energy  :  -130.1649916 Eh     change       -0.3033088E-01 Eh
   gradient norm :     0.0574723 Eh/α   predicted    -0.3123295E-01 (   2.97%)
   displ. norm   :     0.7997853 α      lambda       -0.3055284E-01
   maximum displ.:     0.3487960 α      in ANC's #22, #39, #21, ...

........................................................................
.............................. CYCLE   11 ..............................
........................................................................
------------------------------------------------------------
  cycle        total energy    energy error   density error
------------------------------------------------------------
      1     -130.1862411845  -1.3168261E+02   5.8865245E-03
      2     -130.1865658999  -3.2471541E-04   3.2695316E-03
      3     -130.1865518373   1.4062671E-05   1.4835268E-03
      4     -130.1865878602  -3.6022896E-05   5.9899473E-04
      5     -130.1866174325  -2.9572374E-05   2.1933127E-04
      6     -130.1866170718   3.6075420E-07   1.2692844E-04
      7     -130.1866204695  -3.3977400E-06   4.3590845E-05
      8     -130.1866205068  -3.7257365E-08   2.6874909E-05
      9     -130.1866205478  -4.1002011E-08   1.4222662E-05
------------------------------------------------------------

 total:                                   0.604 sec
 * total energy  :  -130.1866205 Eh     change       -0.2162891E-01 Eh
   gradient norm :     0.0544143 Eh/α   predicted    -0.2504810E-01 (  15.81%)
   displ. norm   :     0.7302788 α      lambda       -0.2037473E-01
   maximum displ.:     0.3781991 α      in ANC's #22, #21, #39, ...

........................................................................
.............................. CYCLE   12 ..............................
........................................................................
------------------------------------------------------------
  cycle        total energy    energy error   density error
------------------------------------------------------------
      1     -130.2021602263  -1.3171777E+02   4.6152132E-03
      2     -130.2023418093  -1.8158293E-04   2.6281271E-03
      3     -130.2023230927   1.8716574E-05   1.1303550E-03
      4     -130.2023621042  -3.9011554E-05   4.7816262E-04
      5     -130.2023783947  -1.6290514E-05   1.8199828E-04
      6     -130.2023782669   1.2786410E-07   1.0736193E-04
      7     -130.2023806544  -2.3875343E-06   3.1274018E-05
      8     -130.2023806875  -3.3119392E-08   1.9030513E-05
------------------------------------------------------------

 total:                                   0.441 sec
 * total energy  :  -130.2023807 Eh     change       -0.1576014E-01 Eh
   gradient norm :     0.0497356 Eh/α   predicted    -0.1562036E-01 (  -0.89%)
   displ. norm   :     0.7314664 α      lambda       -0.1499210E-01
   maximum displ.:     0.3761408 α      in ANC's #22, #21, #20, ...

........................................................................
.............................. CYCLE   13 ..............................
........................................................................
------------------------------------------------------------
  cycle        total energy    energy error   density error
------------------------------------------------------------
      1     -130.2121956659  -1.3174372E+02   4.5955099E-03
      2     -130.2123747347  -1.7906885E-04   2.5731078E-03
      3     -130.2123497947   2.4940048E-05   1.1105137E-03
      4     -130.2123938451  -4.4050441E-05   4.7761148E-04
      5     -130.2124127109  -1.8865735E-05   1.7530773E-04
      6     -130.2124129730  -2.6217035E-07   8.2607959E-05
      7     -130.2124139695  -9.9640914E-07   2.9995973E-05
      8     -130.2124140091  -3.9685261E-08   1.5439572E-05
------------------------------------------------------------

 total:                                   0.411 sec
 * total energy  :  -130.2124140 Eh     change       -0.1003332E-01 Eh
   gradient norm :     0.0469473 Eh/α   predicted    -0.1150678E-01 (  14.69%)
   displ. norm   :     0.6530661 α      lambda       -0.1058360E-01
   maximum displ.:     0.3263074 α      in ANC's #22, #21, #5, ...

........................................................................
.............................. CYCLE   14 ..............................
........................................................................
------------------------------------------------------------
  cycle        total energy    energy error   density error
------------------------------------------------------------
      1     -130.2186471250  -1.3175962E+02   4.1599784E-03
      2     -130.2188475881  -2.0046303E-04   2.3289403E-03
      3     -130.2188466249   9.6316066E-07   1.1038744E-03
      4     -130.2188414908   5.1340994E-06   5.0936312E-04
      5     -130.2188771266  -3.5635761E-05   1.6810237E-04
      6     -130.2188785512  -1.4246253E-06   9.4329259E-05
      7     -130.2188801241  -1.5728936E-06   2.3103779E-05
      8     -130.2188801273  -3.2013077E-09   1.5702993E-05
------------------------------------------------------------

 total:                                   0.402 sec
 * total energy  :  -130.2188801 Eh     change       -0.6466118E-02 Eh
   gradient norm :     0.0432955 Eh/α   predicted    -0.7548730E-02 (  16.74%)
   displ. norm   :     0.5464830 α      lambda       -0.5420804E-02
   maximum displ.:     0.2048099 α      in ANC's #22, #5, #9, ...

........................................................................
.............................. CYCLE   15 ..............................
........................................................................
------------------------------------------------------------
  cycle        total energy    energy error   density error
------------------------------------------------------------
      1     -130.2209593462  -1.3177062E+02   3.5946164E-03
      2     -130.2211421515  -1.8280533E-04   2.2137328E-03
      3     -130.2211457054  -3.5538258E-06   1.1217021E-03
      4     -130.2211343120   1.1393328E-05   4.8654374E-04
      5     -130.2211734077  -3.9095631E-05   1.2462356E-04
      6     -130.2211731316   2.7608624E-07   7.3605258E-05
      7     -130.2211740214  -8.8984680E-07   2.7802323E-05
      8     -130.2211740511  -2.9642337E-08   1.7541027E-05
------------------------------------------------------------

 total:                                   0.421 sec
 * total energy  :  -130.2211741 Eh     change       -0.2293924E-02 Eh
   gradient norm :     0.0440770 Eh/α   predicted    -0.3519858E-02 (  53.44%)
   displ. norm   :     0.4439621 α      lambda       -0.4574097E-02
   maximum displ.:     0.1861607 α      in ANC's #5, #9, #15, ...

........................................................................
.............................. CYCLE   16 ..............................
........................................................................
------------------------------------------------------------
  cycle        total energy    energy error   density error
------------------------------------------------------------
      1     -130.2238773770  -1.3177770E+02   2.7023094E-03
      2     -130.2239346601  -5.7283126E-05   1.5780876E-03
      3     -130.2239204764   1.4183776E-05   7.6711084E-04
      4     -130.2239354280  -1.4951615E-05   3.1969669E-04
      5     -130.2239531410  -1.7712978E-05   7.3982526E-05
      6     -130.2239531823  -4.1323062E-08   4.7109065E-05
      7     -130.2239535181  -3.3582944E-07   1.9450422E-05
------------------------------------------------------------

 total:                                   0.555 sec
 * total energy  :  -130.2239535 Eh     change       -0.2779467E-02 Eh
   gradient norm :     0.0395309 Eh/α   predicted    -0.2737836E-02 (  -1.50%)
   displ. norm   :     0.4536719 α      lambda       -0.3170551E-02
   maximum displ.:     0.2429993 α      in ANC's #5, #15, #3, ...

........................................................................
.............................. CYCLE   17 ..............................
........................................................................
------------------------------------------------------------
  cycle        total energy    energy error   density error
------------------------------------------------------------
      1     -130.2255350568  -1.3177889E+02   2.8106235E-03
      2     -130.2256424803  -1.0742354E-04   1.5899766E-03
      3     -130.2256452740  -2.7936876E-06   8.4002493E-04
      4     -130.2256359947   9.2792612E-06   2.8422027E-04
      5     -130.2256510503  -1.5055550E-05   6.7339209E-05
      6     -130.2256509725   7.7831345E-08   4.0976808E-05
      7     -130.2256512540  -2.8156597E-07   1.6588746E-05
------------------------------------------------------------

 total:                                   0.475 sec
 * total energy  :  -130.2256513 Eh     change       -0.1697736E-02 Eh
   gradient norm :     0.0446868 Eh/α   predicted    -0.1911553E-02 (  12.59%)
   displ. norm   :     0.5318376 α      lambda       -0.4006226E-02
   maximum displ.:     0.2452856 α      in ANC's #5, #3, #15, ...

........................................................................
.............................. CYCLE   18 ..............................
........................................................................
------------------------------------------------------------
  cycle        total energy    energy error   density error
------------------------------------------------------------
      1     -130.2283983914  -1.3178451E+02   2.7771275E-03
      2     -130.2285262740  -1.2788259E-04   1.6440753E-03
      3     -130.2285380314  -1.1757411E-05   8.8672763E-04
      4     -130.2285282767   9.7546817E-06   4.0322309E-04
      5     -130.2285501045  -2.1827717E-05   9.2528081E-05
      6     -130.2285500180   8.6468646E-08   5.3633743E-05
      7     -130.2285503961  -3.7812376E-07   2.3658360E-05
      8     -130.2285504223  -2.6197995E-08   1.3595528E-05
------------------------------------------------------------

 total:                                   0.443 sec
 * total energy  :  -130.2285504 Eh     change       -0.2899168E-02 Eh
   gradient norm :     0.0402592 Eh/α   predicted    -0.2569694E-02 ( -11.36%)
   displ. norm   :     0.6122692 α      lambda       -0.4815901E-02
   maximum displ.:     0.2713142 α      in ANC's #5, #15, #12, ...

........................................................................
.............................. CYCLE   19 ..............................
........................................................................
------------------------------------------------------------
  cycle        total energy    energy error   density error
------------------------------------------------------------
      1     -130.2314412356  -1.3178603E+02   3.2782251E-03
      2     -130.2315147934  -7.3557722E-05   1.9474280E-03
      3     -130.2315060812   8.7121168E-06   7.4756584E-04
      4     -130.2315139862  -7.9049216E-06   2.6486627E-04
      5     -130.2315246521  -1.0665964E-05   1.1936091E-04
      6     -130.2315255411  -8.8897005E-07   5.9618028E-05
      7     -130.2315261125  -5.7141310E-07   2.4188789E-05
      8     -130.2315261109   1.5648141E-09   1.4078419E-05
------------------------------------------------------------

 total:                                   0.553 sec
 * total energy  :  -130.2315261 Eh     change       -0.2975689E-02 Eh
   gradient norm :     0.0336681 Eh/α   predicted    -0.3310627E-02 (  11.26%)
   displ. norm   :     0.5916936 α      lambda       -0.4260187E-02
   maximum displ.:     0.2854016 α      in ANC's #5, #15, #3, ...

........................................................................
.............................. CYCLE   20 ..............................
........................................................................
------------------------------------------------------------
  cycle        total energy    energy error   density error
------------------------------------------------------------
      1     -130.2342824201  -1.3178449E+02   3.0574554E-03
      2     -130.2343565911  -7.4170941E-05   1.7016879E-03
      3     -130.2343508382   5.7528592E-06   7.7779240E-04
      4     -130.2343545182  -3.6799801E-06   3.1181292E-04
      5     -130.2343676911  -1.3172933E-05   8.1806024E-05
      6     -130.2343677285  -3.7386542E-08   3.7394267E-05
      7     -130.2343678854  -1.5685927E-07   1.9639355E-05
------------------------------------------------------------

 total:                                   0.345 sec
 * total energy  :  -130.2343679 Eh     change       -0.2841774E-02 Eh
   gradient norm :     0.0335280 Eh/α   predicted    -0.2875851E-02 (   1.20%)
   displ. norm   :     0.6059267 α      lambda       -0.4185174E-02
   maximum displ.:     0.2961836 α      in ANC's #5, #15, #9, ...
 * RMSD in coord.:     0.9812318 α      energy gain  -0.2414459E+01 Eh

generating ANC from exact Hessian ...
Using Lindh-Hessian (1995)
 Shifting diagonal of input Hessian by    9.8599246116626276E-003
 Lowest  eigenvalues of input Hessian
    0.000000    0.000000    0.000000    0.000000    0.000000    0.000000
    0.010000    0.010007    0.010041    0.010216    0.010280    0.010421
    0.010514    0.010646    0.010929    0.011044    0.011100    0.011428
 Highest eigenvalues
    2.094063    2.169539    2.180063    2.637678    2.673575    2.684959


........................................................................
.............................. CYCLE   21 ..............................
........................................................................
------------------------------------------------------------
  cycle        total energy    energy error   density error
------------------------------------------------------------
      1     -130.2369353920  -1.3179059E+02   2.9476346E-03
      2     -130.2369862814  -5.0889426E-05   1.7240503E-03
      3     -130.2369579339   2.8347518E-05   6.6583665E-04
      4     -130.2369860994  -2.8165569E-05   3.0342486E-04
      5     -130.2369999023  -1.3802825E-05   1.0842947E-04
      6     -130.2370002095  -3.0722012E-07   6.2205780E-05
      7     -130.2370007654  -5.5586824E-07   2.2294978E-05
      8     -130.2370007705  -5.0965241E-09   1.4184353E-05
------------------------------------------------------------

 total:                                   0.410 sec
 * total energy  :  -130.2370008 Eh     change       -0.2632885E-02 Eh
   gradient norm :     0.0306508 Eh/α   predicted     0.0000000E+00 (-100.00%)
   displ. norm   :     0.2897401 α      lambda       -0.3604224E-02
   maximum displ.:     0.1016571 α      in ANC's #5, #11, #9, ...

........................................................................
.............................. CYCLE   22 ..............................
........................................................................
------------------------------------------------------------
  cycle        total energy    energy error   density error
------------------------------------------------------------
      1     -130.2397505721  -1.3179261E+02   2.1553248E-03
      2     -130.2397674512  -1.6879058E-05   1.1037664E-03
      3     -130.2397541738   1.3277414E-05   4.5522220E-04
      4     -130.2397671842  -1.3010412E-05   2.3258633E-04
      5     -130.2397731488  -5.9646142E-06   8.9200172E-05
      6     -130.2397741129  -9.6411267E-07   3.6366983E-05
      7     -130.2397742681  -1.5519677E-07   1.6289382E-05
------------------------------------------------------------

 total:                                   0.344 sec
 * total energy  :  -130.2397743 Eh     change       -0.2773498E-02 Eh
   gradient norm :     0.0153794 Eh/α   predicted    -0.1953855E-02 ( -29.55%)
   displ. norm   :     0.5049115 α      lambda       -0.3226168E-02
   maximum displ.:     0.1930187 α      in ANC's #5, #11, #27, ...

........................................................................
.............................. CYCLE   23 ..............................
........................................................................
------------------------------------------------------------
  cycle        total energy    energy error   density error
------------------------------------------------------------
      1     -130.2421277556  -1.3179306E+02   3.0240649E-03
      2     -130.2421594225  -3.1666915E-05   1.4531044E-03
      3     -130.2421374260   2.1996499E-05   5.8803378E-04
      4     -130.2421582735  -2.0847488E-05   3.1214854E-04
      5     -130.2421701578  -1.1884285E-05   1.1154483E-04
      6     -130.2421715059  -1.3481537E-06   4.5002926E-05
      7     -130.2421717611  -2.5520004E-07   1.9712764E-05
------------------------------------------------------------

 total:                                   0.357 sec
 * total energy  :  -130.2421718 Eh     change       -0.2397493E-02 Eh
   gradient norm :     0.0107385 Eh/α   predicted    -0.2024898E-02 ( -15.54%)
   displ. norm   :     0.5555019 α      lambda       -0.2127652E-02
   maximum displ.:     0.2256364 α      in ANC's #5, #11, #27, ...

........................................................................
.............................. CYCLE   24 ..............................
........................................................................
------------------------------------------------------------
  cycle        total energy    energy error   density error
------------------------------------------------------------
      1     -130.2438332929  -1.3179304E+02   2.9692484E-03
      2     -130.2438621504  -2.8857564E-05   1.4275085E-03
      3     -130.2438421891   1.9961358E-05   5.4346743E-04
      4     -130.2438596283  -1.7439173E-05   3.0669070E-04
      5     -130.2438717372  -1.2108961E-05   9.6498895E-05
      6     -130.2438725050  -7.6782862E-07   4.3802639E-05
      7     -130.2438727693  -2.6423254E-07   2.0248984E-05
      8     -130.2438727724  -3.1108129E-09   1.2204757E-05
------------------------------------------------------------

 total:                                   0.510 sec
 * total energy  :  -130.2438728 Eh     change       -0.1701011E-02 Eh
   gradient norm :     0.0154266 Eh/α   predicted    -0.1392105E-02 ( -18.16%)
   displ. norm   :     0.6072660 α      lambda       -0.1895601E-02
   maximum displ.:     0.2650119 α      in ANC's #5, #11, #6, ...

........................................................................
.............................. CYCLE   25 ..............................
........................................................................
------------------------------------------------------------
  cycle        total energy    energy error   density error
------------------------------------------------------------
      1     -130.2453720172  -1.3179460E+02   2.9671091E-03
      2     -130.2453985797  -2.6562482E-05   1.4367104E-03
      3     -130.2453845968   1.3982862E-05   4.9017399E-04
      4     -130.2453948492  -1.0252459E-05   2.9518528E-04
      5     -130.2454061404  -1.1291182E-05   8.9804270E-05
      6     -130.2454068577  -7.1730886E-07   4.1089956E-05
      7     -130.2454070477  -1.8991210E-07   2.1223111E-05
      8     -130.2454070522  -4.5969841E-09   1.1603902E-05
------------------------------------------------------------

 total:                                   0.406 sec
 * total energy  :  -130.2454071 Eh     change       -0.1534280E-02 Eh
   gradient norm :     0.0151457 Eh/α   predicted    -0.1297324E-02 ( -15.44%)
   displ. norm   :     0.6047095 α      lambda       -0.1623485E-02
   maximum displ.:     0.2877098 α      in ANC's #5, #9, #11, ...

........................................................................
.............................. CYCLE   26 ..............................
........................................................................
------------------------------------------------------------
  cycle        total energy    energy error   density error
------------------------------------------------------------
      1     -130.2466776414  -1.3179848E+02   2.6023929E-03
      2     -130.2466986617  -2.1020270E-05   1.2833247E-03
      3     -130.2466943033   4.3583476E-06   3.9567261E-04
      4     -130.2466976363  -3.3329643E-06   2.3092705E-04
      5     -130.2467029928  -5.3565315E-06   8.4175863E-05
      6     -130.2467037077  -7.1485533E-07   3.8033938E-05
      7     -130.2467038610  -1.5335246E-07   2.0922551E-05
      8     -130.2467038633  -2.2875213E-09   1.0424855E-05
------------------------------------------------------------

 total:                                   0.359 sec
 * total energy  :  -130.2467039 Eh     change       -0.1296811E-02 Eh
   gradient norm :     0.0100296 Eh/α   predicted    -0.1108585E-02 ( -14.51%)
   displ. norm   :     0.6078468 α      lambda       -0.1233940E-02
   maximum displ.:     0.3053511 α      in ANC's #5, #9, #7, ...

........................................................................
.............................. CYCLE   27 ..............................
........................................................................
------------------------------------------------------------
  cycle        total energy    energy error   density error
------------------------------------------------------------
      1     -130.2476958597  -1.3180192E+02   2.3125186E-03
      2     -130.2477124060  -1.6546319E-05   1.1512039E-03
      3     -130.2477106769   1.7290721E-06   3.4253739E-04
      4     -130.2477123075  -1.6305413E-06   1.9065698E-04
      5     -130.2477152913  -2.9838397E-06   8.0092020E-05
      6     -130.2477159825  -6.9113682E-07   3.4428247E-05
      7     -130.2477160958  -1.1336570E-07   1.9565039E-05
------------------------------------------------------------

 total:                                   0.349 sec
 * total energy  :  -130.2477161 Eh     change       -0.1012233E-02 Eh
   gradient norm :     0.0085421 Eh/α   predicted    -0.8449524E-03 ( -16.53%)
   displ. norm   :     0.6197864 α      lambda       -0.1068886E-02
   maximum displ.:     0.3207455 α      in ANC's #5, #9, #7, ...

........................................................................
.............................. CYCLE   28 ..............................
........................................................................
------------------------------------------------------------
  cycle        total energy    energy error   density error
------------------------------------------------------------
      1     -130.2486065053  -1.3180476E+02   2.2505101E-03
      2     -130.2486220862  -1.5580982E-05   1.1153740E-03
      3     -130.2486197527   2.3335753E-06   3.3946495E-04
      4     -130.2486219770  -2.2243263E-06   1.8784337E-04
      5     -130.2486251280  -3.1509881E-06   7.6519843E-05
      6     -130.2486256786  -5.5062910E-07   2.9372400E-05
      7     -130.2486257469  -6.8294668E-08   1.8200607E-05
------------------------------------------------------------

 total:                                   0.332 sec
 * total energy  :  -130.2486257 Eh     change       -0.9096511E-03 Eh
   gradient norm :     0.0096112 Eh/α   predicted    -0.7397878E-03 ( -18.67%)
   displ. norm   :     0.6534075 α      lambda       -0.1058083E-02
   maximum displ.:     0.3414229 α      in ANC's #5, #7, #9, ...

........................................................................
.............................. CYCLE   29 ..............................
........................................................................
------------------------------------------------------------
  cycle        total energy    energy error   density error
------------------------------------------------------------
      1     -130.2495131159  -1.3180667E+02   2.4126575E-03
      2     -130.2495300145  -1.6898545E-05   1.1841549E-03
      3     -130.2495258150   4.1994966E-06   3.6426217E-04
      4     -130.2495292057  -3.3907212E-06   2.1058897E-04
      5     -130.2495340797  -4.8740486E-06   7.8630344E-05
      6     -130.2495345843  -5.0452459E-07   3.2323899E-05
      7     -130.2495346641  -7.9812679E-08   1.9272723E-05
------------------------------------------------------------

 total:                                   0.404 sec
 * total energy  :  -130.2495347 Eh     change       -0.9089172E-03 Eh
   gradient norm :     0.0087819 Eh/α   predicted    -0.7549123E-03 ( -16.94%)
   displ. norm   :     0.6839947 α      lambda       -0.1024047E-02
   maximum displ.:     0.3562072 α      in ANC's #5, #7, #9, ...

........................................................................
.............................. CYCLE   30 ..............................
........................................................................
------------------------------------------------------------
  cycle        total energy    energy error   density error
------------------------------------------------------------
      1     -130.2503808965  -1.3180744E+02   2.5722802E-03
      2     -130.2503981090  -1.7212511E-05   1.2740568E-03
      3     -130.2503907805   7.3285499E-06   3.9341253E-04
      4     -130.2503983641  -7.5836415E-06   2.2728536E-04
      5     -130.2504036654  -5.3013162E-06   7.3329674E-05
      6     -130.2504039881  -3.2264870E-07   3.3365659E-05
      7     -130.2504040631  -7.5005175E-08   1.9718926E-05
------------------------------------------------------------

 total:                                   0.445 sec
 * total energy  :  -130.2504041 Eh     change       -0.8693990E-03 Eh
   gradient norm :     0.0076558 Eh/α   predicted    -0.7515751E-03 ( -13.55%)
   displ. norm   :     0.6912185 α      lambda       -0.9243875E-03
   maximum displ.:     0.3560827 α      in ANC's #5, #7, #9, ...

........................................................................
.............................. CYCLE   31 ..............................
........................................................................
------------------------------------------------------------
  cycle        total energy    energy error   density error
------------------------------------------------------------
      1     -130.2511738981  -1.3180735E+02   2.5396457E-03
      2     -130.2511892789  -1.5380749E-05   1.2918680E-03
      3     -130.2511790730   1.0205866E-05   4.0269459E-04
      4     -130.2511897644  -1.0691388E-05   2.2712511E-04
      5     -130.2511947652  -5.0008318E-06   7.6584136E-05
      6     -130.2511952821  -5.1689852E-07   3.6470508E-05
      7     -130.2511954087  -1.2664023E-07   2.1494952E-05
      8     -130.2511954085   2.9172043E-10   1.1818385E-05
------------------------------------------------------------

 total:                                   0.488 sec
 * total energy  :  -130.2511954 Eh     change       -0.7913454E-03 Eh
   gradient norm :     0.0100878 Eh/α   predicted    -0.6830429E-03 ( -13.69%)
   displ. norm   :     0.6928312 α      lambda       -0.9078292E-03
   maximum displ.:     0.3500530 α      in ANC's #5, #7, #9, ...

........................................................................
.............................. CYCLE   32 ..............................
........................................................................
------------------------------------------------------------
  cycle        total energy    energy error   density error
------------------------------------------------------------
      1     -130.2519652750  -1.3180812E+02   2.4288004E-03
      2     -130.2519782554  -1.2980384E-05   1.2830665E-03
      3     -130.2519632008   1.5054589E-05   4.0976239E-04
      4     -130.2519782664  -1.5065651E-05   2.1949812E-04
      5     -130.2519833530  -5.0865857E-06   7.9404772E-05
      6     -130.2519840395  -6.8649447E-07   3.5335452E-05
      7     -130.2519841572  -1.1768623E-07   2.0007754E-05
      8     -130.2519841556   1.6136141E-09   1.0494203E-05
------------------------------------------------------------

 total:                                   0.405 sec
 * total energy  :  -130.2519842 Eh     change       -0.7887471E-03 Eh
   gradient norm :     0.0126237 Eh/α   predicted    -0.6718017E-03 ( -14.83%)
   displ. norm   :     0.7156640 α      lambda       -0.9399381E-03
   maximum displ.:     0.3514576 α      in ANC's #5, #7, #9, ...

........................................................................
.............................. CYCLE   33 ..............................
........................................................................
------------------------------------------------------------
  cycle        total energy    energy error   density error
------------------------------------------------------------
      1     -130.2527729215  -1.3180782E+02   2.4413675E-03
      2     -130.2527842278  -1.1306290E-05   1.3205910E-03
      3     -130.2527658569   1.8370920E-05   4.2337413E-04
      4     -130.2527844451  -1.8588192E-05   2.1438902E-04
      5     -130.2527891355  -4.6904502E-06   7.9104431E-05
      6     -130.2527900282  -8.9265069E-07   3.2693716E-05
      7     -130.2527900929  -6.4720183E-08   1.8998984E-05
------------------------------------------------------------

 total:                                   0.339 sec
 * total energy  :  -130.2527901 Eh     change       -0.8059373E-03 Eh
   gradient norm :     0.0125881 Eh/α   predicted    -0.7106786E-03 ( -11.82%)
   displ. norm   :     0.6889429 α      lambda       -0.9177704E-03
   maximum displ.:     0.3188163 α      in ANC's #5, #7, #9, ...

........................................................................
.............................. CYCLE   34 ..............................
........................................................................
------------------------------------------------------------
  cycle        total energy    energy error   density error
------------------------------------------------------------
      1     -130.2534267072  -1.3181443E+02   2.2507810E-03
      2     -130.2534369688  -1.0261591E-05   1.2579115E-03
      3     -130.2534212909   1.5677908E-05   3.7833525E-04
      4     -130.2534385795  -1.7288665E-05   1.7289936E-04
      5     -130.2534409925  -2.4129372E-06   6.4440703E-05
      6     -130.2534414585  -4.6604742E-07   3.1462011E-05
      7     -130.2534415629  -1.0438998E-07   1.6000251E-05
------------------------------------------------------------

 total:                                   0.418 sec
 * total energy  :  -130.2534416 Eh     change       -0.6514700E-03 Eh
   gradient norm :     0.0121472 Eh/α   predicted    -0.6766925E-03 (   3.87%)
   displ. norm   :     0.7648108 α      lambda       -0.9121217E-03
   maximum displ.:     0.3692358 α      in ANC's #5, #7, #9, ...

........................................................................
.............................. CYCLE   35 ..............................
........................................................................
------------------------------------------------------------
  cycle        total energy    energy error   density error
------------------------------------------------------------
      1     -130.2539478129  -1.3180650E+02   2.7068547E-03
      2     -130.2539682719  -2.0458997E-05   1.4504675E-03
      3     -130.2539560085   1.2263412E-05   4.5750206E-04
      4     -130.2539656512  -9.6427241E-06   2.5630462E-04
      5     -130.2539739370  -8.2857784E-06   9.0923016E-05
      6     -130.2539747501  -8.1305896E-07   4.2660561E-05
      7     -130.2539749237  -1.7359008E-07   2.2970444E-05
      8     -130.2539749187   4.9547566E-09   1.2834177E-05
------------------------------------------------------------

 total:                                   0.395 sec
 * total energy  :  -130.2539749 Eh     change       -0.5333558E-03 Eh
   gradient norm :     0.0132733 Eh/α   predicted    -0.7228297E-03 (  35.52%)
   displ. norm   :     0.5092500 α      lambda       -0.5464386E-03
   maximum displ.:     0.2463886 α      in ANC's #5, #7, #9, ...

........................................................................
.............................. CYCLE   36 ..............................
........................................................................
------------------------------------------------------------
  cycle        total energy    energy error   density error
------------------------------------------------------------
      1     -130.2543921727  -1.3180841E+02   1.7318424E-03
      2     -130.2544026868  -1.0514118E-05   9.1253778E-04
      3     -130.2543976955   4.9912481E-06   2.9882499E-04
      4     -130.2544007878  -3.0922702E-06   1.7139483E-04
      5     -130.2544050844  -4.2965802E-06   6.5757874E-05
      6     -130.2544054187  -3.3428230E-07   2.7015141E-05
      7     -130.2544054994  -8.0709896E-08   1.3533557E-05
------------------------------------------------------------

 total:                                   0.352 sec
 * total energy  :  -130.2544055 Eh     change       -0.4305807E-03 Eh
   gradient norm :     0.0111012 Eh/α   predicted    -0.3440773E-03 ( -20.09%)
   displ. norm   :     0.5254181 α      lambda       -0.8314032E-03
   maximum displ.:     0.2264747 α      in ANC's #5, #7, #2, ...

........................................................................
.............................. CYCLE   37 ..............................
........................................................................
------------------------------------------------------------
  cycle        total energy    energy error   density error
------------------------------------------------------------
      1     -130.2547604150  -1.3182126E+02   1.8659639E-03
      2     -130.2547757986  -1.5383609E-05   9.7735954E-04
      3     -130.2547692409   6.5576971E-06   3.5398241E-04
      4     -130.2547744228  -5.1818471E-06   1.8157608E-04
      5     -130.2547793521  -4.9293573E-06   6.6873807E-05
      6     -130.2547796815  -3.2936651E-07   2.4346211E-05
      7     -130.2547797866  -1.0511937E-07   9.6808537E-06
------------------------------------------------------------

 total:                                   0.459 sec
 * total energy  :  -130.2547798 Eh     change       -0.3742872E-03 Eh
   gradient norm :     0.0112344 Eh/α   predicted    -0.5304634E-03 (  41.73%)
   displ. norm   :     0.6254157 α      lambda       -0.5762460E-03
   maximum displ.:     0.2894972 α      in ANC's #5, #7, #9, ...

........................................................................
.............................. CYCLE   38 ..............................
........................................................................
------------------------------------------------------------
  cycle        total energy    energy error   density error
------------------------------------------------------------
      1     -130.2551869565  -1.3181550E+02   2.2833155E-03
      2     -130.2552031947  -1.6238214E-05   1.1914653E-03
      3     -130.2551917999   1.1394774E-05   4.0980396E-04
      4     -130.2552010519  -9.2519585E-06   2.3251491E-04
      5     -130.2552085116  -7.4597789E-06   8.1741787E-05
      6     -130.2552089708  -4.5912469E-07   3.8417707E-05
      7     -130.2552091084  -1.3761709E-07   2.1544933E-05
      8     -130.2552091086  -2.0702373E-10   1.2526706E-05
------------------------------------------------------------

 total:                                   0.383 sec
 * total energy  :  -130.2552091 Eh     change       -0.4293220E-03 Eh
   gradient norm :     0.0082921 Eh/α   predicted    -0.4008233E-03 (  -6.64%)
   displ. norm   :     0.5553076 α      lambda       -0.4050071E-03
   maximum displ.:     0.2329704 α      in ANC's #5, #7, #9, ...

........................................................................
.............................. CYCLE   39 ..............................
........................................................................
------------------------------------------------------------
  cycle        total energy    energy error   density error
------------------------------------------------------------
      1     -130.2554738652  -1.3181375E+02   2.0430094E-03
      2     -130.2554851926  -1.1327324E-05   1.0300816E-03
      3     -130.2554805880   4.6045698E-06   3.1828347E-04
      4     -130.2554836235  -3.0354894E-06   1.8974537E-04
      5     -130.2554880420  -4.4185182E-06   6.7445354E-05
      6     -130.2554885158  -4.7374851E-07   2.7844195E-05
      7     -130.2554885859  -7.0141681E-08   1.5645749E-05
------------------------------------------------------------

 total:                                   0.357 sec
 * total energy  :  -130.2554886 Eh     change       -0.2794773E-03 Eh
   gradient norm :     0.0098996 Eh/α   predicted    -0.2649506E-03 (  -5.20%)
   displ. norm   :     0.5774826 α      lambda       -0.4050442E-03
   maximum displ.:     0.2333815 α      in ANC's #5, #7, #9, ...

........................................................................
.............................. CYCLE   40 ..............................
........................................................................
------------------------------------------------------------
  cycle        total energy    energy error   density error
------------------------------------------------------------
      1     -130.2557742819  -1.3181184E+02   2.0438770E-03
      2     -130.2557848321  -1.0550184E-05   1.0393592E-03
      3     -130.2557782607   6.5714240E-06   3.2928437E-04
      4     -130.2557848167  -6.5559953E-06   1.8937801E-04
      5     -130.2557886711  -3.8544160E-06   5.8537074E-05
      6     -130.2557888912  -2.2005668E-07   2.8830440E-05
      7     -130.2557889308  -3.9650786E-08   1.7847016E-05
------------------------------------------------------------

 total:                                   0.365 sec
 * total energy  :  -130.2557889 Eh     change       -0.3003449E-03 Eh
   gradient norm :     0.0105543 Eh/α   predicted    -0.2700643E-03 ( -10.08%)
   displ. norm   :     0.4225609 α      lambda       -0.5833596E-03
   maximum displ.:     0.1649326 α      in ANC's #8, #2, #4, ...

........................................................................
.............................. CYCLE   41 ..............................
........................................................................
------------------------------------------------------------
  cycle        total energy    energy error   density error
------------------------------------------------------------
      1     -130.2561443316  -1.3181828E+02   1.5921703E-03
      2     -130.2561572947  -1.2963033E-05   8.3932112E-04
      3     -130.2561557931   1.5015778E-06   2.3976510E-04
      4     -130.2561576970  -1.9039074E-06   1.3477094E-04
      5     -130.2561591526  -1.4556396E-06   5.8270572E-05
      6     -130.2561593471  -1.9440631E-07   2.6795426E-05
      7     -130.2561594555  -1.0846341E-07   1.3945192E-05
------------------------------------------------------------

 total:                                   0.336 sec
 * total energy  :  -130.2561595 Eh     change       -0.3705247E-03 Eh
   gradient norm :     0.0080503 Eh/α   predicted    -0.3437671E-03 (  -7.22%)
   displ. norm   :     0.6129843 α      lambda       -0.4117077E-03
   maximum displ.:     0.2284009 α      in ANC's #8, #7, #4, ...

........................................................................
.............................. CYCLE   42 ..............................
........................................................................
------------------------------------------------------------
  cycle        total energy    energy error   density error
------------------------------------------------------------
      1     -130.2564705623  -1.3181670E+02   2.2423740E-03
      2     -130.2564837220  -1.3159631E-05   1.1390976E-03
      3     -130.2564770917   6.6302862E-06   3.4544244E-04
      4     -130.2564816954  -4.6036831E-06   2.1674783E-04
      5     -130.2564876342  -5.9387820E-06   7.8714245E-05
      6     -130.2564882829  -6.4875906E-07   3.4318464E-05
      7     -130.2564883420  -5.9120651E-08   2.0888179E-05
      8     -130.2564883361   5.9509091E-09   1.0701651E-05
------------------------------------------------------------

 total:                                   0.435 sec
 * total energy  :  -130.2564883 Eh     change       -0.3288806E-03 Eh
   gradient norm :     0.0080306 Eh/α   predicted    -0.2832100E-03 ( -13.89%)
   displ. norm   :     0.5940530 α      lambda       -0.4521025E-03
   maximum displ.:     0.2438432 α      in ANC's #8, #9, #4, ...
 * RMSD in coord.:     1.3174690 α      energy gain  -0.2212045E-01 Eh

generating ANC from exact Hessian ...
Using Lindh-Hessian (1995)
 Shifting diagonal of input Hessian by    9.8304472021638247E-003
 Lowest  eigenvalues of input Hessian
    0.000000    0.000000    0.000000    0.000000    0.000000    0.000000
    0.010000    0.010041    0.010091    0.010180    0.010211    0.010330
    0.010434    0.010500    0.010819    0.010852    0.011046    0.011290
 Highest eigenvalues
    2.103534    2.180444    2.185710    2.622768    2.626964    2.635817


........................................................................
.............................. CYCLE   43 ..............................
........................................................................
------------------------------------------------------------
  cycle        total energy    energy error   density error
------------------------------------------------------------
      1     -130.2568126984  -1.3181679E+02   2.1511006E-03
      2     -130.2568242664  -1.1567998E-05   1.0986812E-03
      3     -130.2568174899   6.7765454E-06   3.3235582E-04
      4     -130.2568225696  -5.0797496E-06   2.0641327E-04
      5     -130.2568279309  -5.3613141E-06   7.3086299E-05
      6     -130.2568284968  -5.6581311E-07   3.2468099E-05
      7     -130.2568285331  -3.6369784E-08   2.0000992E-05
      8     -130.2568285323   8.3582563E-10   8.0112322E-06
------------------------------------------------------------

 total:                                   0.403 sec
 * total energy  :  -130.2568285 Eh     change       -0.3401962E-03 Eh
   gradient norm :     0.0077314 Eh/α   predicted     0.0000000E+00 (-100.00%)
   displ. norm   :     0.0767136 α      lambda       -0.1618796E-03
   maximum displ.:     0.0303796 α      in ANC's #7, #8, #5, ...

........................................................................
.............................. CYCLE   44 ..............................
........................................................................
------------------------------------------------------------
  cycle        total energy    energy error   density error
------------------------------------------------------------
      1     -130.2569620939  -1.3181801E+02   4.0876817E-04
      2     -130.2569628376  -7.4373750E-07   2.2667675E-04
      3     -130.2569623593   4.7833902E-07   8.1428147E-05
      4     -130.2569627491  -3.8976813E-07   4.1032688E-05
      5     -130.2569630414  -2.9232461E-07   1.4361959E-05
------------------------------------------------------------

 total:                                   0.232 sec
 * total energy  :  -130.2569630 Eh     change       -0.1345091E-03 Eh
   gradient norm :     0.0035849 Eh/α   predicted    -0.8700723E-04 ( -35.31%)
   displ. norm   :     0.1825106 α      lambda       -0.2026806E-03
   maximum displ.:     0.0784707 α      in ANC's #7, #8, #5, ...

........................................................................
.............................. CYCLE   45 ..............................
........................................................................
------------------------------------------------------------
  cycle        total energy    energy error   density error
------------------------------------------------------------
      1     -130.2571003539  -1.3181929E+02   7.6959333E-04
      2     -130.2571028801  -2.5261192E-06   4.1052935E-04
      3     -130.2571026392   2.4086273E-07   1.2615520E-04
      4     -130.2571027978  -1.5861022E-07   6.2094658E-05
      5     -130.2571032133  -4.1551388E-07   3.0682437E-05
      6     -130.2571032950  -8.1668503E-08   1.1996825E-05
------------------------------------------------------------

 total:                                   0.290 sec
 * total energy  :  -130.2571033 Eh     change       -0.1402536E-03 Eh
   gradient norm :     0.0032393 Eh/α   predicted    -0.1047168E-03 ( -25.34%)
   displ. norm   :     0.2018304 α      lambda       -0.1280979E-03
   maximum displ.:     0.0914759 α      in ANC's #7, #8, #5, ...

........................................................................
.............................. CYCLE   46 ..............................
........................................................................
------------------------------------------------------------
  cycle        total energy    energy error   density error
------------------------------------------------------------
      1     -130.2572064504  -1.3181956E+02   7.6775656E-04
      2     -130.2572083059  -1.8555276E-06   4.0143380E-04
      3     -130.2572078591   4.4686752E-07   1.1425139E-04
      4     -130.2572079549  -9.5862760E-08   6.8706069E-05
      5     -130.2572086566  -7.0167476E-07   3.0168177E-05
      6     -130.2572087415  -8.4896982E-08   1.1004605E-05
------------------------------------------------------------

 total:                                   0.338 sec
 * total energy  :  -130.2572087 Eh     change       -0.1054465E-03 Eh
   gradient norm :     0.0048116 Eh/α   predicted    -0.6677414E-04 ( -36.67%)
   displ. norm   :     0.3380132 α      lambda       -0.1958300E-03
   maximum displ.:     0.1561391 α      in ANC's #7, #8, #5, ...

........................................................................
.............................. CYCLE   47 ..............................
........................................................................
------------------------------------------------------------
  cycle        total energy    energy error   density error
------------------------------------------------------------
      1     -130.2573636254  -1.3181899E+02   1.2518471E-03
      2     -130.2573676366  -4.0111901E-06   6.4655742E-04
      3     -130.2573681465  -5.0995479E-07   1.5515578E-04
      4     -130.2573681054   4.1136502E-08   7.6850768E-05
      5     -130.2573683203  -2.1493918E-07   3.7753075E-05
      6     -130.2573685219  -2.0154383E-07   1.6856098E-05
------------------------------------------------------------

 total:                                   0.288 sec
 * total energy  :  -130.2573685 Eh     change       -0.1597804E-03 Eh
   gradient norm :     0.0048659 Eh/α   predicted    -0.1091024E-03 ( -31.72%)
   displ. norm   :     0.4194343 α      lambda       -0.2158075E-03
   maximum displ.:     0.1992741 α      in ANC's #7, #5, #8, ...

........................................................................
.............................. CYCLE   48 ..............................
........................................................................
------------------------------------------------------------
  cycle        total energy    energy error   density error
------------------------------------------------------------
      1     -130.2575330932  -1.3181787E+02   1.5304679E-03
      2     -130.2575389216  -5.8284721E-06   7.8336764E-04
      3     -130.2575379204   1.0012234E-06   2.1036785E-04
      4     -130.2575381421  -2.2163672E-07   1.3174664E-04
      5     -130.2575403697  -2.2276246E-06   4.7766036E-05
      6     -130.2575405973  -2.2763089E-07   2.3789839E-05
      7     -130.2575406358  -3.8458325E-08   1.4185420E-05
------------------------------------------------------------

 total:                                   0.350 sec
 * total energy  :  -130.2575406 Eh     change       -0.1721139E-03 Eh
   gradient norm :     0.0043901 Eh/α   predicted    -0.1268881E-03 ( -26.28%)
   displ. norm   :     0.4158756 α      lambda       -0.2078539E-03
   maximum displ.:     0.2028072 α      in ANC's #7, #5, #8, ...

........................................................................
.............................. CYCLE   49 ..............................
........................................................................
------------------------------------------------------------
  cycle        total energy    energy error   density error
------------------------------------------------------------
      1     -130.2577032673  -1.3181744E+02   1.4917527E-03
      2     -130.2577095400  -6.2727453E-06   7.5948840E-04
      3     -130.2577092527   2.8734462E-07   2.0994724E-04
      4     -130.2577101963  -9.4367965E-07   1.1831765E-04
      5     -130.2577110820  -8.8570121E-07   4.2340287E-05
      6     -130.2577111861  -1.0402783E-07   2.1817803E-05
      7     -130.2577112168  -3.0701813E-08   1.3308889E-05
------------------------------------------------------------

 total:                                   0.354 sec
 * total energy  :  -130.2577112 Eh     change       -0.1705810E-03 Eh
   gradient norm :     0.0048891 Eh/α   predicted    -0.1219026E-03 ( -28.54%)
   displ. norm   :     0.4456337 α      lambda       -0.2463332E-03
   maximum displ.:     0.2203717 α      in ANC's #7, #5, #8, ...

........................................................................
.............................. CYCLE   50 ..............................
........................................................................
------------------------------------------------------------
  cycle        total energy    energy error   density error
------------------------------------------------------------
      1     -130.2579025304  -1.3181812E+02   1.5704350E-03
      2     -130.2579103798  -7.8494545E-06   8.0351732E-04
      3     -130.2579096667   7.1312243E-07   2.3583051E-04
      4     -130.2579112401  -1.5734213E-06   1.3001895E-04
      5     -130.2579122115  -9.7137993E-07   5.0541996E-05
      6     -130.2579123358  -1.2424951E-07   2.4889832E-05
      7     -130.2579123910  -5.5226167E-08   1.4407194E-05
------------------------------------------------------------

 total:                                   0.319 sec
 * total energy  :  -130.2579124 Eh     change       -0.2011742E-03 Eh
   gradient norm :     0.0058702 Eh/α   predicted    -0.1476694E-03 ( -26.60%)
   displ. norm   :     0.4976041 α      lambda       -0.2626452E-03
   maximum displ.:     0.2472324 α      in ANC's #7, #5, #8, ...

........................................................................
.............................. CYCLE   51 ..............................
........................................................................
------------------------------------------------------------
  cycle        total energy    energy error   density error
------------------------------------------------------------
      1     -130.2581116768  -1.3181866E+02   1.7101545E-03
      2     -130.2581213444  -9.6676110E-06   8.8300638E-04
      3     -130.2581197239   1.6204872E-06   2.6870779E-04
      4     -130.2581221663  -2.4424008E-06   1.4759567E-04
      5     -130.2581236199  -1.4535786E-06   5.8841470E-05
      6     -130.2581238083  -1.8838625E-07   2.7868850E-05
      7     -130.2581238778  -6.9544058E-08   1.5987883E-05
------------------------------------------------------------

 total:                                   0.408 sec
 * total energy  :  -130.2581239 Eh     change       -0.2114868E-03 Eh
   gradient norm :     0.0062846 Eh/α   predicted    -0.1638399E-03 ( -22.53%)
   displ. norm   :     0.5024016 α      lambda       -0.2395438E-03
   maximum displ.:     0.2518749 α      in ANC's #7, #5, #4, ...

........................................................................
.............................. CYCLE   52 ..............................
........................................................................
------------------------------------------------------------
  cycle        total energy    energy error   density error
------------------------------------------------------------
      1     -130.2583013249  -1.3181929E+02   1.6989472E-03
      2     -130.2583103260  -9.0010567E-06   8.8422228E-04
      3     -130.2583086388   1.6871655E-06   2.6516022E-04
      4     -130.2583109448  -2.3059955E-06   1.4507710E-04
      5     -130.2583124253  -1.4804642E-06   5.7349323E-05
      6     -130.2583126292  -2.0387137E-07   2.7620136E-05
      7     -130.2583127013  -7.2100278E-08   1.5929517E-05
------------------------------------------------------------

 total:                                   0.456 sec
 * total energy  :  -130.2583127 Eh     change       -0.1888235E-03 Eh
   gradient norm :     0.0057163 Eh/α   predicted    -0.1500040E-03 ( -20.56%)
   displ. norm   :     0.5018679 α      lambda       -0.1975525E-03
   maximum displ.:     0.2558982 α      in ANC's #7, #5, #4, ...

........................................................................
.............................. CYCLE   53 ..............................
........................................................................
------------------------------------------------------------
  cycle        total energy    energy error   density error
------------------------------------------------------------
      1     -130.2584601279  -1.3181928E+02   1.7027953E-03
      2     -130.2584685252  -8.3972944E-06   8.7731403E-04
      3     -130.2584679699   5.5529796E-07   2.4618134E-04
      4     -130.2584692529  -1.2830099E-06   1.3668106E-04
      5     -130.2584703945  -1.1415972E-06   5.1888864E-05
      6     -130.2584705735  -1.7899163E-07   2.5185145E-05
      7     -130.2584706211  -4.7643738E-08   1.5626834E-05
------------------------------------------------------------

 total:                                   0.318 sec
 * total energy  :  -130.2584706 Eh     change       -0.1579199E-03 Eh
   gradient norm :     0.0054065 Eh/α   predicted    -0.1236562E-03 ( -21.70%)
   displ. norm   :     0.4678111 α      lambda       -0.1857045E-03
   maximum displ.:     0.2416953 α      in ANC's #7, #5, #2, ...

........................................................................
.............................. CYCLE   54 ..............................
........................................................................
------------------------------------------------------------
  cycle        total energy    energy error   density error
------------------------------------------------------------
      1     -130.2586042773  -1.3182117E+02   1.6040269E-03
      2     -130.2586111396  -6.8623707E-06   8.2300388E-04
      3     -130.2586113074  -1.6771463E-07   2.1634988E-04
      4     -130.2586119822  -6.7484370E-07   1.1847783E-04
      5     -130.2586126409  -6.5868664E-07   4.2276000E-05
[...]
    47   6 C       72   1 H                                       1.0871924
    47   6 C       73   1 H                                       1.0875202
    47   6 C       74   1 H                                       1.0884318
    46   6 C       75   1 H                                       1.0930712
    46   6 C       76   1 H                                       1.0903123
     1   6 C       77   1 H                                       1.0930986
     1   6 C       78   1 H                                       1.0873711
    81   6 C       82   6 C                                       1.3833534
    82   6 C       83   6 C                                       1.4197426
    83   6 C       84   6 C                                       1.4173416
    84   6 C       85   6 C                                       1.3910811
    81   6 C       86   6 C                                       1.3839394
    85   6 C       86   6 C                                       1.3759339
    83   6 C       87   6 C                                       1.4276463
    87   6 C       88   6 C                                       1.4192320
    88   6 C       89   6 C                                       1.4118932
    79   6 C       90   7 N                                       1.4487268
    84   6 C       90   7 N                                       1.3871475
    89   6 C       90   7 N                                       1.3806893
    87   6 C       91   6 C                                       1.4283077
    91   6 C       92   6 C                                       1.4164141
    80   6 C       93   7 N                                       1.4497433
    92   6 C       93   7 N                                       1.3880237
    88   6 C       94   6 C                                       1.4146264
    93   7 N       94   6 C                                       1.3898747
    94   6 C       95   6 C                                       1.3931680
    95   6 C       96   6 C                                       1.3854031
    89   6 C       97   6 C                                       1.3882038
    96   6 C       97   6 C                                       1.3804454
    91   6 C       98   6 C                                       1.4174115
    98   6 C       99   6 C                                       1.3826510
    99   6 C      100   6 C                                       1.3813509
    92   6 C      101   6 C                                       1.3935407
   100   6 C      101   6 C                                       1.3815869
    98   6 C      102   8 O                                       1.3614747
    82   6 C      103   8 O                                       1.3676460
   106  16 S      107   8 O                                       1.4541224
   108   8 O      109   6 C                                       1.4091540
   104  16 S      110   8 O                                       1.4539329
   111   8 O      112   6 C                                       1.4007523
   105  16 S      113   8 O                                       1.4525856
   114   8 O      115   6 C                                       1.4059320
    81   6 C      116   1 H                                       1.0778775
    85   6 C      117   1 H                                       1.0777345
    99   6 C      118   1 H                                       1.0778418
   101   6 C      119   1 H                                       1.0765106
    95   6 C      120   1 H                                       1.0762705
    97   6 C      121   1 H                                       1.0760669
Note: The following floating-point exceptions are signalling: IEEE_UNDERFLOW_FLAG
normal termination of xtb
    80   6 C      122   6 C                                       1.5316643
   122   6 C      123   6 C                                       1.5232509
    79   6 C      124   6 C                                       1.5330961
   124   6 C      125   6 C                                       1.5234809
   102   8 O      126   6 C                                       1.4066382
   103   8 O      127   6 C                                       1.4107093
   112   6 C      128   1 H                                       1.0894714
   112   6 C      129   1 H                                       1.0950836
   112   6 C      130   1 H                                       1.0956599
   115   6 C      131   1 H                                       1.0891719
   115   6 C      132   1 H                                       1.0947654
   115   6 C      133   1 H                                       1.0952559
   109   6 C      134   1 H                                       1.0935109
   109   6 C      135   1 H                                       1.0942855
   109   6 C      136   1 H                                       1.0897276
    80   6 C      137   1 H                                       1.0855537
    80   6 C      138   1 H                                       1.0954386
   122   6 C      139   1 H                                       1.0911006
   122   6 C      140   1 H                                       1.0912774
   123   6 C      141   1 H                                       1.0884748
   123   6 C      142   1 H                                       1.0870103
   123   6 C      143   1 H                                       1.0874310
   126   6 C      144   1 H                                       1.0892696
   126   6 C      145   1 H                                       1.0948115
   126   6 C      146   1 H                                       1.0942325
   127   6 C      147   1 H                                       1.0887013
   127   6 C      148   1 H                                       1.0923910
   127   6 C      149   1 H                                       1.0931048
   125   6 C      150   1 H                                       1.0865569
   125   6 C      151   1 H                                       1.0878840
   125   6 C      152   1 H                                       1.0878431
   124   6 C      153   1 H                                       1.0900515
   124   6 C      154   1 H                                       1.0922331
    79   6 C      155   1 H                                       1.0877720
    79   6 C      156   1 H                                       1.0936879

 * 5 distinct bonds (by element types)

   Z      Z             #   av. dist./Å        max./Å        min./Å
   1 H    6 C          70     1.0887813     1.0959359     1.0740967
   6 C    6 C          50     1.4202387     1.5339093     1.3759339
   6 C    7 N          12     1.4065668     1.4497433     1.3806893
   6 C    8 O          14     1.3949007     1.4107093     1.3614747
   8 O   16 S           6     1.4538987     1.4556053     1.4525856


optimized geometry written to: xtbopt.mol


           -------------------------------------------------
          | TOTAL ENERGY             -260.590421739575 Eh   |
          | GRADIENT NORM               0.000236036127 Eh/α |
           -------------------------------------------------

------------------------------------------------------------------------
 * finished run on 2025/03/03 at 14:22:15.616     
------------------------------------------------------------------------
 total:
 * wall-time:     0 d,  0 h,  2 min, 36.367 sec
 *  cpu-time:     0 d,  0 h,  8 min, 33.405 sec
 * ratio c/w:     3.283 speedup
 SCF:
 * wall-time:     0 d,  0 h,  0 min,  2.836 sec
 *  cpu-time:     0 d,  0 h,  0 min, 10.022 sec
 * ratio c/w:     3.534 speedup
 ANC optimizer:
 * wall-time:     0 d,  0 h,  2 min, 33.523 sec
 *  cpu-time:     0 d,  0 h,  8 min, 23.377 sec
 * ratio c/w:     3.279 speedup

      -----------------------------------------------------------      
     |                   =====================                   |     
     |                           x T B                           |     
     |                   =====================                   |     
     |                         S. Grimme                         |     
     |          Mulliken Center for Theoretical Chemistry        |     
     |                    University of Bonn                     |     
      -----------------------------------------------------------      

   * xtb version 6.7.1 (edcfbbe) compiled by 'runner@Mac-1732539442253.local' on 2024-11-25

   xtb is free software: you can redistribute it and/or modify it under
   the terms of the GNU Lesser General Public License as published by
   the Free Software Foundation, either version 3 of the License, or
   (at your option) any later version.
   
   xtb is distributed in the hope that it will be useful,
   but WITHOUT ANY WARRANTY; without even the implied warranty of
   MERCHANTABILITY or FITNESS FOR A PARTICULAR PURPOSE.  See the
   GNU Lesser General Public License for more details.
   
   Cite this work as:
   * C. Bannwarth, E. Caldeweyher, S. Ehlert, A. Hansen, P. Pracht,
     J. Seibert, S. Spicher, S. Grimme, WIREs Comput. Mol. Sci., 2020, 11,
     e01493. DOI: 10.1002/wcms.1493
   
   for GFN2-xTB:
   * C. Bannwarth, S. Ehlert and S. Grimme., J. Chem. Theory Comput., 2019,
     15, 1652-1671. DOI: 10.1021/acs.jctc.8b01176
   for GFN1-xTB:
   * S. Grimme, C. Bannwarth, P. Shushkov, J. Chem. Theory Comput., 2017,
     13, 1989-2009. DOI: 10.1021/acs.jctc.7b00118
   for GFN0-xTB:
   * P. Pracht, E. Caldeweyher, S. Ehlert, S. Grimme, ChemRxiv, 2019, preprint.
     DOI: 10.26434/chemrxiv.8326202.v1
   for GFN-FF:
   * S. Spicher and S. Grimme, Angew. Chem. Int. Ed., 2020, 59, 15665-15673.
     DOI: 10.1002/anie.202004239
   
   for ALPB and GBSA implicit solvation:
   * S. Ehlert, M. Stahn, S. Spicher, S. Grimme, J. Chem. Theory Comput.,
     2021, 17, 4250-4261. DOI: 10.1021/acs.jctc.1c00471
   
   for ddCOSMO and CPCM-X implicit solvation:
   * M. Stahn, S. Ehlert, S. Grimme, J. Phys. Chem. A,
     2023, XX, XXXX-XXXX. DOI: 10.1021/acs.jpca.3c04382
   
   for DFT-D4:
   * E. Caldeweyher, C. Bannwarth and S. Grimme, J. Chem. Phys., 2017,
     147, 034112. DOI: 10.1063/1.4993215
   * E. Caldeweyher, S. Ehlert, A. Hansen, H. Neugebauer, S. Spicher,
     C. Bannwarth and S. Grimme, J. Chem. Phys., 2019, 150, 154122.
     DOI: 10.1063/1.5090222
   * E. Caldeweyher, J.-M. Mewes, S. Ehlert and S. Grimme, Phys. Chem. Chem. Phys.
     2020, 22, 8499-8512. DOI: 10.1039/D0CP00502A
   
   for sTDA-xTB:
   * S. Grimme and C. Bannwarth, J. Chem. Phys., 2016, 145, 054103.
     DOI: 10.1063/1.4959605
   
   in the mass-spec context:
   * V. Asgeirsson, C. Bauer and S. Grimme, Chem. Sci., 2017, 8, 4879.
     DOI: 10.1039/c7sc00601b
   * J. Koopman and S. Grimme, ACS Omega 2019, 4, 12, 15120-15133.
     DOI: 10.1021/acsomega.9b02011
   
   for metadynamics refer to:
   * S. Grimme, J. Chem. Theory Comput., 2019, 155, 2847-2862
     DOI: 10.1021/acs.jctc.9b00143
   
   for SPH calculations refer to:
   * S. Spicher and S. Grimme, J. Chem. Theory Comput., 2021, 17, 1701-1714
     DOI: 10.1021/acs.jctc.0c01306
   
   for ONIOM refer to:
   * C. Plett, A. Katbashev, S. Ehlert, S. Grimme, M. Bursch,
     Phys. Chem. Chem. Phys., 2023, 25, 17860-17868. DOI: 10.1039/D3CP02178E
   
   for DIPRO refer to:
   * J. Kohn, N. Gildemeister, S. Grimme, D. Fazzi, A. Hansen,
     J. Chem. Phys., 2023, just accepted.
   
   for PTB refer to:
   * S. Grimme, M. Mueller, A. Hansen, J. Chem. Phys., 2023, 158, 124111.
     DOI: 10.1063/5.0137838
   
   with help from (in alphabetical order)
   P. Atkinson, C. Bannwarth, F. Bohle, G. Brandenburg, E. Caldeweyher
   M. Checinski, S. Dohm, S. Ehlert, S. Ehrlich, I. Gerasimov, C. Hölzer
   A. Katbashev, J. Kohn, J. Koopman, C. Lavigne, S. Lehtola, F. März, M. Müller,
   F. Musil, H. Neugebauer, J. Pisarek, C. Plett, P. Pracht, F. Pultar,
   J. Seibert, P. Shushkov, S. Spicher, M. Stahn, M. Steiner, T. Strunk,
   J. Stückrath, T. Rose, and J. Unsleber
   
 * started run on 2025/03/03 at 14:22:15.647     
   ID    Z sym.   atoms
    1    6 C      1-11, 13, 14, 16-23, 31, 34, 37, 44-49, 79-89, 91, 92,
                  94-101, 109, 112, 115, 122-127
    2    7 N      12, 15, 90, 93
    3    8 O      24, 25, 29, 30, 32, 33, 35, 36, 102, 103, 107, 108, 110,
                  111, 113, 114
    4   16 S      26-28, 104-106
    5    1 H      38-43, 50-78, 116-121, 128-156

           -------------------------------------------------
          |                Calculation Setup                |
           -------------------------------------------------

          program call               : xtb opt_dimer.mol --dipro 0.3 --chrg 0 --uhf 2 --spinpol --tblite
          coordinate file            : opt_dimer.mol
          omp threads                :                     8


molecular fragmentation (1/2 indicates fragments):
111111111111111111111111111111111111111111111111111111111111111111111111
111111222222222222222222222222222222222222222222222222222222222222222222
222222222222
# atoms in fragment 1/2:    78    78
 fragment masses (1/2) :      647.80      647.80
CMA distance (Bohr)    :   9.725
constraining FC (au)   :  0.0500
Wavefunction read from restart file
           -------------------------------------------------
          |                    D I P R O                    |
           -------------------------------------------------
Calculation for dimer 
--------------------- 
  
charge of dimer :   0.
unpaired e- of dimer :  2
repulsion energy          3.1233702976160E+00 Eh
dispersion energy         2.5139707795280E-02 Eh
number of electrons       4.6200000000000E+02 e
integral cutoff           1.8403572253217E+01 bohr

------------------------------------------------------------
  cycle        total energy    energy error   density error
------------------------------------------------------------
      1     -259.8619950884  -2.6301051E+02   1.9025406E-01
      2     -260.4941199157  -6.3212483E-01   8.9500283E-02
      3     -260.5141816380  -2.0061722E-02   3.7454502E-02
      4     -260.5626610739  -4.8479436E-02   1.9395321E-02
      5     -260.5828962456  -2.0235172E-02   7.1680950E-03
      6     -260.5832089226  -3.1267700E-04   4.7722013E-03
      7     -260.5873495843  -4.1406618E-03   1.7532078E-03
      8     -260.5874988762  -1.4929181E-04   9.6966467E-04
      9     -260.5875908329  -9.1956759E-05   4.5001900E-04
     10     -260.5876144355  -2.3602603E-05   1.4773952E-04
     11     -260.5876148263  -3.9074502E-07   8.6544111E-05
     12     -260.5876151254  -2.9913986E-07   4.0205234E-05
     13     -260.5876151911  -6.5659265E-08   2.2119653E-05
     14     -260.5876152471  -5.6060173E-08   9.0171664E-06
------------------------------------------------------------

electronic energy        -2.6373612525253E+02 Eh
total energy             -2.6058761524712E+02 Eh

 total:                                   1.580 sec
 - repulsion                              0.000 sec (  0%)
 - dispersion                             0.008 sec (  0%)
 - coulomb                                0.003 sec (  0%)
 - hamiltonian                            0.010 sec (  0%)
 - scc                                    1.559 sec ( 98%)

Found 2 fragments!
Fragment 1:  1-78
Fragment 2:  79-156

[Info] Fragment spin read from .UHFfrag
Calculation for fragment 1
 ------------------------------
   
charge of fragment :   0.
unpaired e- of fragment :  1
------------------------------------------------------------
  cycle        total energy    energy error   density error
------------------------------------------------------------
      1     -129.8758340992  -1.3143903E+02   1.9138720E-01
      2     -130.2107807676  -3.3494667E-01   8.8815025E-02
      3     -130.2255544948  -1.4773727E-02   3.7021520E-02
      4     -130.2457386430  -2.0184148E-02   1.9254936E-02
      5     -130.2547934472  -9.0548042E-03   6.3531149E-03
      6     -130.2542212623   5.7218486E-04   4.0925321E-03
      7     -130.2556837355  -1.4624732E-03   1.6003260E-03
      8     -130.2557427103  -5.8974838E-05   7.6299835E-04
      9     -130.2557517185  -9.0081499E-06   3.4475242E-04
     10     -130.2557619810  -1.0262536E-05   1.4991244E-04
     11     -130.2557621958  -2.1474727E-07   7.2183295E-05
     12     -130.2557622856  -8.9797595E-08   3.6712120E-05
     13     -130.2557623251  -3.9535081E-08   1.4605702E-05
------------------------------------------------------------

 total:                                   0.380 sec
Calculation for fragment 2
 ------------------------------
   
charge of fragment :   0.
unpaired e- of fragment :  1
------------------------------------------------------------
  cycle        total energy    energy error   density error
------------------------------------------------------------
      1     -129.8734682037  -1.3143817E+02   1.8931227E-01
      2     -130.2096881014  -3.3621990E-01   8.7357001E-02
      3     -130.2234967341  -1.3808633E-02   3.6343464E-02
      4     -130.2462815615  -2.2784827E-02   1.8837590E-02
      5     -130.2543924087  -8.1108471E-03   6.1176688E-03
      6     -130.2540099336   3.8247507E-04   3.8850178E-03
      7     -130.2552359017  -1.2259681E-03   1.5830207E-03
      8     -130.2552959187  -6.0016995E-05   7.6056499E-04
      9     -130.2553078664  -1.1947630E-05   3.6058226E-04
     10     -130.2553188627  -1.0996315E-05   1.4930446E-04
     11     -130.2553191309  -2.6817966E-07   7.7029353E-05
     12     -130.2553192572  -1.2628578E-07   3.6059513E-05
     13     -130.2553192863  -2.9128501E-08   1.5035560E-05
------------------------------------------------------------

 total:                                   0.431 sec
   
   ::::::::::::::::::::::::::::::::::::::::::::::
   ::     D I P R O      C O U P L I N G S     ::
   ::::::::::::::::::::::::::::::::::::::::::::::
   
energy threshhold for near-degenerate orbitals near HOMO and LUMO considered for DIPRO:  0.300 eV
no. of orbitals within energy window of frag 1         2
no. of orbitals within energy window of frag 2         2
   
  Fragment 1 SOMO   Fragment 2 SOMO 
--------------------------------------
E_mon(orb) frag1 frag2              -9.674    -9.924 eV
J(AB):                0.085 eV
S(AB):            -0.00398111 Eh
|J(AB,eff)|:            0.046 eV
   
  Fragment 1 SOMO   Fragment 2 LUMO 
--------------------------------------
E_mon(orb) frag1 frag2              -9.674    -8.245 eV
J(AB):                0.033 eV
S(AB):            -0.00147704 Eh
|J(AB,eff)|:            0.020 eV
   
  Fragment 1 LUMO   Fragment 2 SOMO 
--------------------------------------
E_mon(orb) frag1 frag2              -8.030    -9.924 eV
J(AB):               -0.025 eV
S(AB):             0.00120013 Eh
|J(AB,eff)|:            0.015 eV
   
  Fragment 1 LUMO   Fragment 2 LUMO 
--------------------------------------
E_mon(orb) frag1 frag2              -8.030    -8.245 eV
J(AB):               -0.017 eV
S(AB):             0.00061181 Eh
|J(AB,eff)|:            0.012 eV
   
..............................................................................
:  total |J(AB,eff)| for hole transport (occ. MOs) :               0.046 eV  :
:  total |J(AB,eff)| for charge transport (unocc. MOs) :           0.012 eV  :
:  total |J(AB,eff)| for charge transfer (CT) :                    0.024 eV  :
..............................................................................
  
 Please remember, DIPRO is not available for restart!
   
normal termination of dipro
----------------------------------------------------------
 * finished run on 2025/03/03 at 14:22:18.067     
----------------------------------------------------------
 dipro:
 * wall-time:     0 d,  0 h,  0 min,  2.415 sec
 *  cpu-time:     0 d,  0 h,  0 min,  8.368 sec
 * ratio c/w:     3.465 speedup
Reorganization energy (electron): 0.45152808233618413 eV
Reorganization energy (hole): 0.30265227324757205 eV
Electron Transfer integral J: 0.012 eV
Hole Transfer integral J: 0.046 eV
