156
 energy: -260.471289600853 gnorm: 0.292694061744 xtb: 6.7.1 (edcfbbe)
C           -0.28520000000000        3.49830000000000       -2.23640000000000
C            2.28520000000000       -2.61500000000000        1.19080000000000
C           -4.26140000000000        0.36830000000000       -1.69610000000000
C           -3.20540000000000       -0.31440000000000       -1.10220000000000
C           -1.96450000000000        0.38820000000000       -0.90970000000000
C           -1.74800000000000        1.60770000000000       -1.60400000000000
C           -2.84230000000000        2.23050000000000       -2.20130000000000
C           -4.08240000000000        1.64220000000000       -2.20360000000000
C           -0.89400000000000       -0.13810000000000       -0.10520000000000
C            0.43100000000000        0.22820000000000       -0.46400000000000
C            0.65150000000000        1.36580000000000       -1.29180000000000
N           -0.45070000000000        2.12650000000000       -1.71240000000000
C           -1.08160000000000       -0.93350000000000        1.07730000000000
C            0.03520000000000       -1.64650000000000        1.58710000000000
N            1.27790000000000       -1.56290000000000        0.93920000000000
C            1.53120000000000       -0.52750000000000        0.02900000000000
C            2.81730000000000       -0.16480000000000       -0.35900000000000
C            3.02420000000000        0.94560000000000       -1.14970000000000
C            1.96460000000000        1.70180000000000       -1.60260000000000
C           -2.30460000000000       -0.92070000000000        1.83360000000000
C           -2.39040000000000       -1.71810000000000        2.97010000000000
C           -1.28780000000000       -2.39040000000000        3.45500000000000
C           -0.09910000000000       -2.36690000000000        2.77240000000000
O           -3.32600000000000       -0.03230000000000        1.49450000000000
O           -3.26410000000000       -1.65520000000000       -0.73500000000000
S           -5.48040000000000        2.56200000000000       -2.88360000000000
S           -1.35160000000000       -3.22290000000000        5.05340000000000
S            4.72020000000000        1.44240000000000       -1.53300000000000
O            4.42380000000000        2.88840000000000       -2.01750000000000
O            4.87840000000000        0.62450000000000       -2.99530000000000
C            4.10930000000000        1.17010000000000       -4.01520000000000
O           -4.74110000000000        3.88470000000000       -3.23710000000000
O           -6.18470000000000        2.96220000000000       -1.40730000000000
C           -5.45250000000000        3.92050000000000       -0.71620000000000
O           -2.81380000000000       -3.74680000000000        5.02020000000000
O           -0.48300000000000       -4.58820000000000        4.60680000000000
C           -1.20680000000000       -5.39750000000000        3.74010000000000
H           -5.23160000000000       -0.08560000000000       -1.77440000000000
H           -2.74770000000000        3.19490000000000       -2.66430000000000
H           -3.29200000000000       -1.74730000000000        3.55150000000000
H            0.74680000000000       -2.86460000000000        3.20740000000000
H            3.67930000000000       -0.67250000000000        0.03400000000000
H            2.19410000000000        2.56660000000000       -2.19410000000000
C            1.79000000000000       -3.98500000000000        0.74690000000000
C            2.79790000000000       -5.09460000000000        0.99040000000000
C           -0.75210000000000        4.54390000000000       -1.23210000000000
C           -0.73020000000000        5.95510000000000       -1.79210000000000
C           -4.60490000000000       -0.37640000000000        1.97800000000000
C           -4.45460000000000       -2.31730000000000       -1.08600000000000
H           -5.98870000000000        4.19190000000000        0.19720000000000
H           -5.33680000000000        4.80190000000000       -1.35440000000000
H           -4.46780000000000        3.52180000000000       -0.45960000000000
H           -0.62630000000000       -6.29660000000000        3.51680000000000
H           -1.41820000000000       -4.85590000000000        2.81430000000000
H           -2.14820000000000       -5.67460000000000        4.22450000000000
H            4.39870000000000        0.70650000000000       -4.96190000000000
H            4.29400000000000        2.24750000000000       -4.06200000000000
H            3.05100000000000        0.97610000000000       -3.82580000000000
H            2.54160000000000       -2.60870000000000        2.25200000000000
H            3.21190000000000       -2.38100000000000        0.66550000000000
H            1.52720000000000       -3.93530000000000       -0.31760000000000
H            0.84590000000000       -4.21470000000000        1.25560000000000
H            3.73120000000000       -4.90190000000000        0.45950000000000
H            2.42540000000000       -6.06500000000000        0.65680000000000
H            3.03820000000000       -5.18520000000000        2.05040000000000
H           -5.34800000000000        0.20720000000000        1.43340000000000
H           -4.68290000000000       -0.14520000000000        3.03900000000000
H           -4.78930000000000       -1.43750000000000        1.80700000000000
H           -4.36560000000000       -3.36370000000000       -0.79210000000000
H           -4.60400000000000       -2.26240000000000       -2.16490000000000
H           -5.29920000000000       -1.87270000000000       -0.55910000000000
H           -1.06450000000000        6.69030000000000       -1.05770000000000
H           -1.38210000000000        6.04180000000000       -2.66280000000000
H            0.27440000000000        6.23790000000000       -2.11020000000000
H           -0.13260000000000        4.47860000000000       -0.32960000000000
H           -1.76120000000000        4.29190000000000       -0.88200000000000
H           -0.83770000000000        3.58170000000000       -3.17580000000000
H            0.75260000000000        3.68640000000000       -2.51070000000000
C            1.88670000000000        2.39150000000000        1.70320000000000
C            3.05910000000000       -3.39240000000000        6.19250000000000
C           -2.54090000000000        1.52360000000000        4.05830000000000
C           -1.63610000000000        0.72910000000000        4.75240000000000
C           -0.23400000000000        0.84800000000000        4.44700000000000
C            0.16410000000000        1.63210000000000        3.32960000000000
C           -0.80320000000000        2.37880000000000        2.65630000000000
C           -2.12820000000000        2.30570000000000        2.99930000000000
C            0.76100000000000        0.06650000000000        5.12880000000000
C            1.98070000000000       -0.20260000000000        4.46050000000000
C            2.37030000000000        0.59650000000000        3.35010000000000
N            1.47930000000000        1.55370000000000        2.84970000000000
C            0.56180000000000       -0.55310000000000        6.41320000000000
C            1.23560000000000       -1.77620000000000        6.69060000000000
N            2.35400000000000       -2.12420000000000        5.92150000000000
C            2.80520000000000       -1.27980000000000        4.89750000000000
C            4.01350000000000       -1.49050000000000        4.24280000000000
C            4.41560000000000       -0.67450000000000        3.20920000000000
C            3.61800000000000        0.36310000000000        2.77820000000000
C           -0.26610000000000        0.03160000000000        7.43430000000000
C           -0.66210000000000       -0.77930000000000        8.49070000000000
C           -0.18870000000000       -2.07170000000000        8.61070000000000
C            0.77730000000000       -2.55340000000000        7.75750000000000
O           -0.59820000000000        1.37750000000000        7.32560000000000
O           -2.06230000000000       -0.26740000000000        5.62860000000000
S           -3.35130000000000        3.15360000000000        1.97720000000000
S           -0.84980000000000       -3.15240000000000        9.89580000000000
S            5.98200000000000       -0.95930000000000        2.35440000000000
O            5.38370000000000       -1.37590000000000        0.97470000000000
O            6.32210000000000       -2.44740000000000        3.07350000000000
C            5.85710000000000       -3.52010000000000        2.32490000000000
O           -2.41800000000000        4.15310000000000        1.24100000000000
O           -4.00290000000000        4.12720000000000        3.17770000000000
C           -3.08350000000000        5.05270000000000        3.65600000000000
O           -2.22870000000000       -2.46110000000000       10.09420000000000
O           -1.25060000000000       -4.42650000000000        8.87250000000000
C           -2.37510000000000       -4.14950000000000        8.10420000000000
H           -3.59050000000000        1.47600000000000        4.27870000000000
H           -0.54970000000000        3.00470000000000        1.82270000000000
H           -1.37830000000000       -0.43340000000000        9.21260000000000
H            1.12640000000000       -3.55930000000000        7.89980000000000
H            4.66240000000000       -2.29720000000000        4.52260000000000
H            3.98780000000000        0.97610000000000        1.97840000000000
C            2.55750000000000       -4.50840000000000        5.28980000000000
C            3.28470000000000       -5.82380000000000        5.50460000000000
C            2.45500000000000        3.73470000000000        2.12440000000000
C            2.97270000000000        4.54120000000000        0.94320000000000
C           -1.35280000000000        1.88890000000000        8.39650000000000
C           -3.39590000000000       -0.17030000000000        6.07220000000000
H           -3.58550000000000        5.72140000000000        4.36050000000000
H           -2.69300000000000        5.63000000000000        2.81230000000000
H           -2.26420000000000        4.53520000000000        4.16240000000000
H           -2.55820000000000       -4.98290000000000        7.41940000000000
H           -2.21500000000000       -3.23380000000000        7.52920000000000
H           -3.23070000000000       -4.01370000000000        8.77290000000000
H            6.17850000000000       -4.45490000000000        2.79170000000000
H            6.26590000000000       -3.44700000000000        1.31290000000000
H            4.76750000000000       -3.48310000000000        2.28120000000000
H            2.94480000000000       -3.66110000000000        7.24450000000000
H            4.13460000000000       -3.24830000000000        6.07420000000000
H            2.65080000000000       -4.18850000000000        4.24510000000000
H            1.47950000000000       -4.63790000000000        5.44780000000000
H            4.35350000000000       -5.71920000000000        5.31190000000000
H            2.90680000000000       -6.61080000000000        4.84890000000000
H            3.17370000000000       -6.17140000000000        6.53270000000000
H           -1.53290000000000        2.94910000000000        8.21570000000000
H           -0.79660000000000        1.77560000000000        9.32790000000000
H           -2.31100000000000        1.37220000000000        8.45670000000000
H           -3.53590000000000       -0.88100000000000        6.88780000000000
H           -4.08190000000000       -0.42420000000000        5.26540000000000
H           -3.59220000000000        0.83740000000000        6.43930000000000
H            3.39160000000000        5.50020000000000        1.25320000000000
H            2.17740000000000        4.74720000000000        0.22630000000000
H            3.75200000000000        3.99990000000000        0.40380000000000
H            3.25810000000000        3.56840000000000        2.85350000000000
H            1.68720000000000        4.29700000000000        2.67070000000000
H            1.04680000000000        2.51990000000000        1.01900000000000
H            2.61850000000000        1.85110000000000        1.10520000000000
156
 energy: -260.524092462145 gnorm: 0.188794851240 xtb: 6.7.1 (edcfbbe)
C           -0.28939204635746        3.48705125432793       -2.23296451602748
C            2.27377538596477       -2.60876231161258        1.18806226857530
C           -4.25723127033615        0.36259838780417       -1.69989983946932
C           -3.20055642423158       -0.30558492989805       -1.10098704387483
C           -1.96027889867224        0.38028651250573       -0.91718420368600
C           -1.73762299431445        1.59865709221907       -1.60867094596771
C           -2.82661649657937        2.22982100617432       -2.20542288263037
C           -4.06869546112494        1.64013750425119       -2.20099664043965
C           -0.90038455458203       -0.13976085162466       -0.10485032520414
C            0.42542709168924        0.22828939726033       -0.46018435927470
C            0.64212951676341        1.36621336583650       -1.28709886724127
N           -0.45116089653831        2.12496477580001       -1.70393216147781
C           -1.08059220541815       -0.92368227989869        1.07919152459449
C            0.04115269161684       -1.63351093884307        1.58585110615659
N            1.27214523831348       -1.56642947879191        0.92927890681624
C            1.52377632484852       -0.52784171835591        0.03397219384217
C            2.81286271003440       -0.16806442053754       -0.34754426053424
C            3.00918924467962        0.94076981938615       -1.15080047258196
C            1.95226944829958        1.70284049997408       -1.60725757681194
C           -2.29282495485577       -0.91875595917144        1.83544236645332
C           -2.38623534146918       -1.70456570430044        2.97265331885826
C           -1.28488331388001       -2.38621364355626        3.44607411665198
C           -0.08328911544965       -2.35053549576220        2.77342567221696
O           -3.31277641621479       -0.05117377069601        1.48385370328486
O           -3.26314888546266       -1.63339875471645       -0.73175976875641
S           -5.45744172595666        2.58162129739347       -2.87478793303569
S           -1.38020972787569       -3.22344502569027        5.03957847820534
S            4.69710848172592        1.45853450225160       -1.54805036755778
O            4.46146415867598        2.89209063722615       -1.98195140882477
O            4.87438306883666        0.62148584912964       -2.99275090027257
C            4.10958694297210        1.16410601382670       -4.02583160430351
O           -4.77288694433084        3.86913739429598       -3.28709702727341
O           -6.18132061940232        2.95667007199380       -1.40404577720342
C           -5.45440876029499        3.92528672449313       -0.70622572384957
O           -2.81330739930659       -3.71200048660769        5.04891234218855
O           -0.49219488070759       -4.58116434395026        4.60569426206720
C           -1.20703855638901       -5.40671502410074        3.73575295133301
H           -5.23302208768941       -0.08697397722722       -1.77956910037485
H           -2.74405651551714        3.19653940430847       -2.66885086031412
H           -3.29306998423993       -1.75660085185254        3.54901145956991
H            0.75644571948224       -2.86523001461889        3.20549292190086
H            3.68113616042241       -0.68147467995889        0.02771582294508
H            2.19261550517363        2.57239606129201       -2.19267743376625
C            1.77882556915710       -3.98499472606004        0.74269815201002
C            2.79808471641633       -5.08906536253676        0.99058599261335
C           -0.75470297834665        4.53906307913766       -1.22677607146127
C           -0.72634907934758        5.94913226795200       -1.79790629902343
C           -4.59656913905891       -0.37861493222396        1.97327687297777
C           -4.44850388037018       -2.31022446971511       -1.08332605256732
H           -6.00051428119260        4.18685296311978        0.19827809204165
H           -5.33219844008894        4.80900251389729       -1.33932139797682
H           -4.46613021471032        3.53643820915578       -0.44359236152880
H           -0.61528142746541       -6.29696249367336        3.52531851048183
H           -1.42051700914850       -4.87140979655513        2.80548854388335
H           -2.15242996091862       -5.68604008668559        4.20887170486401
H            4.41133645472071        0.69834518452961       -4.96256478969592
H            4.28441956940543        2.24400630938802       -4.07372288732866
H            3.04700708459117        0.97401767011872       -3.84545493132577
H            2.52760618997630       -2.60861652413854        2.25306657916454
H            3.19560701890922       -2.37443108749860        0.65629671219020
H            1.53450708956115       -3.93653174717130       -0.32303800502034
H            0.84545438132053       -4.22135919095658        1.26152083924131
H            3.72789274548679       -4.89487121836107        0.45732112046250
H            2.41846292946470       -6.05344885738697        0.65508463246635
H            3.03215989203442       -5.18074336537964        2.05082269268221
H           -5.32779690002423        0.21522629097924        1.42295086505700
H           -4.68854929674133       -0.14446195218952        3.03644712003195
H           -4.80040022229887       -1.43988338422299        1.81474668314121
H           -4.34248957188922       -3.35350444097437       -0.78436289358603
H           -4.60935342678185       -2.26646489195965       -2.16449235815881
H           -5.30873740689056       -1.88130056565706       -0.56286796253378
H           -1.06221941186056        6.67320233174524       -1.05672134495573
H           -1.38384061692043        6.03319553734476       -2.66243106938546
H            0.27887307603161        6.23153641085667       -2.11085011309696
H           -0.12406434194701        4.48494763461948       -0.33429400427615
H           -1.76411958231633        4.30004162356767       -0.88450253985357
H           -0.84800557929985        3.57478421158471       -3.16984385985763
H            0.75219035736330        3.67218734043240       -2.49491062081239
C            1.88524648186915        2.38659376184177        1.71554215172988
C            3.05398528114383       -3.38045629580125        6.18972323469215
C           -2.54101103392040        1.51017361733220        4.05376970605152
C           -1.63084521058583        0.72692070262285        4.74536157309753
C           -0.23669233834999        0.83304622441286        4.44168937751169
C            0.16556330325334        1.61212778309484        3.32145807111709
C           -0.79261261033503        2.36859623426293        2.64960025074242
C           -2.11745934164664        2.30655555245549        3.00724940748213
C            0.75474228281910        0.06268990296279        5.13085086640078
C            1.97275835502015       -0.20707230424942        4.45751335785009
C            2.36063978423451        0.59382614892784        3.34753146278922
N            1.47971289658467        1.55175762894538        2.85391079984454
C            0.56717993146227       -0.54695857082817        6.41580239326740
C            1.24328151145293       -1.76661590400348        6.69101108581591
N            2.34741861069963       -2.12318464466261        5.91828465492567
C            2.79420113231381       -1.28212284047659        4.89861315937939
C            4.00719005631448       -1.49312587364124        4.25412681064656
C            4.40895576589156       -0.66453434722235        3.22586602896860
C            3.61453624494845        0.37498254582537        2.78281262759731
C           -0.26480061435347        0.02280371256427        7.42663503316501
C           -0.65618698661510       -0.77210175151399        8.49107729695301
C           -0.18541082001707       -2.06549202668756        8.60098339654045
C            0.78852298752431       -2.55148610651385        7.75150649515749
O           -0.59924474928593        1.35400101669389        7.31790554574023
O           -2.04779465626537       -0.24920263283263        5.63009674778911
S           -3.33027817284708        3.16611798678007        1.98244171438915
S           -0.87501739243234       -3.13799876022468        9.88242369943739
S            5.95872313538182       -0.96863445437432        2.34465829351870
O            5.41218878937219       -1.33964814939448        0.97402760284292
O            6.34093334707188       -2.44348260165917        3.06099201670903
C            5.86264075749326       -3.52915554280017        2.32282444663013
O           -2.44665953696074        4.12311167181407        1.21034359085579
O           -4.00144525230228        4.12023355862681        3.18528358595876
C           -3.08604330676041        5.06000540429085        3.66478850531752
O           -2.20475854927120       -2.45959237260645       10.14090313407284
O           -1.24765379610292       -4.42586486613192        8.87353965176061
C           -2.38052723759807       -4.15506754616774        8.10137008501850
H           -3.59301240637182        1.47740434242269        4.28022315868713
H           -0.54730914162131        3.00774732127586        1.82127146226730
H           -1.37416513083338       -0.43457209250406        9.21868314395872
H            1.13485757315123       -3.55942460488820        7.90007674955571
H            4.66102275421885       -2.29839183407778        4.53466476848174
H            3.99005336349561        0.98164433828080        1.97880579248014
C            2.55323711114951       -4.50501273539256        5.28650594659716
C            3.28868396967359       -5.81863384469526        5.50827321786400
C            2.45468713542274        3.73702542180912        2.13622626043684
C            2.96984480428106        4.53462387155672        0.94349747600371
C           -1.34948510600732        1.88216913674422        8.38934272841504
C           -3.38628787362466       -0.16809711943866        6.07209365502033
H           -3.59825181321341        5.72181617323559        4.36132905942461
H           -2.68844521466447        5.63631314706142        2.82361936622384
H           -2.26050429447206        4.55054136206101        4.17248654843815
H           -2.55138520968333       -4.98904948784088        7.42389601028098
H           -2.22948181492828       -3.24164701095829        7.51922602070595
H           -3.24277758267501       -4.01752693090380        8.75943536222056
H            6.19155796092303       -4.45055671077069        2.80134968505857
H            6.25650269522883       -3.47359488615081        1.30534764641276
H            4.77164957370451       -3.50081752340739        2.28090792384628
H            2.93063452465847       -3.65023013600839        7.24028099885961
H            4.12955498424638       -3.23586045189785        6.06237541705956
H            2.66191068474786       -4.19144619584560        4.24320470829195
H            1.48202293893616       -4.64429407469492        5.45326509618177
H            4.35541805353911       -5.71281442177104        5.31169657313785
H            2.90388232795543       -6.59743192649340        4.85069080291865
H            3.17080553913083       -6.16484203648006        6.53416424912010
H           -1.51848049888110        2.94166142265970        8.19383960546808
H           -0.80170963461492        1.77891155945100        9.33033262307976
H           -2.31604539282307        1.37854676141918        8.46750461244491
H           -3.51270599240376       -0.88542012649459        6.88318271085143
H           -4.08447185282968       -0.42775141670184        5.27244253079703
H           -3.60440189898869        0.83682332085490        6.44184121405522
H            3.38545026963711        5.48992568577083        1.26122917657356
H            2.17124723869648        4.74257095827086        0.23359762708977
H            3.74845009000664        3.99384502314738        0.40630216179737
H            3.26613391635553        3.56911416427526        2.85172414824932
H            1.68291286182533        4.30370000989522        2.66652297264578
H            1.04101821564351        2.52215991276063        1.03836331158458
H            2.62212770368523        1.84996237774015        1.12139264987651
156
 energy: -260.552590683620 gnorm: 0.033135724489 xtb: 6.7.1 (edcfbbe)
C           -0.29280681494753        3.47293455394147       -2.22856882376166
C            2.25973390833610       -2.59899030579585        1.18357658630917
C           -4.25804769864816        0.36163569269317       -1.70685515408319
C           -3.19758067574392       -0.29605924290889       -1.10680960403569
C           -1.95797900174495        0.37323003661309       -0.92634936041531
C           -1.72864356926024        1.59194984661207       -1.61323552769727
C           -2.81464539616791        2.23321385934029       -2.20620604843944
C           -4.06066264519025        1.64410752613420       -2.19617409684740
C           -0.90772440181276       -0.14030357230813       -0.10434777642539
C            0.42176939151389        0.23043431253526       -0.45676265744964
C            0.63344450919048        1.36793875279833       -1.28281236709737
N           -0.45226307875200        2.12434466717190       -1.69313196633020
C           -1.08007365727007       -0.91100403980300        1.08355974892223
C            0.04802490511051       -1.61769106715081        1.58845977763420
N            1.26489742920751       -1.57012277738813        0.91581927771061
C            1.51829965556108       -0.52530992946544        0.03806014913660
C            2.81174570212095       -0.16907020923987       -0.34005716529700
C            2.99775686087760        0.93516811743748       -1.15635763838583
C            1.94286593702443        1.70355670827324       -1.61287074110551
C           -2.28287787090235       -0.91605582911160        1.83838030010630
C           -2.38316924359138       -1.69694964578581        2.97401079967888
C           -1.28212777269355       -2.38805110951449        3.43625634655415
C           -0.06727810987644       -2.33372178538367        2.77670998696461
O           -3.30048282421361       -0.07291390958175        1.47258842936139
O           -3.26478663377953       -1.60895754902327       -0.73256506396070
S           -5.43750018614051        2.61153500158723       -2.88130913846419
S           -1.41869530914543       -3.22414976365892        5.03162741655420
S            4.68393994563763        1.48658860518811       -1.55861893595569
O            4.47268519545205        2.86929595143640       -1.94898790954569
O            4.86628526845956        0.62084148997695       -2.98017718222868
C            4.10779906942822        1.15730743635398       -4.03326196966802
O           -4.79109432632561        3.83201590076850       -3.30813514969613
O           -6.17199104620881        2.94636755536344       -1.40844774353628
C           -5.45360501520076        3.92735747226804       -0.69728082372742
O           -2.79779933913502       -3.66967813427307        5.06207521376099
O           -0.50392485871926       -4.57064035148353        4.60562114598050
C           -1.20859237242216       -5.41435272005118        3.73054431849531
H           -5.23775252262146       -0.08094262827237       -1.78824510967694
H           -2.74769601931110        3.19925178688082       -2.67447249695901
H           -3.29137780345821       -1.77019767642725        3.54852127802261
H            0.76222468488213       -2.86512657836303        3.20916648997466
H            3.68766994019373       -0.68186534844475        0.01670825631549
H            2.19861196628976        2.57462172244992       -2.19267964899337
C            1.76695203700275       -3.98431379301494        0.73827693049183
C            2.79721283511627       -5.08451356204308        0.99046651085951
C           -0.75604534097953        4.53418989903417       -1.22194534310974
C           -0.72310712829645        5.94441843468063       -1.80392389343718
C           -4.58837567734304       -0.37903383782114        1.96713173484191
C           -4.44190506970387       -2.30468580002444       -1.07988088354433
H           -6.01295812570656        4.17931056914377        0.19744674119608
H           -5.32816892129375        4.81447095443807       -1.32535883224935
H           -4.46348290022897        3.54850244100070       -0.42422392631359
H           -0.60415035569803       -6.29559050457656        3.53611729394897
H           -1.42082396713342       -4.88693576427202        2.79393030391383
H           -2.15755342500985       -5.69808497624480        4.19300456385156
H            4.42512658855679        0.68902808284064       -4.95956386066217
H            4.27415964546011        2.23962483993897       -4.08611664300971
H            3.04094188717213        0.96860446445424       -3.86661306835761
H            2.51324902782325       -2.60667967449416        2.25092572835856
H            3.17693615362609       -2.37088491402607        0.64510233411130
H            1.53971017414993       -3.93821503269660       -0.32714692214987
H            0.84483989074426       -4.22709938580632        1.26542366842407
H            3.72273571394488       -4.88658427319096        0.45534646346420
H            2.41143269382226       -6.04346387654632        0.65285911727225
H            3.02482896385858       -5.17505440902558        2.05067701395125
H           -5.30283937976132        0.22730047739311        1.40907459534928
H           -4.69111701350559       -0.14090137487170        3.03197988466555
H           -4.81300679524556       -1.44024438197187        1.82141389990204
H           -4.31240367783356       -3.34299852108217       -0.77399190102532