116
 energy: -22.928061455056 gnorm: 0.329736929581 xtb: 6.6.1 (8d0f1dd)
C           -3.31122850772930        0.79849766164622       -0.92477639677520
C           -2.44380812530352       -0.12270372891954       -0.27661132624697
C           -1.41337090092821        0.39579727573559        0.56335275196199
C           -0.89266158675590        1.65801491088749        0.27377586709581
C           -1.72665675402493        2.51431363229076       -0.49448366572522
C           -2.95444148494349        2.13954154133227       -1.01494489940871
C           -0.74098268209890       -0.43411532818871        1.49825021926784
C            0.56872586496315        0.03782116815119        1.86248088067890
C            1.03782416582094        1.29402317993033        1.50887470833621
N            0.31238977034758        2.07067427098208        0.65193736800696
C           -1.29695700510141       -1.39996043042223        2.41574187746061
C           -0.38243517664656       -2.18060797534842        3.13232615520648
N            0.91308504082021       -1.90366887689689        3.30325166013478
C            1.37712470144904       -0.74872102533751        2.81811050966982
C            2.52149331701875       -0.17739833758153        3.39379298866852
C            2.95849061756259        1.02681208890480        2.95105897606587
C            2.24288949469137        1.78498308775960        2.03503020483770
C           -2.74860936222260       -1.74497937691422        2.38401158947411
C           -3.09416315450955       -2.91614440870436        3.00571134491758
C           -2.16786021984049       -3.77788778654213        3.63251872101904
C           -0.85708937311598       -3.40495313382985        3.68547234358092
O           -3.71994433332149       -0.94984598373544        1.67726658385724
O           -2.55702603277562       -1.47241711578389       -0.57241635275616
C           -3.84297843593025        3.13357444054366       -1.60938954875544
C           -2.68769581069131       -5.03867041417370        4.30484659386931
H           -1.39666850744143        3.51251503834900       -0.76806311868865
H           -4.27662633836220        0.55105838579656       -1.33106614114542
H            2.66329581305412        2.73912661909249        1.72562431984580
H            3.05775395548473       -0.69369546277216        4.16536137542516
H           -0.24710966264510       -4.12034095424229        4.22946223699121
H           -4.11477991332403       -3.04712728052358        3.03244694615357
O           -4.21824883374556        4.03433712717988       -0.87713382485991
O           -4.44510595673734        2.90643496899600       -2.81853501752979
C           -5.44216520282800        3.83300025693726       -3.02488532025093
C            4.23586651889298        1.50004220933226        3.59165660008449
O            5.05927614697201        0.66079890002952        3.91714215179376
O            4.47001334453535        2.86385149488593        3.72605651435371
C            5.79457498613219        3.08584475587818        4.15829123132174
O           -3.82227255313510       -5.27347675879771        4.16636005494405
O           -1.85023202017753       -5.79767454267276        5.06656077253571
C           -2.55119635829503       -6.86252441382958        5.62930343183426
C           -5.07197156564436       -1.42399175670916        1.58830531863830
C           -1.33089900128490       -2.23622472573986       -0.99264499351172
H           -2.54510546830388       -7.76426885143998        4.99136022291012
H           -3.57194749219491       -6.44405511486021        5.74196173723541
H           -2.09133598235598       -7.02043774843818        6.64022264233588
H            5.72707967266424        3.46798026205549        5.10135971236643
H            6.34060091246885        3.78468702308830        3.50069950143490
H            6.17933064298187        2.03010500085905        4.19342358084693
H           -0.91862729772622       -2.57650129080332       -0.01361370304871
H           -0.49769766914251       -1.60651221708571       -1.34094446550576
H           -1.52632419730509       -2.94569707152159       -1.75361447637286
H           -5.11788846557077       -2.41810833635233        1.17520213188926
H           -5.67929807973498       -0.69619639428435        1.04301666067831
H           -5.57598832326623       -1.42383358739762        2.57928294206544
H           -6.13050215934830        3.76035386975488       -2.23272855695873
H           -5.86615610071888        3.45938329385866       -4.02668959924245
H           -5.13479557532099        4.87790991548477       -2.98314551356402
C           -1.38192942069774        3.73616555005018        2.91232598411686
C           -1.84821468128685        2.59982427735607        3.49755545445181
C           -1.05946531454833        2.05730632010638        4.60922730982276
C            0.19893954712228        2.69376791964407        4.86302140881997
C            0.50425395911860        3.94630308659851        4.28768785650746
C           -0.26031777722226        4.46998310053134        3.25072669343212
C           -1.20488993561782        0.74454293276906        5.14851520323437
C           -0.06287609782692        0.02744069315890        5.60930570802864
C            1.19208754369866        0.71421540266195        5.78882868583885
N            1.19428660993148        2.06344359410476        5.62744624321596
C           -2.41361422770794        0.07928500213936        5.25249410304426
C           -2.45851584031083       -1.32662100968547        5.60237876023992
N           -1.29466212405906       -1.98318595734370        5.89916817085159
C           -0.14475655767527       -1.32117560077092        5.98824682881008
C            0.97209270935794       -1.98958449505532        6.53157704134458
C            2.21982707914082       -1.36973967291181        6.68703967237737
C            2.30561929262884       -0.09745313075593        6.26436900324455
C           -3.73018485967715        0.71367583494582        5.25810242262992
C           -4.89964478833448       -0.06184623426677        5.21204641615509
C           -4.82617965800088       -1.39228978090841        5.46901303780036
C           -3.67144193418464       -1.98914944386360        5.67265433266067
O           -3.75568638935321        2.07705011038914        5.52067969627343
O           -2.94192434743730        1.91263938797883        3.01658762327703
C            0.21273512614467        5.50086066357994        2.34765104514621
C           -6.06660304520411       -2.17604633098929        5.80641622556876
H            1.41756699010566        4.38133362238595        4.66974005703471
H           -1.82880610647429        4.11982501512100        2.06992133318584
H            3.26888037378556        0.32655662585251        6.31721410015598
H            0.87146188387207       -3.08471526305024        6.57830423410869
H           -3.67716811065157       -3.05999292755990        5.83019634570050
H           -5.77379677507622        0.43595144608221        4.71017130754348
O            1.34459852619901        5.82615848916894        2.44941456579099
O           -0.74718748219123        6.07961784856304        1.59848183464284
C           -0.21473095568964        7.24015934882472        1.05753806029483
C            3.53228080814219       -2.00967610361154        7.02506769044485
O            3.64093082622715       -3.14437803815732        7.50071391725347
O            4.56565258381079       -1.22937033368332        6.69086985080897
C            5.72579357310716       -1.80692399125161        7.22246151275881
O           -7.04801223588612       -1.95726935745904        5.14194115322235
O           -6.01514389321278       -2.93743591896022        6.94765316328794
C           -7.21292732384718       -3.62681918543340        7.15115816329978
C           -4.95459780685163        2.65960679932188        5.86868674392943
C           -3.68284113682406        2.59129188358641        2.05479246020704
H           -7.43119628931628       -4.22607794725959        6.20622607140901
H           -8.06548455146707       -2.91765848248592        7.29781126410398
H           -7.07314693247270       -4.33087306029711        7.91223421050944
H            6.57332189837178       -1.29353136199234        6.78341268688262
H            5.74663761932316       -2.84282155125561        6.88089468184451
H            5.69426191474290       -1.72781984964892        8.29460302186842
H           -4.10481209541493        3.44288266176275        2.60483747673152
H           -4.49244774344916        1.87419893016926        1.82433103764650
H           -3.18901540870812        2.85154642679373        1.06781919454921
H           -5.55414326821421        2.76698137191684        4.93950725322359
H           -4.78658370641210        3.62090640967288        6.25983200635257
H           -5.43485580473958        1.97242995129449        6.65265772412460
H            0.89164886030839        7.38838561720231        1.13776105146914
H           -0.62894889903848        8.04195665205089        1.64837664327952
H           -0.59282546386754        7.45699159724320        0.03719083132488
116
 energy: -22.490643303745 gnorm: 0.607838624374 xtb: 6.6.1 (8d0f1dd)
C           -2.50630753071665        0.66498843159462       -1.18015987762307
C           -1.55735852093548       -0.14478980033804       -0.80839083569575
C           -0.45296304168023        0.30094808576977       -0.13496946085887
C           -0.33774273521203        1.82927777510890       -0.23265410888723
C           -1.35374153589112        2.60828404266727       -0.67068041300945
C           -2.44060563930938        2.07110243250886       -1.33502490267520
C            0.19359337802670       -0.54337822953434        0.74645951109812
C            1.42404620771912        0.00442904656794        0.85875517136253
C            1.81601765569057        1.46208652318533        0.66558789332827
N            0.90519471321610        2.32897688545457        0.11441815095947
C           -0.37863927540287       -1.68348102652674        1.28708471002873
C            0.64235420017541       -2.37062464644715        1.92517569677340
N            1.95007725196829       -2.33684747493930        1.40736830672107
C            2.37345568945561       -0.99750143183615        1.40404865518085
C            3.49702496782357       -0.65510339200688        2.03784689701325
C            3.85005351111883        0.70723198017823        2.06823640002785
C            3.00352604832751        1.69564541085581        1.37809521005031
C           -1.75215510043872       -1.85198389120038        1.66097491641860
C           -2.04314314255664       -2.79921542829001        2.65885740836272
C           -0.96387083081387       -3.50694698152902        3.18991642507502
C            0.37100818876053       -3.23946619987540        2.98955187717738
O           -3.01649500896537       -1.38891999436958        1.07471994453063
O           -1.88802773869872       -1.39419043722657       -1.26560279005631
C           -3.75476842959669        2.80935663747868       -1.70436540238267
C           -1.51925269738365       -4.16353363782256        4.34631637470566
H           -1.41095085333073        3.69003290291917       -0.53690635712265
H           -3.38551584513702        0.14646504811883       -1.06883999575717
H            3.31217577323639        2.79042630120131        1.45172838423790
H            4.17355215727581       -1.54868046613921        2.40723241233488
H            0.95428924976610       -3.85052811581797        3.76621183715939
H           -2.92036938877008       -3.34497788019319        2.79365992046150
O           -4.70518934189870        2.37230218948904       -1.10873249073877
O           -3.69199764509859        3.87515991728729       -2.52992019867746
C           -4.96455885199916        4.47937895606390       -2.44172299923241
C            5.07429054426293        1.19116279279824        2.82202974388408
O            5.59148981929318        0.42192632990113        3.69504184766468
O            5.82024714677820        2.27886708881096        2.50040524272331
C            7.09489029718443        2.06798212472471        3.05617761037448
O           -2.78931246178973       -4.20376126656169        4.57514278100171
O           -0.58718405540679       -4.53844339747787        5.26593620086626
C           -1.22656962601083       -4.93543378928882        6.33711706742146
C           -3.75083090791148       -2.41996384876068        0.25751415280260
C           -2.79872397655000       -1.54080286644759       -2.43299626749597
H           -1.63728761889033       -3.98779578732070        6.82839882006224
H           -0.49925985960119       -5.20241046042288        7.12445615871334
H           -1.86831494057734       -5.77721256970731        6.08136770445301
H            7.62852297579763        3.01609369077315        2.93549406281831
H            7.71429189018394        1.34722288306930        2.49049594017489
H            7.09683169728487        1.71063218008808        4.07448184602510
H           -3.19516881163799       -0.46511525486785       -2.76016817943944
H           -3.68606830384772       -2.05733564183213       -2.10741449051386
H           -2.16956349167098       -1.89075881141247       -3.18304342617403
H           -4.29000284288111       -3.06079356752287        0.82786713410844
H           -2.88862352928048       -2.95492307171562       -0.19279023781596
H           -4.46677683877869       -2.16550626621912       -0.47741991996997
H           -5.08785720461631        5.47834718087881       -2.62748301964672
H           -5.36473452346422        4.31169211240150       -1.43080067379027
H           -5.57283080793555        4.13727255716272       -3.27975749993369
C           -2.26246114107738        3.19641602204495        3.05985643800914
C           -2.56833177217217        2.16576501369009        3.94963203156295
C           -1.52375320523129        1.88285850577513        4.91238488350908
C           -0.28208303902737        2.39050665437348        4.89783820255470
C            0.02960083493956        3.48933332564706        3.82091791863675
C           -1.05897577678582        3.93583997196955        3.16927348077525
C           -1.80805926697014        0.63483247201415        5.58682155113481
C           -0.62055138115650       -0.14497274761346        5.81356197448992
C            0.67065453380881        0.38192500616902        5.65272313033151
N            0.81129383320597        1.66976111628320        5.32775499547823
C           -3.09714933678998        0.28118220518087        6.29022347153850
C           -3.16169929306538       -1.17583001596920        6.31201024908827
N           -2.08716587962520       -2.01834538047780        6.44746603204940
C           -0.83423131992861       -1.45130605367608        6.29694218386184
C            0.30567858841277       -2.08016224115232        6.81711991600619
C            1.57140883996275       -1.59836123541639        6.65273203931284
C            1.83509616923212       -0.38097257042298        6.02475525372605
C           -4.25665987813155        1.11808850412724        6.68444121136758
C           -5.41028886365859        0.46704654455507        6.85750559846319
C           -5.51231505660684       -0.87534400780389        6.75460389676838
C           -4.42347703470908       -1.71605725116386        6.61736725601156
O           -4.19044992867565        2.47466268159495        7.01724231054209
O           -3.59678268419706        1.41771386253689        3.76525765650417
C           -0.96180725769765        5.01948168401642        2.21150135898743
C           -6.85747218288726       -1.45756635762069        6.73260033936068
H            0.91956902318507        3.95002813487445        3.99596540339046
H           -2.74196385496349        3.16805987351877        2.18353775902027
H            2.77842649501479       -0.00490422934600        6.04516053258051
H            0.42465262584102       -2.97296636273958        7.23932734151605
H           -4.32035938937867       -2.69762443656097        7.01229123018956
H           -6.37967317381851        0.99833373409636        6.95997799522160
O           -0.91685489098556        4.97188233369621        0.97428367851991
O           -1.00545565759366        6.09461108444105        3.05149597912917
C           -0.96194594951178        7.43938067639696        2.37756746840113
C            2.74173558380249       -2.31276724221895        7.41774980001864
O            2.68440463162391       -3.51166794408933        7.63260190155666
O            3.76039345233640       -1.43055416005275        7.73272028488618
C            4.54816673155944       -1.96174813463938        8.61939959334089
O           -7.61667322193586       -0.68573263149747        7.33316264171140
O           -7.06573869910882       -2.69492907191600        6.39643555749853
C           -8.50512333601212       -3.06691333304243        6.34951522316589
C           -5.32539023175461        3.24258824414768        7.17606033300379
C           -4.59591878753687        1.86591883150543        2.92264468810757
H           -8.51762617393487       -3.06679914296599        5.35356101032892
H           -8.75781182886328       -2.21704101260142        7.14094349645722
H           -8.88270711678158       -4.05554793325935        6.68456452063438
H            4.08008482485898       -2.99856661018874        8.93817839327557
H            4.36867611731226       -1.16101016644338        9.43166625918878
H            5.66232805982993       -2.09495413710088        8.61817654769322
H           -5.21407480110193        2.74971628920359        3.21808870588813
H           -5.37270322380656        1.06883891789943        3.17141111273926
H           -4.52705165895167        1.97051171627557        1.81393194432801
H           -6.11584544728636        3.57248733217592        6.38012789676301
H           -5.01438490956134        4.32786525993074        7.47114599978950
H           -5.92222835694977        2.54714040466444        7.98428642141590
H           -1.34368018341533        8.03832000744360        3.30049998298386
H           -1.61348539980714        7.39632356258966        1.39692233149922
H            0.03578178023898        7.74297148601157        2.13896056368093
116
 energy: -22.559926258665 gnorm: 0.594860709030 xtb: 6.6.1 (8d0f1dd)
C           -2.15649373707744        0.56552999195062       -0.93820892474365
C           -1.41804893081140       -0.38024892690046       -0.29102393243299
C           -0.79381571197691        0.06189927566274        0.90932253232978
C           -0.59846909235544        1.51348562769984        1.04721087489050
C           -1.45604197307463        2.46371238788521        0.43194697327885
C           -2.33165412169382        1.92889871536506       -0.60149961821586
C            0.02950700764394       -0.68941933135765        1.77853578834589
C            1.36948755883703       -0.28584134437610        1.98908508663219
C            1.53992304381659        1.19752588038562        1.59577461162159
N            0.41634914514432        2.01296807604837        1.80272408650081
C           -0.29246485221434       -1.96734623150763        2.34880132906697
C            0.72471998050620       -2.65559050418779        3.02766075268109
N            2.03106883546647       -2.28468490609634        3.03776722028725
C            2.40698404640606       -1.07866104645571        2.43864576133720
C            3.65588244450382       -0.32303214874649        2.53248988065571
C            3.78881573034247        1.04764598930111        2.30165870421104
C            2.71619044626867        1.90508493088885        1.82378362946286
C           -1.64280039540151       -2.34161738668384        2.56294649716324
C           -1.94676946461105       -3.60569496600632        2.96481767889177
C           -0.83725475749613       -4.56664564297271        3.16646056297678
C            0.32034973644545       -3.93160465233889        3.43562731912420
O           -2.75820602724846       -1.39768607860930        2.25958966044325
O           -1.48232799518520       -1.63347139270132       -0.89012985041303
C           -3.16117735058159        2.79090323795726       -1.32712749367355
C           -1.13063937290996       -5.84991412751074        3.79420635332481
H           -1.69602765267129        3.32889271087333        1.05395012070523
H           -2.43951340246263        0.18108036180780       -1.94877821288305
H            2.77646538408942        3.01530691194657        1.59600617375879
H            4.57716272814391       -0.68694260150000        2.85162519361134
H            1.06477348303978       -4.63095029919428        3.79836641246566
H           -2.96193098883098       -3.80911596175291        2.68821398521652
O           -4.23419345963640        2.51368384592978       -1.80094549005673
O           -2.50250681662357        3.96978465699460       -1.59301739648775
C           -2.98976577285439        4.41990181485596       -2.75312114745779
C            5.14605232599354        1.45053200602830        2.38902298354844
O            5.91861956014063        0.92161846482604        3.10435634577885
O            5.56127238518774        2.48709015558417        1.47090450336457
C            6.77128914439443        2.29050113522873        0.81618778572746
O           -2.08417076549023       -6.64442723009178        3.62141752992341
O           -0.16954053460774       -6.21400207046337        4.64369860882522
C           -0.33461880625646       -7.53704606383510        5.22028224104940
C           -4.02520072601253       -1.91293382906575        2.52039077569815
C           -0.87816788711600       -2.67561403179735       -0.17713479925412
H            0.30802980096424       -7.51369233277562        6.03285078157222
H           -0.11543873027601       -8.37502432736653        4.60188627788417
H           -1.36187077660609       -7.64194568216071        5.63127255441729
H            6.62252155666869        2.94938805148172       -0.01468124924878
H            7.01144824499134        1.24422535026626        0.53387186949477
H            7.61413620498680        2.65736196835776        1.36359737887958
H           -1.14016485142482       -2.53268519545458        0.86249584597130
H            0.17826398362796       -2.80019547918608       -0.18519721111110
H           -1.38249100236908       -3.68979612877359       -0.40957079054762
H           -4.45148542756821       -1.00385515999287        2.61293683454235
H           -4.19498913471191       -2.40533100476731        3.52055220802379
H           -4.49977850402652       -2.37139510679478        1.71541955291347
H           -2.80867268775884        5.61054559766362       -2.87249472531323
H           -4.06711329568292        4.25405853665211       -2.83591516988137
H           -2.42321057543443        3.85479526041500       -3.52168187075522
C           -2.71629447825266        4.05471582753673        2.90303852903425
C           -2.99289812884971        2.77049924040309        3.44867949383958
C           -2.11193941337511        2.36618318688952        4.35082946286744
C           -0.81699415419035        2.88612553768668        4.19864008385030
C           -0.50598549721027        4.20544456904856        3.69492426934290
C           -1.58632056386489        4.80974203635759        3.00880656554853
C           -2.33524730573548        1.06671410045513        5.06189684807563
C           -1.17325072501776        0.35911390063256        5.25119622213519
C            0.01979353848018        0.94021729776901        5.23259515249973
N            0.25740835360415        2.08957292343927        4.81583619198819
C           -3.65467750681421        0.54324278682283        5.47249617673154
C           -3.62257471278115       -0.76653418862146        5.99925578834671
N           -2.49259409495577       -1.45118888001006        6.27145277449175
C           -1.31461720432349       -0.95161209212804        5.93083268757279
C           -0.06332006430019       -1.71656716514201        6.13655272315306
C            1.12778932273744       -1.02679714961352        6.06682047944441
C            1.20619450072893        0.35748910790327        5.79698634055086
C           -4.77672674092772        1.39593700221789        5.56586404099407
C           -6.05979336099491        0.65800018719604        5.85947833025475
C           -6.08094477350352       -0.73624897897221        6.14625990363141
C           -4.88104941046438       -1.41373029178557        6.32973351912326
O           -4.91201611745411        2.80787209240582        5.63370018614995
O           -3.97409944014124        2.01844959503606        2.94856949215653
C           -1.49781865314583        5.97715301642621        2.07385676827220
C           -7.26226328126577       -1.37314342031347        6.79719668825420
H            0.42707866309401        4.47797928021357        3.76123274102174
H           -3.35441958913332        4.37557350658999        2.19354820430990
H            2.12781081590820        0.90897292103698        5.53461038457095
H           -0.15517338261144       -2.77290713703392        6.41533347929478
H           -4.93590467869360       -1.97060060291992        7.26116742013745
H           -6.83334189482320        1.41575100048335        6.04525223229858
O           -2.42281044469215        6.26850045715224        1.36291381447163
O           -0.35972229491802        6.86293351169833        2.34755790357609
C            0.42668759420455        6.87036248096746        3.59116116905962
C            2.18066075389173       -1.92913814892917        6.53989476782018
O            1.80871269861995       -3.10283433126577        6.42311533131082
O            3.36748816882710       -1.37282593840231        6.89781468647362
C            4.50315129743981       -2.32479529650899        6.99410329129800
O           -8.38549269959558       -0.89988975801132        6.70983353392266
O           -7.09890116901721       -2.51119783314156        7.55800093320441
C           -8.39765299600162       -3.03195580464405        8.08083946344710
C           -4.17782618132448        3.66201149734773        6.65507239235194
C           -5.10549839351151        2.50163572022119        2.01291658807888
H           -8.17660956750979       -3.58511267509268        9.05607201097935
H           -8.15273418451071       -4.05304245924779        7.61381557709593
H           -9.22039986839196       -2.46026583326377        7.86137929228726
H            5.22369061253844       -1.52928799970879        7.42229028226919
H            4.72681042521328       -2.23795872267659        5.89480884888737
H            4.22312510693477       -3.27339007419049        7.62482158139333
H           -5.63757051009381        3.22315848347892        2.54591086973907
H           -5.72660845569296        1.59093698089674        1.88470799462230
H           -4.77261085954736        3.06303077157052        1.17090545272760
H           -5.02057592845700        4.05833309341680        7.07241559875044
H           -3.65849892114713        4.50681377639704        6.16950495245706
H           -3.64514525225503        3.02309399746413        7.34885044579687
H            1.34358651845769        6.13007452765920        3.62310465256815
H           -0.17889130329004        6.73497661683024        4.46478879176481
H            0.84655747344339        7.74820458616684        3.54481581140639
116
 energy: -22.543774608375 gnorm: 0.610697432890 xtb: 6.6.1 (8d0f1dd)
C           -2.56414467998828        0.20744953792757       -0.55025785754353
C           -1.80334472347660       -0.62550031493586        0.12011927259597
C           -0.67206302871390       -0.15224435603345        0.82123143135041
C           -0.32397844273072        1.26906022854100        0.47648886671832
C           -1.17830255636765        2.14580304167108       -0.20358698655053
C           -2.33724285140464        1.57540498453523       -0.72394802285681
C            0.15896496491093       -0.93007430558331        1.58267933344287
C            1.44440046187899       -0.52590957978893        1.59553700963728
C            1.78904283141211        0.82306481348988        1.38872292592605
N            0.89042279375643        1.75056613259404        0.90256959767764
C           -0.00971978458097       -2.16457819686222        2.14710964192670
C            1.01559991922109       -3.12583660055958        2.12541556368144
N            2.28377489400487       -2.79850527540774        1.97273785625373
C            2.47530180046016       -1.40715943190345        1.96772494914051
C            3.84821552240234       -0.91295826807604        2.21843676845577
C            3.99280118403779        0.43339524146829        2.41776590642090
C            2.88292494014735        1.18538265174414        2.00744065449675
C           -1.01582631434799       -2.68619302683679        3.02721669710214
C           -1.17608511639915       -4.03458987805341        3.34177639473535
C           -0.24570300143561       -5.01807120562099        3.15602407182504
C            0.94228110063180       -4.50978023232574        2.58593337087425
O           -1.92589559412654       -1.74988837234646        3.62348030907541
O           -1.66881611161870       -2.10251903115541        0.06073436567381
C           -3.26735798170997        2.35154699542386       -1.61358807722381
C           -0.59813360611495       -6.52781207934715        3.21179936944478
H           -0.91993268409826        3.20597037904441       -0.30275174161633
H           -3.45427326785199       -0.22712073728156       -1.05604466908091
H            3.27290627391544        2.29273908628002        2.00357312074127
H            4.69700605760914       -1.39108699087813        2.20601415339420
H            1.90651954163651       -4.98723247190873        2.67283503370568
H           -2.08703294710247       -4.39107356656658        3.87813517416535
O           -4.34153640472460        1.77441465848065       -1.75576866360878