Optimization of monomers started
      -----------------------------------------------------------      
     |                   =====================                   |     
     |                           x T B                           |     
     |                   =====================                   |     
     |                         S. Grimme                         |     
     |          Mulliken Center for Theoretical Chemistry        |     
     |                    University of Bonn                     |     
      -----------------------------------------------------------      

   * xtb version 6.7.1 (edcfbbe) compiled by 'runner@Mac-1732539442253.local' on 2024-11-25

   xtb is free software: you can redistribute it and/or modify it under
   the terms of the GNU Lesser General Public License as published by
   the Free Software Foundation, either version 3 of the License, or
   (at your option) any later version.
   
   xtb is distributed in the hope that it will be useful,
   but WITHOUT ANY WARRANTY; without even the implied warranty of
   MERCHANTABILITY or FITNESS FOR A PARTICULAR PURPOSE.  See the
   GNU Lesser General Public License for more details.
   
   Cite this work as:
   * C. Bannwarth, E. Caldeweyher, S. Ehlert, A. Hansen, P. Pracht,
     J. Seibert, S. Spicher, S. Grimme, WIREs Comput. Mol. Sci., 2020, 11,
     e01493. DOI: 10.1002/wcms.1493
   
   for GFN2-xTB:
   * C. Bannwarth, S. Ehlert and S. Grimme., J. Chem. Theory Comput., 2019,
     15, 1652-1671. DOI: 10.1021/acs.jctc.8b01176
   for GFN1-xTB:
   * S. Grimme, C. Bannwarth, P. Shushkov, J. Chem. Theory Comput., 2017,
     13, 1989-2009. DOI: 10.1021/acs.jctc.7b00118
   for GFN0-xTB:
   * P. Pracht, E. Caldeweyher, S. Ehlert, S. Grimme, ChemRxiv, 2019, preprint.
     DOI: 10.26434/chemrxiv.8326202.v1
   for GFN-FF:
   * S. Spicher and S. Grimme, Angew. Chem. Int. Ed., 2020, 59, 15665-15673.
     DOI: 10.1002/anie.202004239
   
   for ALPB and GBSA implicit solvation:
   * S. Ehlert, M. Stahn, S. Spicher, S. Grimme, J. Chem. Theory Comput.,
     2021, 17, 4250-4261. DOI: 10.1021/acs.jctc.1c00471
   
   for ddCOSMO and CPCM-X implicit solvation:
   * M. Stahn, S. Ehlert, S. Grimme, J. Phys. Chem. A,
     2023, XX, XXXX-XXXX. DOI: 10.1021/acs.jpca.3c04382
   
   for DFT-D4:
   * E. Caldeweyher, C. Bannwarth and S. Grimme, J. Chem. Phys., 2017,
     147, 034112. DOI: 10.1063/1.4993215
   * E. Caldeweyher, S. Ehlert, A. Hansen, H. Neugebauer, S. Spicher,
     C. Bannwarth and S. Grimme, J. Chem. Phys., 2019, 150, 154122.
     DOI: 10.1063/1.5090222
   * E. Caldeweyher, J.-M. Mewes, S. Ehlert and S. Grimme, Phys. Chem. Chem. Phys.
     2020, 22, 8499-8512. DOI: 10.1039/D0CP00502A
   
   for sTDA-xTB:
   * S. Grimme and C. Bannwarth, J. Chem. Phys., 2016, 145, 054103.
     DOI: 10.1063/1.4959605
   
   in the mass-spec context:
   * V. Asgeirsson, C. Bauer and S. Grimme, Chem. Sci., 2017, 8, 4879.
     DOI: 10.1039/c7sc00601b
   * J. Koopman and S. Grimme, ACS Omega 2019, 4, 12, 15120-15133.
     DOI: 10.1021/acsomega.9b02011
   
   for metadynamics refer to:
   * S. Grimme, J. Chem. Theory Comput., 2019, 155, 2847-2862
     DOI: 10.1021/acs.jctc.9b00143
   
   for SPH calculations refer to:
   * S. Spicher and S. Grimme, J. Chem. Theory Comput., 2021, 17, 1701-1714
     DOI: 10.1021/acs.jctc.0c01306
   
   for ONIOM refer to:
   * C. Plett, A. Katbashev, S. Ehlert, S. Grimme, M. Bursch,
     Phys. Chem. Chem. Phys., 2023, 25, 17860-17868. DOI: 10.1039/D3CP02178E
   
   for DIPRO refer to:
   * J. Kohn, N. Gildemeister, S. Grimme, D. Fazzi, A. Hansen,
     J. Chem. Phys., 2023, just accepted.
   
   for PTB refer to:
   * S. Grimme, M. Mueller, A. Hansen, J. Chem. Phys., 2023, 158, 124111.
     DOI: 10.1063/5.0137838
   
   with help from (in alphabetical order)
   P. Atkinson, C. Bannwarth, F. Bohle, G. Brandenburg, E. Caldeweyher
   M. Checinski, S. Dohm, S. Ehlert, S. Ehrlich, I. Gerasimov, C. Hölzer
   A. Katbashev, J. Kohn, J. Koopman, C. Lavigne, S. Lehtola, F. März, M. Müller,
   F. Musil, H. Neugebauer, J. Pisarek, C. Plett, P. Pracht, F. Pultar,
   J. Seibert, P. Shushkov, S. Spicher, M. Stahn, M. Steiner, T. Strunk,
   J. Stückrath, T. Rose, and J. Unsleber
   
 * started run on 2025/03/10 at 11:03:14.344     
   ID    Z sym.   atoms
    1    6 C      1-9, 11, 12, 14-33
    2    7 N      10, 13
    3    1 H      34-66
    4    8 O      67

           -------------------------------------------------
          |                Calculation Setup                |
           -------------------------------------------------

          program call               : xtb ClosedR.mol --opt tight --cycles 500 --chrg 0 --uhf 1 --spinpol --tblite
          coordinate file            : ClosedR.mol
          omp threads                :                     8


molecular fragmentation (1/2 indicates fragments):
1111111111111111111111111121121121111112221121121122221122221121121
# atoms in fragment 1/2:    49    18
 fragment masses (1/2) :      398.46       51.15
CMA distance (Bohr)    :   2.950
constraining FC (au)   :  0.0500
repulsion energy          2.4752568162755E-01 Eh
dispersion energy        -1.6266766168575E-05 Eh
interaction energy        0.0000000000000E+00 Eh
number of electrons       1.7300000000000E+02 e
integral cutoff           1.7347787504999E+01 bohr

------------------------------------------------------------
  cycle        total energy    energy error   density error
------------------------------------------------------------
      1     -90.40530666078  -9.0652816E+01   1.3677125E-01
      2     -90.17738476248   2.2792190E-01   9.4007928E-02
      3     -89.87692900022   3.0045576E-01   8.7893758E-02
      4     -90.34222140375  -4.6529240E-01   5.3167501E-02
      5     -90.79662813468  -4.5440673E-01   1.5259097E-02
      6     -90.81950245649  -2.2874322E-02   1.0512457E-02
      7     -90.83171169154  -1.2209235E-02   6.2929465E-03
      8     -90.82899079920   2.7208923E-03   5.9721113E-03
      9     -90.83268686356  -3.6960644E-03   2.8521869E-03
     10     -90.83295736236  -2.7049879E-04   2.0809135E-03
     11     -90.83310676860  -1.4940624E-04   1.6404966E-03
     12     -90.83321713937  -1.1037076E-04   1.1941509E-03
     13     -90.83330920936  -9.2069999E-05   6.7721449E-04
     14     -90.83331455229  -5.3429225E-06   4.9776350E-04
     15     -90.83334018271  -2.5630421E-05   3.2153798E-04
     16     -90.83334179068  -1.6079765E-06   2.6241919E-04
     17     -90.83334750515  -5.7144680E-06   1.2990044E-04
     18     -90.83334827460  -7.6945014E-07   8.9989789E-05
     19     -90.83334884402  -5.6941400E-07   5.9507611E-05
     20     -90.83334891136  -6.7345113E-08   4.5043246E-05
     21     -90.83334909115  -1.7979043E-07   2.6011488E-05
     22     -90.83334909968  -8.5259160E-09   2.0132887E-05
     23     -90.83334912795  -2.8268772E-08   1.4173988E-05
------------------------------------------------------------

electronic energy        -9.1080858542808E+01 Eh
total energy             -9.0833349127947E+01 Eh

 total:                                   0.944 sec
 - repulsion                              0.000 sec (  0%)
 - dispersion                             0.004 sec (  0%)
 - coulomb                                0.001 sec (  0%)
 - hamiltonian                            0.018 sec (  1%)
 - scc                                    0.921 sec ( 97%)

      ----------------------------------------------------------- 
     |                   =====================                   |
     |                        A N C O P T                        |
     |                   =====================                   |
     |               Approximate Normal Coordinate               |
     |                Rational Function Optimizer                |
      ----------------------------------------------------------- 
      ----------------------------------------------------------- 
     |                   =====================                   |
     |                        A N C O P T                        |
     |                   =====================                   |
     |               Approximate Normal Coordinate               |
     |                Rational Function Optimizer                |
      ----------------------------------------------------------- 

          ...................................................
          :                      SETUP                      :
          :.................................................:
          :   optimization level             tight          :
          :   max. optcycles                   500          :
          :   ANC micro-cycles                  20          :
          :   degrees of freedom               195          :
          :.................................................:
          :   RF solver                   davidson          :
          :   write xtbopt.log                true          :
          :   linear?                        false          :
          :   energy convergence         0.1000000E-05 Eh   :
          :   grad. convergence          0.8000000E-03 Eh/α :
          :   maxmium RF displ.          1.0000000          :
          :   Hlow (freq-cutoff)         0.1000000E-01      :
          :   Hmax (freq-cutoff)         5.0000000          :
          :   S6 in model hess.         20.0000000          :
          ...................................................

generating ANC from exact Hessian ...
Using Lindh-Hessian (1995)
 Shifting diagonal of input Hessian by    1.0494296331266417E-002
 Lowest  eigenvalues of input Hessian
    0.010000    0.010029    0.010036    0.010048    0.010051    0.010065
    0.010073    0.010088    0.010109    0.010135    0.010209    0.010230
    0.010260    0.010305    0.010336    0.010401    0.000000    0.010438
 Highest eigenvalues
    0.821474    0.825253    0.832741    0.862398    0.931801    0.932870


........................................................................
.............................. CYCLE    1 ..............................
........................................................................
------------------------------------------------------------
  cycle        total energy    energy error   density error
------------------------------------------------------------
      1     -90.83334868379  -9.1080858E+01   5.1796250E-05
      2     -90.83334727975   1.4040444E-06   1.0436028E-04
      3     -90.83334913183  -1.8520767E-06   9.0226524E-06
      4     -90.83334914076  -8.9346059E-09   5.8469715E-06
------------------------------------------------------------

 total:                                   0.262 sec
 * total energy  :   -90.8333491 Eh     change       -0.1281452E-07 Eh
   gradient norm :     0.5336566 Eh/α   predicted     0.0000000E+00 (-100.00%)
   displ. norm   :     0.8859203 α      lambda       -0.4638300E+00
   maximum displ.:     0.4749632 α      in ANC's #127, #123, #124, ...

........................................................................
.............................. CYCLE    2 ..............................
........................................................................
------------------------------------------------------------
  cycle        total energy    energy error   density error
------------------------------------------------------------
      1     -91.26827762177  -9.1593971E+01   1.2537384E-02
      2     -91.26761619657   6.6142520E-04   7.8214948E-03
      3     -91.26102156782   6.5946288E-03   8.8138818E-03
      4     -91.26941296912  -8.3914013E-03   3.0547366E-03
      5     -91.27046802754  -1.0550584E-03   1.1244014E-03
      6     -91.27063698861  -1.6896107E-04   4.7223658E-04
      7     -91.27063854771  -1.5590980E-06   4.0196361E-04
      8     -91.27064883971  -1.0292006E-05   2.0888493E-04
      9     -91.27065348008  -4.6403679E-06   1.1533616E-04
     10     -91.27065371218  -2.3209877E-07   8.6126763E-05
     11     -91.27065384603  -1.3385295E-07   7.0307487E-05
     12     -91.27065410855  -2.6251809E-07   4.1215027E-05
     13     -91.27065426428  -1.5573301E-07   2.1259516E-05
     14     -91.27065426970  -5.4116356E-09   1.6257387E-05
------------------------------------------------------------

 total:                                   0.821 sec
 * total energy  :   -91.2706543 Eh     change       -0.4373051E+00 Eh
   gradient norm :     0.4714019 Eh/α   predicted    -0.4139347E+00 (  -5.34%)
   displ. norm   :     0.9370731 α      lambda       -0.4387131E+00
   maximum displ.:     0.4510536 α      in ANC's #127, #123, #142, ...

........................................................................
.............................. CYCLE    3 ..............................
........................................................................
------------------------------------------------------------
  cycle        total energy    energy error   density error
------------------------------------------------------------
      1     -91.67185516166  -9.2126634E+01   1.2264000E-02
      2     -91.67275264428  -8.9748262E-04   7.1615673E-03
      3     -91.66849301892   4.2596254E-03   7.1644583E-03
      4     -91.67407919267  -5.5861737E-03   2.6128774E-03
      5     -91.67467073224  -5.9153958E-04   1.1910309E-03
      6     -91.67489082388  -2.2009164E-04   4.3386810E-04
      7     -91.67488738796   3.4359274E-06   3.4890371E-04
      8     -91.67489704687  -9.6589169E-06   1.7760491E-04
      9     -91.67489829727  -1.2503989E-06   1.2952643E-04
     10     -91.67489963785  -1.3405781E-06   7.2031651E-05
     11     -91.67489954989   8.7959364E-08   6.1456490E-05
     12     -91.67489978613  -2.3624362E-07   3.4614870E-05
     13     -91.67489989457  -1.0843809E-07   1.6853963E-05
------------------------------------------------------------

 total:                                   0.568 sec
 * total energy  :   -91.6748999 Eh     change       -0.4042456E+00 Eh
   gradient norm :     0.3914500 Eh/α   predicted    -0.4119913E+00 (   1.92%)
   displ. norm   :     0.9148813 α      lambda       -0.3557072E+00
   maximum displ.:     0.4069887 α      in ANC's #127, #123, #142, ...

........................................................................
.............................. CYCLE    4 ..............................
........................................................................
------------------------------------------------------------
  cycle        total energy    energy error   density error
------------------------------------------------------------
      1     -91.98907860608  -9.2613411E+01   1.1065603E-02
      2     -91.99003061738  -9.5201130E-04   6.4662759E-03
      3     -91.98714907293   2.8815444E-03   5.9416047E-03
      4     -91.99094418736  -3.7951144E-03   2.1324139E-03
      5     -91.99137877471  -4.3458734E-04   9.4032539E-04
      6     -91.99151239632  -1.3362162E-04   3.5126093E-04
      7     -91.99150986339   2.5329372E-06   2.6297486E-04
      8     -91.99151543784  -5.5744535E-06   1.3270911E-04
      9     -91.99151602814  -5.9030262E-07   9.5455078E-05
     10     -91.99151651303  -4.8488674E-07   5.8134600E-05
     11     -91.99151655129  -3.8259188E-08   4.3101150E-05
     12     -91.99151661129  -5.9999195E-08   2.6621856E-05
     13     -91.99151669084  -7.9549267E-08   1.2126129E-05
------------------------------------------------------------

 total:                                   0.413 sec
 * total energy  :   -91.9915167 Eh     change       -0.3166168E+00 Eh
   gradient norm :     0.3021499 Eh/α   predicted    -0.3267186E+00 (   3.19%)
   displ. norm   :     0.8980334 α      lambda       -0.2681447E+00
   maximum displ.:     0.3821470 α      in ANC's #123, #127, #118, ...

........................................................................
.............................. CYCLE    5 ..............................
........................................................................
------------------------------------------------------------
  cycle        total energy    energy error   density error
------------------------------------------------------------
      1     -92.22809365580  -9.3014052E+01   9.1699074E-03
      2     -92.22811473330  -2.1077500E-05   5.8920746E-03
      3     -92.22591091343   2.2038199E-03   5.2081222E-03
      4     -92.22926831429  -3.3574009E-03   1.5503415E-03
      5     -92.22953296891  -2.6465462E-04   6.3395473E-04
      6     -92.22957605702  -4.3088113E-05   2.8952669E-04
      7     -92.22957206585   3.9911701E-06   2.4892924E-04
      8     -92.22957813980  -6.0739478E-06   1.0239340E-04
      9     -92.22957825141  -1.1161362E-07   8.1755236E-05
     10     -92.22957865126  -3.9984803E-07   4.6483565E-05
     11     -92.22957871458  -6.3318780E-08   3.0657093E-05
     12     -92.22957879079  -7.6215258E-08   1.5466984E-05
------------------------------------------------------------

 total:                                   0.961 sec
 * total energy  :   -92.2295788 Eh     change       -0.2380621E+00 Eh
   gradient norm :     0.2345424 Eh/α   predicted    -0.2421971E+00 (   1.74%)
   displ. norm   :     0.8988774 α      lambda       -0.2072480E+00
   maximum displ.:     0.3686050 α      in ANC's #123, #118, #72, ...

........................................................................
.............................. CYCLE    6 ..............................
........................................................................
------------------------------------------------------------
  cycle        total energy    energy error   density error
------------------------------------------------------------
      1     -92.41396247074  -9.3320903E+01   8.0308425E-03
      2     -92.41346125442   5.0121632E-04   5.8457204E-03
      3     -92.41278702884   6.7422558E-04   4.4719538E-03
      4     -92.41498955158  -2.2025227E-03   1.3033271E-03
      5     -92.41520085518  -2.1130360E-04   4.7027634E-04
      6     -92.41521174583  -1.0890648E-05   3.0540573E-04
      7     -92.41521213061  -3.8478088E-07   2.2316033E-04
      8     -92.41521633038  -4.1997751E-06   9.6121217E-05
      9     -92.41521686428  -5.3389627E-07   6.3319698E-05
     10     -92.41521686873  -4.4497313E-09   4.1378045E-05
     11     -92.41521704318  -1.7445448E-07   1.5981706E-05
------------------------------------------------------------

 total:                                   0.931 sec
 * total energy  :   -92.4152170 Eh     change       -0.1856383E+00 Eh
   gradient norm :     0.1876328 Eh/α   predicted    -0.1873507E+00 (   0.92%)
   displ. norm   :     0.9008717 α      lambda       -0.1641381E+00
   maximum displ.:     0.3744732 α      in ANC's #72, #118, #123, ...

........................................................................
.............................. CYCLE    7 ..............................
........................................................................
------------------------------------------------------------
  cycle        total energy    energy error   density error
------------------------------------------------------------
      1     -92.56172499014  -9.3567375E+01   7.8033894E-03
      2     -92.56121121232   5.1377782E-04   5.7807145E-03
      3     -92.56118096154   3.0250781E-05   4.1692028E-03
      4     -92.56286812748  -1.6871659E-03   1.1850490E-03
      5     -92.56302490205  -1.5677457E-04   4.7167320E-04
      6     -92.56303939741  -1.4495357E-05   2.9389777E-04
      7     -92.56304147609  -2.0786851E-06   1.9707554E-04
      8     -92.56304432065  -2.8445532E-06   8.8463125E-05
      9     -92.56304496976  -6.4911652E-07   5.0180031E-05
     10     -92.56304496963   1.2795454E-10   3.1800154E-05
     11     -92.56304506882  -9.9182230E-08   1.1516239E-05
------------------------------------------------------------

 total:                                   0.528 sec
 * total energy  :   -92.5630451 Eh     change       -0.1478280E+00 Eh
   gradient norm :     0.1539814 Eh/α   predicted    -0.1486746E+00 (   0.57%)
   displ. norm   :     0.9016537 α      lambda       -0.1328618E+00
   maximum displ.:     0.3750747 α      in ANC's #72, #82, #50, ...

........................................................................
.............................. CYCLE    8 ..............................
........................................................................
------------------------------------------------------------
  cycle        total energy    energy error   density error
------------------------------------------------------------
      1     -92.68133742001  -9.3767386E+01   7.9103070E-03
      2     -92.68111438818   2.2303183E-04   5.6250332E-03
      3     -92.68140821470  -2.9382652E-04   3.9570008E-03
      4     -92.68268945028  -1.2812356E-03   1.1946456E-03
      5     -92.68283922833  -1.4977805E-04   4.7970373E-04
      6     -92.68285829934  -1.9071013E-05   2.5126921E-04
      7     -92.68286076753  -2.4681851E-06   1.7366524E-04
      8     -92.68286291652  -2.1489954E-06   6.9777912E-05
      9     -92.68286319660  -2.8007378E-07   4.4770125E-05
     10     -92.68286327271  -7.6110624E-08   2.1957111E-05
     11     -92.68286330858  -3.5870045E-08   1.1502503E-05
------------------------------------------------------------

 total:                                   0.671 sec
 * total energy  :   -92.6828633 Eh     change       -0.1198182E+00 Eh
   gradient norm :     0.1255877 Eh/α   predicted    -0.1204378E+00 (   0.52%)
   displ. norm   :     0.8997286 α      lambda       -0.1071773E+00
   maximum displ.:     0.3426129 α      in ANC's #72, #50, #82, ...

........................................................................
.............................. CYCLE    9 ..............................
........................................................................
------------------------------------------------------------
  cycle        total energy    energy error   density error
------------------------------------------------------------
      1     -92.77594454289  -9.3933446E+01   7.7536945E-03
      2     -92.77614133523  -1.9679235E-04   5.3108226E-03
      3     -92.77658638053  -4.4504529E-04   3.5617905E-03
      4     -92.77746666763  -8.8028710E-04   1.1320747E-03
      5     -92.77762387453  -1.5720690E-04   3.8062216E-04
      6     -92.77763595007  -1.2075547E-05   1.9022829E-04
      7     -92.77763672388  -7.7380726E-07   1.4654082E-04
      8     -92.77763827516  -1.5512746E-06   5.9236373E-05
      9     -92.77763837282  -9.7659679E-08   4.3385190E-05
     10     -92.77763846393  -9.1115325E-08   1.8465601E-05
------------------------------------------------------------

 total:                                   0.491 sec
 * total energy  :   -92.7776385 Eh     change       -0.9477516E-01 Eh
   gradient norm :     0.0961844 Eh/α   predicted    -0.9696931E-01 (   2.32%)
   displ. norm   :     0.8945975 α      lambda       -0.8211650E-01
   maximum displ.:     0.3399052 α      in ANC's #50, #82, #72, ...

........................................................................
.............................. CYCLE   10 ..............................
........................................................................
------------------------------------------------------------
  cycle        total energy    energy error   density error
------------------------------------------------------------
      1     -92.84766012412  -9.4060504E+01   7.2196680E-03
      2     -92.84792139925  -2.6127513E-04   4.5510630E-03
      3     -92.84756223566   3.5916358E-04   3.4346194E-03
      4     -92.84850005732  -9.3782166E-04   7.5704314E-04
      5     -92.84855426521  -5.4207887E-05   3.5643150E-04
      6     -92.84856344683  -9.1816249E-06   1.9527811E-04
      7     -92.84856341291   3.3927407E-08   1.3864677E-04
      8     -92.84856511105  -1.6981467E-06   6.4391769E-05
      9     -92.84856514018  -2.9123711E-08   4.1117469E-05
     10     -92.84856527609  -1.3591018E-07   1.8700262E-05
------------------------------------------------------------

 total:                                   0.669 sec
 * total energy  :   -92.8485653 Eh     change       -0.7092681E-01 Eh
   gradient norm :     0.0752487 Eh/α   predicted    -0.7391731E-01 (   4.22%)
   displ. norm   :     0.9109064 α      lambda       -0.6411628E-01
   maximum displ.:     0.3743313 α      in ANC's #50, #82, #51, ...

........................................................................
.............................. CYCLE   11 ..............................
........................................................................
------------------------------------------------------------
  cycle        total energy    energy error   density error
------------------------------------------------------------
      1     -92.89936253630  -9.4160509E+01   6.8458173E-03
      2     -92.89948154686  -1.1901056E-04   4.3514313E-03
      3     -92.89859883811   8.8270875E-04   3.1794799E-03
      4     -92.89988737114  -1.2885330E-03   6.7598559E-04
      5     -92.89994078837  -5.3417231E-05   3.8020983E-04
      6     -92.89995471158  -1.3923208E-05   1.8228995E-04
      7     -92.89995516614  -4.5455631E-07   1.3688662E-04
      8     -92.89995610329  -9.3715710E-07   6.3696818E-05
      9     -92.89995615653  -5.3239333E-08   4.4557871E-05
     10     -92.89995633020  -1.7366743E-07   1.5496343E-05
------------------------------------------------------------

 total:                                   0.720 sec
 * total energy  :   -92.8999563 Eh     change       -0.5139105E-01 Eh
   gradient norm :     0.0795821 Eh/α   predicted    -0.5865846E-01 (  14.14%)
   displ. norm   :     0.8862268 α      lambda       -0.5566248E-01
   maximum displ.:     0.3302180 α      in ANC's #50, #26, #27, ...

........................................................................
.............................. CYCLE   12 ..............................
........................................................................
------------------------------------------------------------
  cycle        total energy    energy error   density error
------------------------------------------------------------
      1     -92.94495475296  -9.4235810E+01   6.8867120E-03
      2     -92.94505525520  -1.0050224E-04   4.2091475E-03
      3     -92.94434709667   7.0815853E-04   3.3612796E-03
      4     -92.94558058623  -1.2334896E-03   5.3428034E-04
      5     -92.94560302159  -2.2435361E-05   2.6782140E-04
      6     -92.94560889536  -5.8737740E-06   1.2077411E-04
      7     -92.94560937956  -4.8419646E-07   7.6158047E-05
      8     -92.94560968171  -3.0214836E-07   4.6448229E-05
      9     -92.94560975608  -7.4375393E-08   2.2444708E-05
     10     -92.94560978818  -3.2100075E-08   1.3123726E-05
------------------------------------------------------------

 total:                                   0.850 sec
 * total energy  :   -92.9456098 Eh     change       -0.4565346E-01 Eh
   gradient norm :     0.0734639 Eh/α   predicted    -0.4968982E-01 (   8.84%)
   displ. norm   :     0.8870558 α      lambda       -0.5005931E-01
   maximum displ.:     0.2928473 α      in ANC's #50, #26, #27, ...

........................................................................
.............................. CYCLE   13 ..............................
........................................................................
------------------------------------------------------------
  cycle        total energy    energy error   density error
------------------------------------------------------------
      1     -92.98755437122  -9.4290159E+01   5.5014751E-03
      2     -92.98769342854  -1.3905732E-04   3.4855624E-03
      3     -92.98768701428   6.4142603E-06   2.4353069E-03
      4     -92.98810604360  -4.1902932E-04   4.3001209E-04
      5     -92.98811658819  -1.0544589E-05   2.6031841E-04
      6     -92.98812404107  -7.4528763E-06   9.0379270E-05
      7     -92.98812460871  -5.6764272E-07   6.3199715E-05
      8     -92.98812487205  -2.6333863E-07   3.0822296E-05
      9     -92.98812487403  -1.9860380E-09   1.8704578E-05
------------------------------------------------------------

 total:                                   0.405 sec
 * total energy  :   -92.9881249 Eh     change       -0.4251509E-01 Eh
   gradient norm :     0.0802886 Eh/α   predicted    -0.4472468E-01 (   5.20%)
   displ. norm   :     0.9044545 α      lambda       -0.5413332E-01
   maximum displ.:     0.3051367 α      in ANC's #50, #26, #27, ...

........................................................................
.............................. CYCLE   14 ..............................
........................................................................
------------------------------------------------------------
  cycle        total energy    energy error   density error
------------------------------------------------------------
      1     -93.03236390934  -9.4343740E+01   5.7338519E-03
      2     -93.03250034227  -1.3643293E-04   3.7429418E-03
      3     -93.03218466806   3.1567421E-04   2.3171203E-03
      4     -93.03271251370  -5.2784564E-04   4.4538692E-04
      5     -93.03273928066  -2.6766964E-05   2.1429930E-04
      6     -93.03274234259  -3.0619259E-06   1.0530078E-04
      7     -93.03274281858  -4.7599021E-07   6.4866225E-05
      8     -93.03274298918  -1.7060258E-07   3.2131427E-05
      9     -93.03274302392  -3.4734512E-08   1.8200847E-05
------------------------------------------------------------

 total:                                   0.545 sec
 * total energy  :   -93.0327430 Eh     change       -0.4461815E-01 Eh
   gradient norm :     0.0690559 Eh/α   predicted    -0.4920826E-01 (  10.29%)
   displ. norm   :     0.9155197 α      lambda       -0.4570683E-01
   maximum displ.:     0.3388736 α      in ANC's #26, #27, #32, ...

........................................................................
.............................. CYCLE   15 ..............................
........................................................................
------------------------------------------------------------
  cycle        total energy    energy error   density error
------------------------------------------------------------
      1     -93.07110244629  -9.4414048E+01   3.9538547E-03
      2     -93.07117195135  -6.9505062E-05   2.7234891E-03
      3     -93.07100995798   1.6199337E-04   1.5415092E-03
      4     -93.07131078758  -3.0082960E-04   2.8749819E-04
      5     -93.07131947331  -8.6857274E-06   1.1763304E-04
      6     -93.07132029651  -8.2320200E-07   6.6836709E-05
      7     -93.07132054355  -2.4703722E-07   3.3423161E-05
      8     -93.07132060609  -6.2549447E-08   1.6734726E-05
------------------------------------------------------------

 total:                                   1.000 sec
 * total energy  :   -93.0713206 Eh     change       -0.3857758E-01 Eh
   gradient norm :     0.0562005 Eh/α   predicted    -0.4200861E-01 (   8.89%)
   displ. norm   :     0.9270672 α      lambda       -0.4319352E-01
   maximum displ.:     0.3445875 α      in ANC's #26, #27, #32, ...

........................................................................
.............................. CYCLE   16 ..............................
........................................................................
------------------------------------------------------------
  cycle        total energy    energy error   density error
------------------------------------------------------------
      1     -93.10192356707  -9.4481823E+01   6.0188526E-03
      2     -93.10207359390  -1.5002682E-04   3.8461926E-03
      3     -93.10146198580   6.1160810E-04   2.2408705E-03
      4     -93.10222623632  -7.6425052E-04   4.8345570E-04
      5     -93.10225311735  -2.6881035E-05   2.2441372E-04
      6     -93.10225760800  -4.4906519E-06   1.0869371E-04
      7     -93.10225796396  -3.5595399E-07   6.7874687E-05
      8     -93.10225814097  -1.7701463E-07   3.0302090E-05
      9     -93.10225816985  -2.8874439E-08   1.9178780E-05
------------------------------------------------------------

 total:                                   0.374 sec
 * total energy  :   -93.1022582 Eh     change       -0.3093756E-01 Eh
   gradient norm :     0.0635965 Eh/α   predicted    -0.4015818E-01 (  29.80%)
   displ. norm   :     0.8494990 α      lambda       -0.3652298E-01
   maximum displ.:     0.3328759 α      in ANC's #26, #27, #32, ...

........................................................................
.............................. CYCLE   17 ..............................
........................................................................
------------------------------------------------------------
  cycle        total energy    energy error   density error
------------------------------------------------------------
      1     -93.13094504274  -9.4527090E+01   4.5979211E-03
      2     -93.13102309781  -7.8055067E-05   2.8674334E-03
      3     -93.13083373815   1.8935966E-04   1.3313086E-03
      4     -93.13105920152  -2.2546337E-04   3.6726992E-04
      5     -93.13107527515  -1.6073636E-05   1.5127517E-04
      6     -93.13107646063  -1.1854786E-06   8.8411652E-05
      7     -93.13107690469  -4.4405762E-07   4.5291187E-05
      8     -93.13107695050  -4.5810040E-08   2.4378066E-05
      9     -93.13107697211  -2.1607875E-08   1.0664696E-05
------------------------------------------------------------

 total:                                   0.348 sec
 * total energy  :   -93.1310770 Eh     change       -0.2881880E-01 Eh
   gradient norm :     0.0447397 Eh/α   predicted    -0.3143986E-01 (   9.09%)
   displ. norm   :     0.8888143 α      lambda       -0.3055445E-01
   maximum displ.:     0.3560981 α      in ANC's #26, #27, #32, ...

........................................................................
.............................. CYCLE   18 ..............................
........................................................................
------------------------------------------------------------
  cycle        total energy    energy error   density error
------------------------------------------------------------
      1     -93.15095127553  -9.4564566E+01   5.7155949E-03
      2     -93.15106307296  -1.1179743E-04   3.3529479E-03
      3     -93.15080087233   2.6220063E-04   1.7067633E-03
      4     -93.15111163268  -3.1076035E-04   4.3871166E-04
      5     -93.15112616351  -1.4530834E-05   2.3897989E-04
      6     -93.15113288604  -6.7225280E-06   7.6875639E-05
      7     -93.15113345593  -5.6988395E-07   3.4749970E-05
      8     -93.15113352469  -6.8758851E-08   1.8253099E-05
------------------------------------------------------------

 total:                                   0.438 sec
 * total energy  :   -93.1511335 Eh     change       -0.2005655E-01 Eh
   gradient norm :     0.0606461 Eh/α   predicted    -0.2734610E-01 (  36.34%)
   displ. norm   :     0.8094661 α      lambda       -0.2988731E-01
   maximum displ.:     0.3407050 α      in ANC's #26, #27, #32, ...

........................................................................
.............................. CYCLE   19 ..............................
........................................................................
------------------------------------------------------------
  cycle        total energy    energy error   density error
------------------------------------------------------------
      1     -93.16987578030  -9.4607357E+01   5.4378732E-03
      2     -93.16999298939  -1.1720909E-04   3.2560711E-03
      3     -93.16975359471   2.3939469E-04   1.4394930E-03
      4     -93.17002366214  -2.7006743E-04   4.4758815E-04
      5     -93.17004227275  -1.8610613E-05   2.3350311E-04
      6     -93.17004747981  -5.2070598E-06   8.7412333E-05
      7     -93.17004820535  -7.2554217E-07   4.2937420E-05
      8     -93.17004826290  -5.7547865E-08   2.3607760E-05
      9     -93.17004826950  -6.6041252E-09   1.1395346E-05
------------------------------------------------------------

 total:                                   0.609 sec
 * total energy  :   -93.1700483 Eh     change       -0.1891474E-01 Eh
   gradient norm :     0.0544085 Eh/α   predicted    -0.2473527E-01 (  30.77%)
   displ. norm   :     0.7826473 α      lambda       -0.2286734E-01
   maximum displ.:     0.3341331 α      in ANC's #26, #27, #25, ...

........................................................................
.............................. CYCLE   20 ..............................
........................................................................
------------------------------------------------------------
  cycle        total energy    energy error   density error
------------------------------------------------------------
      1     -93.18231761254  -9.4633658E+01   6.0325710E-03
      2     -93.18242300531  -1.0539277E-04   3.6476999E-03
      3     -93.18208813196   3.3487335E-04   1.5122860E-03
      4     -93.18247841836  -3.9028641E-04   3.3227855E-04
      5     -93.18248857121  -1.0152850E-05   1.8083389E-04
      6     -93.18249116660  -2.5953821E-06   8.6031886E-05
      7     -93.18249196776  -8.0116806E-07   3.2854184E-05
      8     -93.18249199877  -3.1007914E-08   1.7223016E-05
------------------------------------------------------------

 total:                                   0.531 sec
 * total energy  :   -93.1824920 Eh     change       -0.1244373E-01 Eh
   gradient norm :     0.0500342 Eh/α   predicted    -0.1843722E-01 (  48.16%)
   displ. norm   :     0.7400500 α      lambda       -0.2055801E-01
   maximum displ.:     0.3247701 α      in ANC's #26, #27, #25, ...
 * RMSD in coord.:     1.6683720 α      energy gain  -0.2349143E+01 Eh

generating ANC from exact Hessian ...
Using Lindh-Hessian (1995)
 Shifting diagonal of input Hessian by    9.7863555038077785E-003
 Lowest  eigenvalues of input Hessian
    0.000000    0.000000    0.000000    0.000000    0.000000    0.000000
    0.010000    0.010112    0.010122    0.010238    0.010683    0.010750
    0.011018    0.011088    0.012805    0.013871    0.014026    0.014339
 Highest eigenvalues
    1.947539    1.977231    2.000915    2.137824    2.202239    2.217320


........................................................................
.............................. CYCLE   21 ..............................
........................................................................
------------------------------------------------------------
  cycle        total energy    energy error   density error
------------------------------------------------------------
      1     -93.19115976532  -9.4660934E+01   6.8007665E-03
      2     -93.19127641935  -1.1665403E-04   4.0132844E-03
      3     -93.19086475260   4.1166675E-04   2.0064821E-03
      4     -93.19133916166  -4.7440906E-04   4.5593843E-04
      5     -93.19135497813  -1.5816464E-05   2.4845446E-04
      6     -93.19136113001  -6.1518781E-06   9.9235654E-05
      7     -93.19136197687  -8.4686160E-07   4.0140243E-05
      8     -93.19136207303  -9.6159539E-08   2.1025347E-05
      9     -93.19136208302  -9.9893924E-09   1.0447528E-05
------------------------------------------------------------

 total:                                   0.509 sec
 * total energy  :   -93.1913621 Eh     change       -0.8870084E-02 Eh
   gradient norm :     0.0575604 Eh/α   predicted     0.0000000E+00 (-100.00%)
   displ. norm   :     0.4732995 α      lambda       -0.1124654E-01
   maximum displ.:     0.3626147 α      in ANC's #13, #12, #15, ...

........................................................................
.............................. CYCLE   22 ..............................
........................................................................
------------------------------------------------------------
  cycle        total energy    energy error   density error
------------------------------------------------------------
      1     -93.19948232656  -9.4675466E+01   3.0241648E-03
      2     -93.19950439834  -2.2071784E-05   1.8066916E-03
      3     -93.19947318779   3.1210547E-05   4.8743540E-04
      4     -93.19950676626  -3.3578469E-05   1.8890262E-04
      5     -93.19951093011  -4.1638493E-06   7.6230066E-05
      6     -93.19951132009  -3.8997906E-07   3.5289279E-05
      7     -93.19951140679  -8.6695920E-08   1.6246060E-05
------------------------------------------------------------

 total:                                   0.413 sec
 * total energy  :   -93.1995114 Eh     change       -0.8149324E-02 Eh
   gradient norm :     0.0216776 Eh/α   predicted    -0.6883184E-02 ( -15.54%)
   displ. norm   :     0.6060218 α      lambda       -0.6454869E-02
   maximum displ.:     0.4613631 α      in ANC's #13, #12, #15, ...

........................................................................
.............................. CYCLE   23 ..............................
........................................................................
------------------------------------------------------------
  cycle        total energy    energy error   density error
------------------------------------------------------------
      1     -93.20442088720  -9.4693777E+01   2.0622476E-03
      2     -93.20443284182  -1.1954624E-05   1.2404774E-03
      3     -93.20440769845   2.5143366E-05   4.8776979E-04
      4     -93.20443818916  -3.0490706E-05   1.1083942E-04
      5     -93.20443896357  -7.7441359E-07   5.5783754E-05
      6     -93.20443908875  -1.2517648E-07   3.0196619E-05
      7     -93.20443917429  -8.5540108E-08   1.4206982E-05
------------------------------------------------------------

 total:                                   0.374 sec
 * total energy  :   -93.2044392 Eh     change       -0.4927768E-02 Eh
   gradient norm :     0.0111540 Eh/α   predicted    -0.4412756E-02 ( -10.45%)
   displ. norm   :     0.6085922 α      lambda       -0.3850713E-02
   maximum displ.:     0.4272749 α      in ANC's #13, #12, #19, ...

........................................................................
.............................. CYCLE   24 ..............................
........................................................................
------------------------------------------------------------
  cycle        total energy    energy error   density error
------------------------------------------------------------
      1     -93.20736217732  -9.4709517E+01   1.7632385E-03
      2     -93.20736968143  -7.5041123E-06   1.0659567E-03
      3     -93.20734433785   2.5343576E-05   5.1737401E-04
      4     -93.20737541911  -3.1081259E-05   7.0097630E-05
      5     -93.20737576812  -3.4901234E-07   3.5363944E-05
      6     -93.20737584934  -8.1213670E-08   1.5742641E-05
------------------------------------------------------------

 total:                                   0.263 sec
 * total energy  :   -93.2073758 Eh     change       -0.2936675E-02 Eh
   gradient norm :     0.0144091 Eh/α   predicted    -0.2638481E-02 ( -10.15%)
   displ. norm   :     0.5414694 α      lambda       -0.2196471E-02
   maximum displ.:     0.3122381 α      in ANC's #13, #12, #19, ...

........................................................................
.............................. CYCLE   25 ..............................
........................................................................
------------------------------------------------------------
  cycle        total energy    energy error   density error
------------------------------------------------------------
      1     -93.20897748517  -9.4720406E+01   1.6191648E-03
      2     -93.20898464953  -7.1643596E-06   9.8311941E-04
      3     -93.20895819238   2.6457144E-05   5.3428497E-04
      4     -93.20899147409  -3.3281710E-05   6.4673627E-05
      5     -93.20899179102  -3.1692898E-07   3.4118221E-05
      6     -93.20899189208  -1.0106308E-07   1.4237957E-05
------------------------------------------------------------

 total:                                   0.284 sec
 * total energy  :   -93.2089919 Eh     change       -0.1616043E-02 Eh
   gradient norm :     0.0116304 Eh/α   predicted    -0.1420228E-02 ( -12.12%)
   displ. norm   :     0.4540236 α      lambda       -0.1206935E-02
   maximum displ.:     0.1768479 α      in ANC's #6, #13, #19, ...

........................................................................
.............................. CYCLE   26 ..............................
........................................................................
------------------------------------------------------------
  cycle        total energy    energy error   density error
------------------------------------------------------------
      1     -93.20989469358  -9.4726173E+01   1.4445449E-03
      2     -93.20989970839  -5.0148139E-06   8.6684513E-04
      3     -93.20987775404   2.1954349E-05   4.5249172E-04
      4     -93.20990417413  -2.6420087E-05   5.8817088E-05
      5     -93.20990435150  -1.7736676E-07   3.7599140E-05
      6     -93.20990448110  -1.2960257E-07   1.5812417E-05
------------------------------------------------------------

 total:                                   0.244 sec
 * total energy  :   -93.2099045 Eh     change       -0.9125890E-03 Eh
   gradient norm :     0.0078184 Eh/α   predicted    -0.7278658E-03 ( -20.24%)
   displ. norm   :     0.4575596 α      lambda       -0.9477579E-03
   maximum displ.:     0.2129051 α      in ANC's #6, #19, #1, ...

........................................................................
.............................. CYCLE   27 ..............................
........................................................................
------------------------------------------------------------
  cycle        total energy    energy error   density error
------------------------------------------------------------
      1     -93.21065184010  -9.4727687E+01   1.4896089E-03
      2     -93.21065530578  -3.4656798E-06   8.8032864E-04
      3     -93.21063673374   1.8572044E-05   3.8289310E-04
      4     -93.21065757457  -2.0840831E-05   7.0168720E-05
      5     -93.21065782348  -2.4890538E-07   4.8866270E-05
      6     -93.21065808629  -2.6281313E-07   1.3851795E-05
------------------------------------------------------------

 total:                                   0.327 sec
 * total energy  :   -93.2106581 Eh     change       -0.7536052E-03 Eh
   gradient norm :     0.0073524 Eh/α   predicted    -0.5730913E-03 ( -23.95%)
   displ. norm   :     0.5072748 α      lambda       -0.9326558E-03
   maximum displ.:     0.2477857 α      in ANC's #6, #1, #19, ...

........................................................................
.............................. CYCLE   28 ..............................
........................................................................
------------------------------------------------------------
  cycle        total energy    energy error   density error
------------------------------------------------------------
      1     -93.21140011328  -9.4726013E+01   1.6365672E-03
      2     -93.21140280338  -2.6900962E-06   9.5928881E-04
      3     -93.21139942830   3.3750767E-06   1.7550533E-04
      4     -93.21140368685  -4.2585516E-06   5.4397432E-05
      5     -93.21140382409  -1.3723732E-07   2.2790517E-05
      6     -93.21140385514  -3.1051499E-08   9.0776472E-06
------------------------------------------------------------

 total:                                   0.444 sec
 * total energy  :   -93.2114039 Eh     change       -0.7457689E-03 Eh
   gradient norm :     0.0091209 Eh/α   predicted    -0.5863326E-03 ( -21.38%)
   displ. norm   :     0.5274149 α      lambda       -0.8533717E-03
   maximum displ.:     0.2566550 α      in ANC's #6, #1, #19, ...

........................................................................
.............................. CYCLE   29 ..............................
........................................................................
------------------------------------------------------------
  cycle        total energy    energy error   density error
------------------------------------------------------------
      1     -93.21206889913  -9.4722743E+01   1.6240901E-03
      2     -93.21207091382  -2.0146876E-06   9.5380752E-04
      3     -93.21207009649   8.1732857E-07   1.1837928E-04
      4     -93.21207147510  -1.3786160E-06   4.8166509E-05
      5     -93.21207150955  -3.4443602E-08   2.8367606E-05
      6     -93.21207160009  -9.0538478E-08   9.6284882E-06
------------------------------------------------------------

 total:                                   0.247 sec
 * total energy  :   -93.2120716 Eh     change       -0.6677449E-03 Eh
   gradient norm :     0.0100022 Eh/α   predicted    -0.5453756E-03 ( -18.33%)
   displ. norm   :     0.4860244 α      lambda       -0.7469491E-03
   maximum displ.:     0.2401200 α      in ANC's #1, #6, #19, ...

........................................................................
.............................. CYCLE   30 ..............................
........................................................................
------------------------------------------------------------
  cycle        total energy    energy error   density error
------------------------------------------------------------
      1     -93.21263280634  -9.4722632E+01   1.4187616E-03
      2     -93.21263514675  -2.3404093E-06   8.3837233E-04
      3     -93.21261689846   1.8248291E-05   3.6999862E-04
      4     -93.21263644433  -1.9545871E-05   7.3844484E-05
      5     -93.21263701830  -5.7396964E-07   3.2612039E-05
      6     -93.21263710073  -8.2427718E-08   1.2599147E-05
------------------------------------------------------------

 total:                                   0.388 sec
 * total energy  :   -93.2126371 Eh     change       -0.5655006E-03 Eh
   gradient norm :     0.0089165 Eh/α   predicted    -0.4616992E-03 ( -18.36%)
   displ. norm   :     0.5429846 α      lambda       -0.7583061E-03
   maximum displ.:     0.2739497 α      in ANC's #1, #6, #19, ...

........................................................................
.............................. CYCLE   31 ..............................
........................................................................
------------------------------------------------------------
  cycle        total energy    energy error   density error
------------------------------------------------------------
      1     -93.21304434688  -9.4717186E+01   1.5848445E-03
      2     -93.21304930601  -4.9591365E-06   9.3266777E-04
      3     -93.21304175630   7.5497178E-06   2.5758646E-04
      4     -93.21304929815  -7.5418564E-06   1.0175195E-04
      5     -93.21305055561  -1.2574520E-06   3.5352760E-05
      6     -93.21305061412  -5.8511858E-08   1.8275453E-05
------------------------------------------------------------

 total:                                   0.193 sec
 * total energy  :   -93.2130506 Eh     change       -0.4135134E-03 Eh
   gradient norm :     0.0130628 Eh/α   predicted    -0.4909406E-03 (  18.72%)
   displ. norm   :     0.3973305 α      lambda       -0.9631211E-03
   maximum displ.:     0.2064665 α      in ANC's #1, #8, #6, ...

........................................................................
.............................. CYCLE   32 ..............................
........................................................................
------------------------------------------------------------
  cycle        total energy    energy error   density error
------------------------------------------------------------
      1     -93.21363480360  -9.4726349E+01   1.3441383E-03
      2     -93.21364303086  -8.2272629E-06   7.8463772E-04
      3     -93.21363422682   8.8040450E-06   2.9226658E-04
      4     -93.21364275960  -8.5327840E-06   1.1798746E-04
      5     -93.21364458810  -1.8284942E-06   3.9428702E-05
      6     -93.21364471190  -1.2380218E-07   1.9501823E-05
------------------------------------------------------------

 total:                                   0.241 sec
 * total energy  :   -93.2136447 Eh     change       -0.5940978E-03 Eh
   gradient norm :     0.0093191 Eh/α   predicted    -0.5576018E-03 (  -6.14%)
   displ. norm   :     0.5140238 α      lambda       -0.6772667E-03
   maximum displ.:     0.2664781 α      in ANC's #1, #18, #6, ...

........................................................................
.............................. CYCLE   33 ..............................
........................................................................
------------------------------------------------------------
  cycle        total energy    energy error   density error
------------------------------------------------------------
      1     -93.21388971627  -9.4721810E+01   1.5951385E-03
      2     -93.21390155735  -1.1841083E-05   9.2112604E-04
      3     -93.21389605380   5.5035548E-06   2.6982630E-04
      4     -93.21389929178  -3.2379878E-06   1.6307131E-04
      5     -93.21390308323  -3.7914512E-06   3.8387840E-05
      6     -93.21390309872  -1.5485000E-08   2.1166140E-05
      7     -93.21390314247  -4.3748571E-08   6.6333832E-06
------------------------------------------------------------

 total:                                   0.278 sec
 * total energy  :   -93.2139031 Eh     change       -0.2584306E-03 Eh
   gradient norm :     0.0188535 Eh/α   predicted    -0.4281073E-03 (  65.66%)
   displ. norm   :     0.2988320 α      lambda       -0.9869200E-03
   maximum displ.:     0.1508855 α      in ANC's #1, #13, #8, ...

........................................................................
.............................. CYCLE   34 ..............................
........................................................................
------------------------------------------------------------
  cycle        total energy    energy error   density error
------------------------------------------------------------
      1     -93.21452947049  -9.4727543E+01   1.2104422E-03
      2     -93.21453744859  -7.9780933E-06   6.8512179E-04
      3     -93.21453402669   3.4218938E-06   2.3314936E-04
      4     -93.21453751856  -3.4918645E-06   1.0317732E-04
      5     -93.21453862891  -1.1103540E-06   3.9507963E-05
      6     -93.21453871528  -8.6368786E-08   2.2663109E-05
      7     -93.21453877415  -5.8870938E-08   7.4782831E-06
------------------------------------------------------------

 total:                                   0.253 sec
 * total energy  :   -93.2145388 Eh     change       -0.6356317E-03 Eh
   gradient norm :     0.0079738 Eh/α   predicted    -0.5375256E-03 ( -15.43%)
   displ. norm   :     0.4135632 α      lambda       -0.4888243E-03
   maximum displ.:     0.2322402 α      in ANC's #1, #18, #8, ...

........................................................................
.............................. CYCLE   35 ..............................
........................................................................
------------------------------------------------------------
  cycle        total energy    energy error   density error
------------------------------------------------------------
      1     -93.21489461418  -9.4729959E+01   1.2636251E-03
      2     -93.21489783761  -3.2234340E-06   7.2802225E-04
      3     -93.21489585802   1.9795900E-06   1.6427429E-04
      4     -93.21489765962  -1.8015990E-06   8.4918109E-05
      5     -93.21489849429  -8.3466864E-07   2.3146063E-05
      6     -93.21489854948  -5.5191990E-08   1.2252076E-05
------------------------------------------------------------

 total:                                   0.235 sec
 * total energy  :   -93.2148985 Eh     change       -0.3597753E-03 Eh
   gradient norm :     0.0079248 Eh/α   predicted    -0.2862188E-03 ( -20.45%)
   displ. norm   :     0.4330554 α      lambda       -0.4823121E-03
   maximum displ.:     0.2698544 α      in ANC's #1, #18, #8, ...

........................................................................
.............................. CYCLE   36 ..............................
........................................................................
------------------------------------------------------------
  cycle        total energy    energy error   density error
------------------------------------------------------------
      1     -93.21521776673  -9.4730126E+01   1.2605662E-03
      2     -93.21522172755  -3.9608225E-06   7.2429832E-04
      3     -93.21521538247   6.3450757E-06   2.4846518E-04
      4     -93.21522130233  -5.9198596E-06   1.1774073E-04
      5     -93.21522269866  -1.3963250E-06   3.4035612E-05
      6     -93.21522284948  -1.5081868E-07   1.1987730E-05
------------------------------------------------------------

 total:                                   0.247 sec
 * total energy  :   -93.2152228 Eh     change       -0.3243000E-03 Eh
   gradient norm :     0.0074703 Eh/α   predicted    -0.2863885E-03 ( -11.69%)
   displ. norm   :     0.3743213 α      lambda       -0.4020609E-03
   maximum displ.:     0.2397558 α      in ANC's #1, #18, #2, ...

........................................................................
.............................. CYCLE   37 ..............................
........................................................................
------------------------------------------------------------
  cycle        total energy    energy error   density error
------------------------------------------------------------
      1     -93.21542169360  -9.4732116E+01   1.0863119E-03
      2     -93.21542558493  -3.8913283E-06   6.2722957E-04
      3     -93.21542448657   1.0983628E-06   1.4705011E-04
      4     -93.21542530988  -8.2331469E-07   8.4611792E-05
      5     -93.21542605445  -7.4456491E-07   2.8322704E-05
      6     -93.21542610168  -4.7231055E-08   1.6994721E-05
------------------------------------------------------------

 total:                                   0.267 sec
 * total energy  :   -93.2154261 Eh     change       -0.2032522E-03 Eh
   gradient norm :     0.0118500 Eh/α   predicted    -0.2292007E-03 (  12.77%)
   displ. norm   :     0.2793488 α      lambda       -0.4365330E-03
   maximum displ.:     0.1865666 α      in ANC's #1, #2, #3, ...

........................................................................
.............................. CYCLE   38 ..............................
........................................................................
------------------------------------------------------------
  cycle        total energy    energy error   density error
------------------------------------------------------------
      1     -93.21561950230  -9.4732467E+01   8.7893301E-04
      2     -93.21562273425  -3.2319447E-06   5.1076668E-04
      3     -93.21561388627   8.8479798E-06   2.7211533E-04
      4     -93.21562314427  -9.2580006E-06   8.4801854E-05
      5     -93.21562400153  -8.5726117E-07   2.4202703E-05
      6     -93.21562401431  -1.2782692E-08   1.5476928E-05
------------------------------------------------------------

 total:                                   0.214 sec
 * total energy  :   -93.2156240 Eh     change       -0.1979126E-03 Eh
   gradient norm :     0.0111576 Eh/α   predicted    -0.2353003E-03 (  18.89%)
   displ. norm   :     0.3672823 α      lambda       -0.4871802E-03
   maximum displ.:     0.2500740 α      in ANC's #1, #18, #2, ...

........................................................................
.............................. CYCLE   39 ..............................
........................................................................
------------------------------------------------------------
  cycle        total energy    energy error   density error
------------------------------------------------------------
      1     -93.21581405960  -9.4724276E+01   1.0641373E-03
      2     -93.21582112025  -7.0606522E-06   6.1557161E-04
      3     -93.21581527469   5.8455654E-06   2.5790789E-04
      4     -93.21582200127  -6.7265799E-06   7.8711962E-05
      5     -93.21582276927  -7.6800440E-07   2.2856894E-05
      6     -93.21582276817   1.1065708E-09   1.2760558E-05
------------------------------------------------------------

 total:                                   0.255 sec
 * total energy  :   -93.2158228 Eh     change       -0.1987539E-03 Eh
   gradient norm :     0.0113253 Eh/α   predicted    -0.2764507E-03 (  39.09%)
   displ. norm   :     0.2848513 α      lambda       -0.6653707E-03
   maximum displ.:     0.1211054 α      in ANC's #6, #8, #20, ...

........................................................................
.............................. CYCLE   40 ..............................
........................................................................
------------------------------------------------------------
  cycle        total energy    energy error   density error
------------------------------------------------------------
      1     -93.21594497486  -9.4732413E+01   1.4136482E-03
      2     -93.21595562553  -1.0650671E-05   7.9779917E-04
      3     -93.21595043857   5.1869610E-06   2.6510536E-04
      4     -93.21595420971  -3.7711371E-06   1.5614201E-04
      5     -93.21595720284  -2.9931378E-06   4.4254064E-05
      6     -93.21595728847  -8.5626510E-08   2.6058518E-05
      7     -93.21595738886  -1.0039176E-07   7.3255770E-06
------------------------------------------------------------

 total:                                   0.340 sec
 * total energy  :   -93.2159574 Eh     change       -0.1346207E-03 Eh
   gradient norm :     0.0148064 Eh/α   predicted    -0.3596857E-03 ( 167.18%)
   displ. norm   :     0.2348006 α      lambda       -0.5949514E-03
   maximum displ.:     0.1323082 α      in ANC's #1, #18, #3, ...

........................................................................
.............................. CYCLE   41 ..............................
........................................................................
------------------------------------------------------------
  cycle        total energy    energy error   density error
------------------------------------------------------------
      1     -93.21629005424  -9.4733143E+01   9.1372274E-04
      2     -93.21629561983  -5.5655981E-06   5.2079681E-04
      3     -93.21629564427  -2.4437057E-08   1.2536313E-04
      4     -93.21629588443  -2.4016198E-07   4.1558506E-05
      5     -93.21629604706  -1.6262621E-07   2.0800626E-05
      6     -93.21629604649   5.7306693E-10   1.2082767E-05
------------------------------------------------------------

 total:                                   0.658 sec
 * total energy  :   -93.2162960 Eh     change       -0.3386576E-03 Eh
   gradient norm :     0.0093124 Eh/α   predicted    -0.3138763E-03 (  -7.32%)
   displ. norm   :     0.2545505 α      lambda       -0.2668970E-03
   maximum displ.:     0.1616874 α      in ANC's #1, #2, #3, ...

........................................................................
.............................. CYCLE   42 ..............................
........................................................................
------------------------------------------------------------
  cycle        total energy    energy error   density error
------------------------------------------------------------
      1     -93.21646164165  -9.4730443E+01   7.7572711E-04
      2     -93.21646262744  -9.8579270E-07   4.5659729E-04
      3     -93.21645432458   8.3028607E-06   2.5062926E-04
      4     -93.21646324831  -8.9237272E-06   4.4907530E-05
      5     -93.21646345043  -2.0211809E-07   1.5267544E-05
------------------------------------------------------------

 total:                                   0.156 sec
 * total energy  :   -93.2164635 Eh     change       -0.1674039E-03 Eh
   gradient norm :     0.0067134 Eh/α   predicted    -0.1420999E-03 ( -15.12%)
   displ. norm   :     0.2357314 α      lambda       -0.2392989E-03
   maximum displ.:     0.1113372 α      in ANC's #1, #2, #8, ...
 * RMSD in coord.:     0.7806454 α      energy gain  -0.3397145E-01 Eh

generating ANC from exact Hessian ...
Using Lindh-Hessian (1995)
 Shifting diagonal of input Hessian by    9.7765513930829842E-003
 Lowest  eigenvalues of input Hessian
    0.000000    0.000000    0.000000    0.000000    0.000000    0.000000
    0.010000    0.010149    0.010153    0.010313    0.010899    0.010907
    0.011132    0.011143    0.013107    0.014077    0.014347    0.014943
 Highest eigenvalues
    2.005622    2.030783    2.041896    2.178515    2.247785    2.265473


........................................................................
.............................. CYCLE   43 ..............................
........................................................................
------------------------------------------------------------
  cycle        total energy    energy error   density error
------------------------------------------------------------
      1     -93.21661555050  -9.4730409E+01   8.8721705E-04
      2     -93.21661761853  -2.0680290E-06   5.1348842E-04
      3     -93.21661566798   1.9505481E-06   1.4212131E-04
      4     -93.21661780151  -2.1335345E-06   5.7523619E-05
      5     -93.21661804731  -2.4579380E-07   2.9869781E-05
      6     -93.21661815249  -1.0518750E-07   1.0576229E-05
------------------------------------------------------------

 total:                                   0.222 sec
 * total energy  :   -93.2166182 Eh     change       -0.1547021E-03 Eh
   gradient norm :     0.0057946 Eh/α   predicted     0.0000000E+00 (-100.00%)
   displ. norm   :     0.0739110 α      lambda       -0.1555341E-03
   maximum displ.:     0.0285806 α      in ANC's #18, #21, #7, ...

........................................................................
.............................. CYCLE   44 ..............................
........................................................................
------------------------------------------------------------
  cycle        total energy    energy error   density error
------------------------------------------------------------
      1     -93.21673869312  -9.4731540E+01   3.4623734E-04
      2     -93.21673893380  -2.4067229E-07   2.0432365E-04
      3     -93.21673674598   2.1878161E-06   1.3267798E-04
      4     -93.21673914940  -2.4034159E-06   2.1501661E-05
      5     -93.21673919551  -4.6115517E-08   8.6367896E-06
------------------------------------------------------------

 total:                                   0.161 sec
 * total energy  :   -93.2167392 Eh     change       -0.1210430E-03 Eh
   gradient norm :     0.0020105 Eh/α   predicted    -0.7854270E-04 ( -35.11%)
   displ. norm   :     0.1834541 α      lambda       -0.2069511E-03
   maximum displ.:     0.0758534 α      in ANC's #18, #21, #7, ...

........................................................................
.............................. CYCLE   45 ..............................
........................................................................
------------------------------------------------------------
  cycle        total energy    energy error   density error
------------------------------------------------------------
      1     -93.21688668542  -9.4732376E+01   5.6770992E-04
      2     -93.21688703905  -3.5362757E-07   3.3994073E-04
      3     -93.21688437862   2.6604281E-06   1.3088800E-04
      4     -93.21688719733  -2.8187031E-06   3.1806585E-05
      5     -93.21688728711  -8.9783924E-08   1.2654764E-05
------------------------------------------------------------

 total:                                   0.155 sec
 * total energy  :   -93.2168873 Eh     change       -0.1480916E-03 Eh
   gradient norm :     0.0032414 Eh/α   predicted    -0.1069603E-03 ( -27.77%)
   displ. norm   :     0.2261964 α      lambda       -0.1565861E-03
   maximum displ.:     0.0987900 α      in ANC's #18, #21, #7, ...

........................................................................
.............................. CYCLE   46 ..............................
........................................................................
------------------------------------------------------------
  cycle        total energy    energy error   density error
------------------------------------------------------------
      1     -93.21699764372  -9.4731727E+01   6.3285844E-04
      2     -93.21699817748  -5.3375369E-07   3.7929312E-04
      3     -93.21699621049   1.9669844E-06   1.2372233E-04
      4     -93.21699836587  -2.1553773E-06   2.7232889E-05
      5     -93.21699842044  -5.4566868E-08   1.5025259E-05
------------------------------------------------------------

 total:                                   0.178 sec
 * total energy  :   -93.2169984 Eh     change       -0.1111333E-03 Eh
   gradient norm :     0.0045295 Eh/α   predicted    -0.8230322E-04 ( -25.94%)
   displ. norm   :     0.1947191 α      lambda       -0.1035853E-03
   maximum displ.:     0.0886475 α      in ANC's #18, #7, #21, ...

........................................................................
.............................. CYCLE   47 ..............................
........................................................................
------------------------------------------------------------
  cycle        total energy    energy error   density error
------------------------------------------------------------
      1     -93.21706491761  -9.4731233E+01   5.3447226E-04
      2     -93.21706486309   5.4510764E-08   3.2874674E-04
      3     -93.21705582201   9.0410824E-06   2.5960275E-04
      4     -93.21706589532  -1.0073309E-05   2.2244880E-05
      5     -93.21706593060  -3.5274326E-08   1.0280354E-05
------------------------------------------------------------

 total:                                   0.164 sec
 * total energy  :   -93.2170659 Eh     change       -0.6751016E-04 Eh
   gradient norm :     0.0036539 Eh/α   predicted    -0.5375876E-04 ( -20.37%)
   displ. norm   :     0.0940611 α      lambda       -0.5689048E-04
   maximum displ.:     0.0403703 α      in ANC's #18, #6, #3, ...

........................................................................
.............................. CYCLE   48 ..............................
........................................................................
------------------------------------------------------------
  cycle        total energy    energy error   density error
------------------------------------------------------------
      1     -93.21710450991  -9.4732136E+01   2.8496195E-04
      2     -93.21710469739  -1.8747554E-07   1.6998180E-04
      3     -93.21710406814   6.2924778E-07   7.5668297E-05
      4     -93.21710477178  -7.0364337E-07   1.5935900E-05
------------------------------------------------------------

 total:                                   0.222 sec
 * total energy  :   -93.2171048 Eh     change       -0.3884119E-04 Eh
   gradient norm :     0.0015653 Eh/α   predicted    -0.2869828E-04 ( -26.11%)
   displ. norm   :     0.1527428 α      lambda       -0.3281996E-04
   maximum displ.:     0.0684970 α      in ANC's #6, #18, #3, ...

........................................................................
.............................. CYCLE   49 ..............................
........................................................................
------------------------------------------------------------
  cycle        total energy    energy error   density error
------------------------------------------------------------
      1     -93.21713544450  -9.4732434E+01   4.0113446E-04
      2     -93.21713519296   2.5154203E-07   2.4926715E-04
      3     -93.21712960576   5.5871942E-06   2.1570684E-04
      4     -93.21713616291  -6.5571502E-06   1.6021436E-05
      5     -93.21713619358  -3.0668801E-08   6.7033729E-06
------------------------------------------------------------

 total:                                   0.214 sec
 * total energy  :   -93.2171362 Eh     change       -0.3142180E-04 Eh
   gradient norm :     0.0020576 Eh/α   predicted    -0.1658298E-04 ( -47.22%)
   displ. norm   :     0.0697194 α      lambda       -0.2155243E-04
   maximum displ.:     0.0314276 α      in ANC's #3, #6, #4, ...

........................................................................
.............................. CYCLE   50 ..............................
........................................................................
------------------------------------------------------------
  cycle        total energy    energy error   density error
------------------------------------------------------------
      1     -93.21715406934  -9.4732625E+01   1.8844452E-04
      2     -93.21715410743  -3.8093219E-08   1.1151474E-04
      3     -93.21715387917   2.2826519E-07   3.9157701E-05
      4     -93.21715413534  -2.5617882E-07   5.5572855E-06
------------------------------------------------------------

 total:                                   0.201 sec
 * total energy  :   -93.2171541 Eh     change       -0.1794176E-04 Eh
   gradient norm :     0.0015578 Eh/α   predicted    -0.1085852E-04 ( -39.48%)
   displ. norm   :     0.2304933 α      lambda       -0.3409406E-04
   maximum displ.:     0.1057596 α      in ANC's #3, #6, #4, ...

........................................................................
.............................. CYCLE   51 ..............................
........................................................................
------------------------------------------------------------
  cycle        total energy    energy error   density error
------------------------------------------------------------
      1     -93.21717737821  -9.4731736E+01   6.0588614E-04
      2     -93.21717757634  -1.9812472E-07   3.5904883E-04
      3     -93.21717682623   7.5010630E-07   7.2753514E-05
      4     -93.21717764032  -8.1408719E-07   1.9290216E-05
------------------------------------------------------------

 total:                                   0.180 sec
 * total energy  :   -93.2171776 Eh     change       -0.2350497E-04 Eh
   gradient norm :     0.0015233 Eh/α   predicted    -0.1746935E-04 ( -25.68%)
   displ. norm   :     0.0547335 α      lambda       -0.1173106E-04
   maximum displ.:     0.0231682 α      in ANC's #21, #7, #3, ...

........................................................................
.............................. CYCLE   52 ..............................
........................................................................
------------------------------------------------------------
  cycle        total energy    energy error   density error
------------------------------------------------------------
      1     -93.21718580139  -9.4733116E+01   2.1015358E-04
      2     -93.21718554162   2.5977160E-07   1.4182228E-04
      3     -93.21718558251  -4.0892687E-08   1.1275834E-04
      4     -93.21718673931  -1.1567943E-06   1.1829509E-05
      5     -93.21718674595  -6.6482215E-09   4.2277893E-06
------------------------------------------------------------

 total:                                   0.247 sec
 * total energy  :   -93.2171867 Eh     change       -0.9105637E-05 Eh
   gradient norm :     0.0017696 Eh/α   predicted    -0.5875745E-05 ( -35.47%)
   displ. norm   :     0.0701153 α      lambda       -0.1406686E-04
   maximum displ.:     0.0376508 α      in ANC's #3, #4, #2, ...

........................................................................
.............................. CYCLE   53 ..............................
........................................................................
------------------------------------------------------------
  cycle        total energy    energy error   density error
------------------------------------------------------------
      1     -93.21720214639  -9.4733292E+01   2.2035391E-04
      2     -93.21720222251  -7.6118710E-08   1.2905223E-04
      3     -93.21720211805   1.0446118E-07   2.8667763E-05
      4     -93.21720223552  -1.1746457E-07   9.5422451E-06
------------------------------------------------------------

 total:                                   0.203 sec
 * total energy  :   -93.2172022 Eh     change       -0.1548956E-04 Eh
   gradient norm :     0.0010060 Eh/α   predicted    -0.7058058E-05 ( -54.43%)
   displ. norm   :     0.1267758 α      lambda       -0.1403214E-04
   maximum displ.:     0.0722821 α      in ANC's #3, #4, #2, ...

........................................................................
.............................. CYCLE   54 ..............................
........................................................................
------------------------------------------------------------
  cycle        total energy    energy error   density error
------------------------------------------------------------
      1     -93.21721739490  -9.4732683E+01   3.4374219E-04
      2     -93.21721738345   1.1453650E-08   2.0594135E-04
      3     -93.21721422911   3.1543444E-06   1.4920029E-04
      4     -93.21721769125  -3.4621439E-06   1.3248810E-05
      5     -93.21721770550  -1.4251896E-08   7.0325239E-06
------------------------------------------------------------

 total:                                   0.208 sec
 * total energy  :   -93.2172177 Eh     change       -0.1546999E-04 Eh
   gradient norm :     0.0008748 Eh/α   predicted    -0.7073568E-05 ( -54.28%)
   displ. norm   :     0.1211209 α      lambda       -0.9666899E-05
   maximum displ.:     0.0728935 α      in ANC's #3, #4, #2, ...

........................................................................
.............................. CYCLE   55 ..............................
........................................................................
------------------------------------------------------------
  cycle        total energy    energy error   density error
------------------------------------------------------------
      1     -93.21722910442  -9.4732450E+01   2.8552910E-04
      2     -93.21722915515  -5.0732069E-08   1.6899700E-04
      3     -93.21722867794   4.7720856E-07   5.7874259E-05
      4     -93.21722919899  -5.2104139E-07   1.0541843E-05
------------------------------------------------------------

 total:                                   0.231 sec
 * total energy  :   -93.2172292 Eh     change       -0.1149348E-04 Eh
   gradient norm :     0.0007145 Eh/α   predicted    -0.4869907E-05 ( -57.63%)
   displ. norm   :     0.1201771 α      lambda       -0.8934543E-05
   maximum displ.:     0.0745803 α      in ANC's #3, #4, #2, ...

........................................................................
.............................. CYCLE   56 ..............................
........................................................................
------------------------------------------------------------
  cycle        total energy    energy error   density error
------------------------------------------------------------
      1     -93.21724009625  -9.4732362E+01   2.5667736E-04
      2     -93.21723999327   1.0298407E-07   1.5621560E-04
      3     -93.21723766008   2.3331871E-06   1.3711938E-04
      4     -93.21724034232  -2.6822395E-06   6.3903137E-06
      5     -93.21724034397  -1.6507329E-09   3.6186780E-06
------------------------------------------------------------

 total:                                   0.162 sec
 * total energy  :   -93.2172403 Eh     change       -0.1114499E-04 Eh
   gradient norm :     0.0005832 Eh/α   predicted    -0.4497904E-05 ( -59.64%)
[...]
    31   6 C       48   1 H                                       1.0866546
    28   6 C       49   1 H                                       1.0880151
    28   6 C       50   1 H                                       1.0878759
    28   6 C       51   1 H                                       1.0878798
    30   6 C       52   1 H                                       1.0862770
    30   6 C       53   1 H                                       1.0883000
    30   6 C       54   1 H                                       1.0874023
    29   6 C       55   1 H                                       1.0865321
    29   6 C       56   1 H                                       1.0880988
    29   6 C       57   1 H                                       1.0866984
    27   6 C       58   1 H                                       1.0880588
    27   6 C       59   1 H                                       1.0861447
    27   6 C       60   1 H                                       1.0878572
    26   6 C       61   1 H                                       1.0879186
    26   6 C       62   1 H                                       1.0867616
    26   6 C       63   1 H                                       1.0855981
    25   6 C       64   1 H                                       1.0876022
    25   6 C       65   1 H                                       1.0873410
    25   6 C       66   1 H                                       1.0881145
     2   6 C       67   8 O                                       1.3724825
    18   6 C       67   8 O                                       1.3712649
    68   6 C       69   6 C                                       1.3813941
    69   6 C       70   6 C                                       1.3979840
    70   6 C       71   6 C                                       1.4189241
    71   6 C       72   6 C                                       1.4059244
    68   6 C       73   6 C                                       1.4055900
    72   6 C       73   6 C                                       1.3826318
    70   6 C       74   6 C                                       1.4011330
    74   6 C       75   6 C                                       1.3833436
    75   6 C       76   6 C                                       1.4201523
    71   6 C       77   7 N                                       1.3452105
    76   6 C       77   7 N                                       1.3381422
    74   6 C       78   6 C                                       1.4008228
    78   6 C       79   6 C                                       1.4183302
    79   6 C       80   7 N                                       1.3449774
    75   6 C       81   6 C                                       1.4190772
    80   7 N       81   6 C                                       1.3368960
    81   6 C       82   6 C                                       1.4146623
    82   6 C       83   6 C                                       1.3916662
    76   6 C       84   6 C                                       1.4116241
    83   6 C       84   6 C                                       1.3952985
    78   6 C       85   6 C                                       1.3999032
    85   6 C       86   6 C                                       1.3805943
    86   6 C       87   6 C                                       1.4084440
    79   6 C       88   6 C                                       1.4073021
    87   6 C       88   6 C                                       1.3812755
    90   6 C       92   6 C                                       1.5323223
    90   6 C       93   6 C                                       1.5373378
    90   6 C       94   6 C                                       1.5326759
    91   6 C       95   6 C                                       1.5346773
    91   6 C       96   6 C                                       1.5354998
    91   6 C       97   6 C                                       1.5311166
    89   6 C       98   6 C                                       1.5304292
    89   6 C       99   6 C                                       1.5357511
    89   6 C      100   6 C                                       1.5349206
    72   6 C      101   1 H                                       1.0771932
    68   6 C      102   1 H                                       1.0757274
    84   6 C      103   1 H                                       1.0780847
    82   6 C      104   1 H                                       1.0764242
    88   6 C      105   1 H                                       1.0753497 (min)
    86   6 C      106   1 H                                       1.0765947
   100   6 C      107   1 H                                       1.0873740
   100   6 C      108   1 H                                       1.0881208
   100   6 C      109   1 H                                       1.0862018
    99   6 C      110   1 H                                       1.0879899
    99   6 C      111   1 H                                       1.0854213
    99   6 C      112   1 H                                       1.0879088
    98   6 C      113   1 H                                       1.0878024
    98   6 C      114   1 H                                       1.0883442
    98   6 C      115   1 H                                       1.0862583
    95   6 C      116   1 H                                       1.0858020
    95   6 C      117   1 H                                       1.0869883
    95   6 C      118   1 H                                       1.0879077
    97   6 C      119   1 H                                       1.0875478
    97   6 C      120   1 H                                       1.0881043
    97   6 C      121   1 H                                       1.0872314
    96   6 C      122   1 H                                       1.0865573
    96   6 C      123   1 H                                       1.0878446
    96   6 C      124   1 H                                       1.0881515
    94   6 C      125   1 H                                       1.0866861
    94   6 C      126   1 H                                       1.0859356
    94   6 C      127   1 H                                       1.0877814
Note: The following floating-point exceptions are signalling: IEEE_UNDERFLOW_FLAG
normal termination of xtb
    93   6 C      128   1 H                                       1.0879016
    93   6 C      129   1 H                                       1.0879846
    93   6 C      130   1 H                                       1.0875662
    92   6 C      131   1 H                                       1.0866882
    92   6 C      132   1 H                                       1.0867639
    92   6 C      133   1 H                                       1.0883971
    69   6 C      134   8 O                                       1.3729736
    85   6 C      134   8 O                                       1.3736299

 * 4 distinct bonds (by element types)

   Z      Z             #   av. dist./Å        max./Å        min./Å
   1 H    6 C          66     1.0853610     1.0883971     1.0753497
   6 C    6 C          60     1.4412182     1.5379178     1.3775957
   6 C    7 N           8     1.3415894     1.3452472     1.3368960
   6 C    8 O           4     1.3725877     1.3736299     1.3712649


optimized geometry written to: xtbopt.mol


           -------------------------------------------------
          | TOTAL ENERGY             -186.466892452957 Eh   |
          | GRADIENT NORM               0.000184229610 Eh/α |
           -------------------------------------------------

------------------------------------------------------------------------
 * finished run on 2025/03/10 at 11:04:42.040     
------------------------------------------------------------------------
 total:
 * wall-time:     0 d,  0 h,  0 min, 19.912 sec
 *  cpu-time:     0 d,  0 h,  1 min,  3.191 sec
 * ratio c/w:     3.173 speedup
 SCF:
 * wall-time:     0 d,  0 h,  0 min,  2.358 sec
 *  cpu-time:     0 d,  0 h,  0 min,  8.768 sec
 * ratio c/w:     3.719 speedup
 ANC optimizer:
 * wall-time:     0 d,  0 h,  0 min, 17.544 sec
 *  cpu-time:     0 d,  0 h,  0 min, 54.418 sec
 * ratio c/w:     3.102 speedup

      -----------------------------------------------------------      
     |                   =====================                   |     
     |                           x T B                           |     
     |                   =====================                   |     
     |                         S. Grimme                         |     
     |          Mulliken Center for Theoretical Chemistry        |     
     |                    University of Bonn                     |     
      -----------------------------------------------------------      

   * xtb version 6.7.1 (edcfbbe) compiled by 'runner@Mac-1732539442253.local' on 2024-11-25

   xtb is free software: you can redistribute it and/or modify it under
   the terms of the GNU Lesser General Public License as published by
   the Free Software Foundation, either version 3 of the License, or
   (at your option) any later version.
   
   xtb is distributed in the hope that it will be useful,
   but WITHOUT ANY WARRANTY; without even the implied warranty of
   MERCHANTABILITY or FITNESS FOR A PARTICULAR PURPOSE.  See the
   GNU Lesser General Public License for more details.
   
   Cite this work as:
   * C. Bannwarth, E. Caldeweyher, S. Ehlert, A. Hansen, P. Pracht,
     J. Seibert, S. Spicher, S. Grimme, WIREs Comput. Mol. Sci., 2020, 11,
     e01493. DOI: 10.1002/wcms.1493
   
   for GFN2-xTB:
   * C. Bannwarth, S. Ehlert and S. Grimme., J. Chem. Theory Comput., 2019,
     15, 1652-1671. DOI: 10.1021/acs.jctc.8b01176
   for GFN1-xTB:
   * S. Grimme, C. Bannwarth, P. Shushkov, J. Chem. Theory Comput., 2017,
     13, 1989-2009. DOI: 10.1021/acs.jctc.7b00118
   for GFN0-xTB:
   * P. Pracht, E. Caldeweyher, S. Ehlert, S. Grimme, ChemRxiv, 2019, preprint.
     DOI: 10.26434/chemrxiv.8326202.v1
   for GFN-FF:
   * S. Spicher and S. Grimme, Angew. Chem. Int. Ed., 2020, 59, 15665-15673.
     DOI: 10.1002/anie.202004239
   
   for ALPB and GBSA implicit solvation:
   * S. Ehlert, M. Stahn, S. Spicher, S. Grimme, J. Chem. Theory Comput.,
     2021, 17, 4250-4261. DOI: 10.1021/acs.jctc.1c00471
   
   for ddCOSMO and CPCM-X implicit solvation:
   * M. Stahn, S. Ehlert, S. Grimme, J. Phys. Chem. A,
     2023, XX, XXXX-XXXX. DOI: 10.1021/acs.jpca.3c04382
   
   for DFT-D4:
   * E. Caldeweyher, C. Bannwarth and S. Grimme, J. Chem. Phys., 2017,
     147, 034112. DOI: 10.1063/1.4993215
   * E. Caldeweyher, S. Ehlert, A. Hansen, H. Neugebauer, S. Spicher,
     C. Bannwarth and S. Grimme, J. Chem. Phys., 2019, 150, 154122.
     DOI: 10.1063/1.5090222
   * E. Caldeweyher, J.-M. Mewes, S. Ehlert and S. Grimme, Phys. Chem. Chem. Phys.
     2020, 22, 8499-8512. DOI: 10.1039/D0CP00502A
   
   for sTDA-xTB:
   * S. Grimme and C. Bannwarth, J. Chem. Phys., 2016, 145, 054103.
     DOI: 10.1063/1.4959605
   
   in the mass-spec context:
   * V. Asgeirsson, C. Bauer and S. Grimme, Chem. Sci., 2017, 8, 4879.
     DOI: 10.1039/c7sc00601b
   * J. Koopman and S. Grimme, ACS Omega 2019, 4, 12, 15120-15133.
     DOI: 10.1021/acsomega.9b02011
   
   for metadynamics refer to:
   * S. Grimme, J. Chem. Theory Comput., 2019, 155, 2847-2862
     DOI: 10.1021/acs.jctc.9b00143
   
   for SPH calculations refer to:
   * S. Spicher and S. Grimme, J. Chem. Theory Comput., 2021, 17, 1701-1714
     DOI: 10.1021/acs.jctc.0c01306
   
   for ONIOM refer to:
   * C. Plett, A. Katbashev, S. Ehlert, S. Grimme, M. Bursch,
     Phys. Chem. Chem. Phys., 2023, 25, 17860-17868. DOI: 10.1039/D3CP02178E
   
   for DIPRO refer to:
   * J. Kohn, N. Gildemeister, S. Grimme, D. Fazzi, A. Hansen,
     J. Chem. Phys., 2023, just accepted.
   
   for PTB refer to:
   * S. Grimme, M. Mueller, A. Hansen, J. Chem. Phys., 2023, 158, 124111.
     DOI: 10.1063/5.0137838
   
   with help from (in alphabetical order)
   P. Atkinson, C. Bannwarth, F. Bohle, G. Brandenburg, E. Caldeweyher
   M. Checinski, S. Dohm, S. Ehlert, S. Ehrlich, I. Gerasimov, C. Hölzer
   A. Katbashev, J. Kohn, J. Koopman, C. Lavigne, S. Lehtola, F. März, M. Müller,
   F. Musil, H. Neugebauer, J. Pisarek, C. Plett, P. Pracht, F. Pultar,
   J. Seibert, P. Shushkov, S. Spicher, M. Stahn, M. Steiner, T. Strunk,
   J. Stückrath, T. Rose, and J. Unsleber
   
 * started run on 2025/03/10 at 11:04:42.081     
   ID    Z sym.   atoms
    1    6 C      1-9, 11, 12, 14-33, 68-76, 78, 79, 81-100
    2    7 N      10, 13, 77, 80
    3    1 H      34-66, 101-133
    4    8 O      67, 134

           -------------------------------------------------
          |                Calculation Setup                |
           -------------------------------------------------

          program call               : xtb opt_dimer.mol --dipro 0.3 --chrg 0 --uhf 2 --spinpol --tblite
          coordinate file            : opt_dimer.mol
          omp threads                :                     8


molecular fragmentation (1/2 indicates fragments):
111111111111111111111111111111111111111111111111111111111111111111122222
22222222222222222222222222222222222222222222222222222222222222
# atoms in fragment 1/2:    67    67
 fragment masses (1/2) :      449.61      449.61
CMA distance (Bohr)    :   8.830
constraining FC (au)   :  0.0500
Wavefunction read from restart file
           -------------------------------------------------
          |                    D I P R O                    |
           -------------------------------------------------
Calculation for dimer 
--------------------- 
  
charge of dimer :   0.
unpaired e- of dimer :  2
repulsion energy          3.0344103801633E+00 Eh
dispersion energy         1.0373413579344E-02 Eh
number of electrons       3.4600000000000E+02 e
integral cutoff           1.7347787504999E+01 bohr

------------------------------------------------------------
  cycle        total energy    energy error   density error
------------------------------------------------------------
      1     -186.0588955994  -1.8910368E+02   1.2833006E-01
      2     -186.3393481104  -2.8045251E-01   7.0178748E-02
      3     -186.2949826155   4.4365495E-02   4.2943015E-02
      4     -186.4117766750  -1.1679406E-01   1.7744383E-02
      5     -186.4573685936  -4.5591919E-02   5.6071601E-03
      6     -186.4602026869  -2.8340932E-03   3.5615670E-03
      7     -186.4621125212  -1.9098343E-03   1.7358541E-03
      8     -186.4625283662  -4.1584497E-04   7.6336234E-04
      9     -186.4625943420  -6.5975869E-05   2.7854312E-04
     10     -186.4626016661  -7.3240870E-06   9.8072902E-05
     11     -186.4626025339  -8.6777041E-07   4.4029409E-05
     12     -186.4626027784  -2.4451421E-07   1.9934571E-05
------------------------------------------------------------

electronic energy        -1.8950738657215E+02 Eh
total energy             -1.8646260277841E+02 Eh

 total:                                   1.051 sec
 - repulsion                              0.000 sec (  0%)
 - dispersion                             0.005 sec (  0%)
 - coulomb                                0.002 sec (  0%)
 - hamiltonian                            0.007 sec (  0%)
 - scc                                    1.038 sec ( 98%)

Found 2 fragments!
Fragment 1:  1-67
Fragment 2:  68-134

[Info] Fragment spin read from .UHFfrag
Calculation for fragment 1
 ------------------------------
   
charge of fragment :   0.
unpaired e- of fragment :  1
------------------------------------------------------------
  cycle        total energy    energy error   density error
------------------------------------------------------------
      1     -93.00958407029  -9.4525141E+01   1.2803570E-01
      2     -93.15881386230  -1.4922979E-01   6.9533227E-02
      3     -93.15288919992   5.9246624E-03   4.1135845E-02
      4     -93.19964992434  -4.6760724E-02   1.4602080E-02
      5     -93.21154232005  -1.1892396E-02   3.6296540E-03
      6     -93.21172833714  -1.8601709E-04   2.2086326E-03
      7     -93.21198697852  -2.5864138E-04   1.0557774E-03
      8     -93.21203349458  -4.6516062E-05   5.0465394E-04
      9     -93.21204929998  -1.5805398E-05   1.7845185E-04
     10     -93.21205086949  -1.5695092E-06   6.1838764E-05
     11     -93.21205100814  -1.3864353E-07   2.4934714E-05
     12     -93.21205102306  -1.4926883E-08   1.1343446E-05
------------------------------------------------------------

 total:                                   0.429 sec
Calculation for fragment 2
 ------------------------------
   
charge of fragment :   0.
unpaired e- of fragment :  1
------------------------------------------------------------
  cycle        total energy    energy error   density error
------------------------------------------------------------
      1     -93.01042516078  -9.4528281E+01   1.2861511E-01
      2     -93.15964577939  -1.4922062E-01   6.9937073E-02
      3     -93.15323263788   6.4131415E-03   4.1294291E-02
      4     -93.20083105795  -4.7598420E-02   1.4526204E-02
      5     -93.21245454717  -1.1623489E-02   3.4900293E-03
      6     -93.21268463433  -2.3008715E-04   1.8522052E-03
      7     -93.21284780287  -1.6316854E-04   8.6064229E-04
      8     -93.21286871444  -2.0911570E-05   4.7607263E-04
      9     -93.21288193022  -1.3215776E-05   1.9787502E-04
     10     -93.21288447087  -2.5406569E-06   6.5900513E-05
     11     -93.21288466304  -1.9216084E-07   2.4879284E-05
     12     -93.21288467832  -1.5285337E-08   1.1440645E-05
------------------------------------------------------------

 total:                                   0.268 sec
   
   ::::::::::::::::::::::::::::::::::::::::::::::
   ::     D I P R O      C O U P L I N G S     ::
   ::::::::::::::::::::::::::::::::::::::::::::::
   
energy threshhold for near-degenerate orbitals near HOMO and LUMO considered for DIPRO:  0.300 eV
no. of orbitals within energy window of frag 1         2
no. of orbitals within energy window of frag 2         2
   
  Fragment 1 SOMO   Fragment 2 SOMO 
--------------------------------------
E_mon(orb) frag1 frag2              -9.528    -9.508 eV
J(AB):                0.005 eV
S(AB):            -0.00022932 Eh
|J(AB,eff)|:            0.003 eV
   
  Fragment 1 SOMO   Fragment 2 LUMO 
--------------------------------------
E_mon(orb) frag1 frag2              -9.528    -9.246 eV
J(AB):               -0.003 eV
S(AB):             0.00012941 Eh
|J(AB,eff)|:            0.002 eV
   
  Fragment 1 LUMO   Fragment 2 SOMO 
--------------------------------------
E_mon(orb) frag1 frag2              -9.248    -9.508 eV
J(AB):               -0.002 eV
S(AB):             0.00011691 Eh
|J(AB,eff)|:            0.001 eV
   
  Fragment 1 LUMO   Fragment 2 LUMO 
--------------------------------------
E_mon(orb) frag1 frag2              -9.248    -9.246 eV
J(AB):               -0.032 eV
S(AB):             0.00124132 Eh
|J(AB,eff)|:            0.020 eV
   
..............................................................................
:  total |J(AB,eff)| for hole transport (occ. MOs) :               0.003 eV  :
:  total |J(AB,eff)| for charge transport (unocc. MOs) :           0.020 eV  :
:  total |J(AB,eff)| for charge transfer (CT) :                    0.002 eV  :
..............................................................................
  
 Please remember, DIPRO is not available for restart!
   
normal termination of dipro
----------------------------------------------------------
 * finished run on 2025/03/10 at 11:04:43.850     
----------------------------------------------------------
 dipro:
 * wall-time:     0 d,  0 h,  0 min,  1.764 sec
 *  cpu-time:     0 d,  0 h,  0 min,  6.192 sec
 * ratio c/w:     3.510 speedup
Reorganization energy (electron): 0.06234050693591312 eV
Reorganization energy (hole): 0.04769125086155226 eV
Electron Transfer integral J: 0.02 eV
Hole Transfer integral J: 0.003 eV
