134
 energy: -186.454679034522 gnorm: 0.087131749222 xtb: 6.7.1 (edcfbbe)
C           -2.98360000000000        2.04370000000000        1.46760000000000
C           -2.89280000000000        0.65710000000000        1.41200000000000
C           -1.60590000000000        0.09410000000000        1.27130000000000
C           -0.44120000000000        0.88990000000000        1.17260000000000
C           -0.61420000000000        2.28290000000000        1.22160000000000
C           -1.86350000000000        2.86600000000000        1.35160000000000
C           -1.48440000000000       -1.29130000000000        1.17320000000000
C           -0.23230000000000       -1.85260000000000        0.97880000000000
C            0.89400000000000       -0.99590000000000        0.88790000000000
N            0.79410000000000        0.35440000000000        0.98930000000000
C           -2.61260000000000       -2.11160000000000        1.17570000000000
C           -2.44360000000000       -3.50300000000000        0.99340000000000
N           -1.21960000000000       -4.07260000000000        0.83690000000000
C           -0.13370000000000       -3.25690000000000        0.81310000000000
C            1.14050000000000       -3.77640000000000        0.54750000000000
C            2.26700000000000       -2.96930000000000        0.44140000000000
C            2.13150000000000       -1.59780000000000        0.62250000000000
C           -3.88860000000000       -1.51800000000000        1.28940000000000
C           -4.99860000000000       -2.35200000000000        1.20020000000000
C           -4.87610000000000       -3.72850000000000        1.00750000000000
C           -3.61000000000000       -4.28200000000000        0.92020000000000
C           -2.05440000000000        4.39080000000000        1.35660000000000
C           -6.10620000000000       -4.63290000000000        0.82940000000000
C            3.60130000000000       -3.57120000000000       -0.02710000000000
C           -7.42130000000000       -3.84550000000000        0.98550000000000
C           -6.08980000000000       -5.75240000000000        1.88450000000000
C           -6.07300000000000       -5.25210000000000       -0.57960000000000
C            3.58090000000000       -3.66840000000000       -1.56170000000000
C            4.79180000000000       -2.69170000000000        0.40350000000000
C            3.80270000000000       -4.97880000000000        0.56490000000000
C           -2.53030000000000        4.83230000000000        2.75090000000000
C           -0.74860000000000        5.13380000000000        1.01330000000000
C           -3.10820000000000        4.78200000000000        0.30210000000000
H            0.26610000000000        2.88970000000000        1.13400000000000
H           -3.95990000000000        2.47460000000000        1.58240000000000
H            2.98200000000000       -0.94960000000000        0.53370000000000
H            1.21400000000000       -4.83430000000000        0.38370000000000
H           -3.49470000000000       -5.33710000000000        0.75710000000000
H           -5.96530000000000       -1.89210000000000        1.26990000000000
H           -4.08370000000000        4.35710000000000        0.53310000000000
H           -3.22440000000000        5.86430000000000        0.25090000000000
H           -2.81300000000000        4.42830000000000       -0.68550000000000
H           -0.91230000000000        6.21080000000000        0.98790000000000
H           -0.37440000000000        4.83280000000000        0.03540000000000
H            0.02600000000000        4.94010000000000        1.75160000000000
H           -1.80630000000000        4.55050000000000        3.51430000000000
H           -2.66520000000000        5.91270000000000        2.79440000000000
H           -3.48050000000000        4.36470000000000        3.00650000000000
H            3.44800000000000       -2.68390000000000       -2.00930000000000
H            2.76080000000000       -4.30160000000000       -1.89900000000000
H            4.51190000000000       -4.09010000000000       -1.93960000000000
H            3.06600000000000       -5.68520000000000        0.18620000000000
H            4.78550000000000       -5.37170000000000        0.30710000000000
H            3.72060000000000       -4.95290000000000        1.64880000000000
H            4.78980000000000       -1.73490000000000       -0.11670000000000
H            5.73880000000000       -3.18010000000000        0.17600000000000
H            4.76230000000000       -2.49670000000000        1.47340000000000
H           -6.07010000000000       -4.47340000000000       -1.34180000000000
H           -5.18230000000000       -5.86240000000000       -0.72210000000000
H           -6.94270000000000       -5.88670000000000       -0.74790000000000
H           -6.95160000000000       -6.40910000000000        1.76810000000000
H           -6.12440000000000       -5.33190000000000        2.88830000000000
H           -5.19350000000000       -6.36520000000000        1.80210000000000
H           -7.48820000000000       -3.38640000000000        1.97150000000000
H           -7.50290000000000       -3.06310000000000        0.23170000000000
H           -8.28170000000000       -4.50420000000000        0.86940000000000
O           -4.03150000000000       -0.14300000000000        1.45430000000000
C            1.02920000000000        1.70190000000000        4.27470000000000
C            0.78380000000000        0.33310000000000        4.27830000000000
C            1.89110000000000       -0.52970000000000        4.12560000000000
C            3.21020000000000       -0.04640000000000        3.97170000000000
C            3.37790000000000        1.34710000000000        3.96740000000000
C            2.31670000000000        2.22020000000000        4.13410000000000
C            1.68190000000000       -1.90710000000000        4.15550000000000
C            2.76660000000000       -2.76510000000000        4.06700000000000
C            4.06550000000000       -2.21220000000000        3.94090000000000
N            4.28360000000000       -0.87400000000000        3.86940000000000
C            0.40270000000000       -2.43200000000000        4.32740000000000
C            0.24800000000000       -3.83480000000000        4.39070000000000
N            1.29940000000000       -4.69080000000000        4.29540000000000
C            2.54130000000000       -4.16200000000000        4.15020000000000
C            3.66880000000000       -4.99350000000000        4.10070000000000
C            4.95710000000000       -4.48880000000000        3.96690000000000
C            5.13850000000000       -3.11330000000000        3.90370000000000
C           -0.68570000000000       -1.54550000000000        4.47770000000000
C           -1.94310000000000       -2.10070000000000        4.68850000000000
C           -2.14010000000000       -3.47970000000000        4.76120000000000
C           -1.04980000000000       -4.32070000000000        4.61160000000000
C            2.58760000000000        3.73170000000000        4.15890000000000
C           -3.51440000000000       -4.05190000000000        5.13910000000000
C            6.18590000000000       -5.41100000000000        3.93790000000000
C           -4.64910000000000       -3.14460000000000        4.62620000000000
C           -3.60080000000000       -4.15030000000000        6.67090000000000
C           -3.70840000000000       -5.45380000000000        4.52950000000000
C            7.11030000000000       -5.02290000000000        2.76730000000000
C            6.94800000000000       -5.26360000000000        5.26560000000000
C            5.78410000000000       -6.88790000000000        3.75630000000000
C            1.32300000000000        4.52890000000000        4.52960000000000
C            3.67060000000000        4.04640000000000        5.20890000000000
C            3.06910000000000        4.17750000000000        2.76770000000000
H            4.37390000000000        1.72810000000000        3.84160000000000
H            0.18350000000000        2.35180000000000        4.38990000000000
H            6.12870000000000       -2.70380000000000        3.83620000000000
H            3.50150000000000       -6.05090000000000        4.17430000000000
H           -1.16700000000000       -5.38420000000000        4.69130000000000
H           -2.76450000000000       -1.42260000000000        4.81620000000000
H            2.32530000000000        3.94110000000000        2.00810000000000
H            3.25080000000000        5.25160000000000        2.74200000000000
H            3.99510000000000        3.67340000000000        2.49320000000000
H            3.84730000000000        5.11960000000000        5.27590000000000
H            4.61840000000000        3.57090000000000        4.96160000000000
H            3.36520000000000        3.69320000000000        6.19360000000000
H            0.95380000000000        4.23980000000000        5.51340000000000
H            1.53110000000000        5.59830000000000        4.55360000000000
H            0.52960000000000        4.36460000000000        3.80400000000000
H            7.49690000000000       -4.01120000000000        2.87810000000000
H            6.57730000000000       -5.07710000000000        1.81960000000000
H            7.96560000000000       -5.69550000000000        2.70900000000000
H            5.19500000000000       -7.02380000000000        2.84970000000000
H            6.66700000000000       -7.52150000000000        3.67620000000000
H            5.20250000000000       -7.24690000000000        4.60460000000000
H            7.28020000000000       -4.23670000000000        5.41380000000000
H            7.82640000000000       -5.90810000000000        5.28600000000000
H            6.31060000000000       -5.53300000000000        6.10720000000000
H           -3.53830000000000       -5.43210000000000        3.45400000000000
H           -3.02600000000000       -6.18010000000000        4.96790000000000
H           -4.71930000000000       -5.81810000000000        4.70930000000000
H           -4.56380000000000       -4.55280000000000        6.98380000000000
H           -3.47850000000000       -3.16910000000000        7.12880000000000
H           -2.81840000000000       -4.80020000000000        7.06170000000000
H           -4.65680000000000       -2.18300000000000        5.13680000000000
H           -4.53940000000000       -2.96240000000000        3.55970000000000
H           -5.62240000000000       -3.60560000000000        4.79180000000000
O           -0.50340000000000       -0.16650000000000        4.44790000000000
134
 energy: -186.462656253676 gnorm: 0.039123702221 xtb: 6.7.1 (edcfbbe)
C           -2.99449360668699        2.03446935752509        1.46602171375280
C           -2.89009562240761        0.65463873391342        1.41110720408201
C           -1.60917860078876        0.09607897533803        1.27587714388719
C           -0.44011167873155        0.88954790415622        1.17934560530357
C           -0.60966174732991        2.28529585445402        1.22429318964209
C           -1.86212005714194        2.85916357310871        1.35155339361965
C           -1.48047169310792       -1.29358858572994        1.17960713545880
C           -0.22896125831978       -1.85548905640993        0.98782862923085
C            0.89430567327805       -0.99339266465062        0.89731145430758
N            0.78460663864786        0.34576438585407        1.00440563373188
C           -2.61572298571230       -2.11159978792927        1.18005829963559
C           -2.44308611978064       -3.50538774509428        0.99470631653457
N           -1.22091896757420       -4.06164824749537        0.84040256288591
C           -0.13683143944108       -3.26098310532994        0.81790016731278
C            1.14066162871210       -3.78455893214477        0.54180085958812
C            2.26488675256724       -2.96784341523095        0.42635619209776
C            2.13841071920421       -1.59359270333928        0.62274086156932
C           -3.88232952469055       -1.51714957896112        1.28761945457729
C           -4.99787585814973       -2.33514113348760        1.19455696019419
C           -4.87264197206583       -3.72056396808152        0.99764994455488
C           -3.61054433039325       -4.28665378245356        0.91650753246106
C           -2.05303699822557        4.37853023679838        1.35501539952803
C           -6.10199070401217       -4.61921399414904        0.83000187475068
C            3.59914824659064       -3.56935852513543       -0.02110160906588
C           -7.41697938918171       -3.84432431640338        0.98429867002968
C           -6.08757904492391       -5.74076889493208        1.87836994822886
C           -6.06616974377385       -5.24062103367926       -0.57474695209470
C            3.57047246585156       -3.66350941461473       -1.55412270845595
C            4.78808142569097       -2.69417756646883        0.40041074146268
C            3.79875056982384       -4.97501722551024        0.56252386130299
C           -2.53031277951047        4.82016440074900        2.74614809700214
C           -0.75693811011731        5.12767050809613        1.01498028091806
C           -3.10485138891489        4.77112168058171        0.30495470384915
H            0.27616934941516        2.88716893745795        1.13276870291168
H           -3.97592602101263        2.46444211910013        1.58016422585540
H            2.98822434893796       -0.93911145533539        0.53841448369867
H            1.20988042970877       -4.84667113114283        0.38419768820216
H           -3.49075501228038       -5.34488003699805        0.75524031145636
H           -5.96512728598214       -1.86994138438375        1.26954750370347
H           -4.08107459174164        4.35237872202629        0.53536757673273
H           -3.20921485996208        5.85415746174457        0.26427714666721
H           -2.80596163068707        4.41998019313390       -0.68098741358577
H           -0.94186670790678        6.20038612841788        0.99220472570455
H           -0.38394256149322        4.82992936897051        0.03685788685622
H            0.01624555528624        4.94447572951189        1.75630672026910
H           -1.80413667585848        4.54275587281385        3.50773213144992
H           -2.66101633412011        5.90057752192885        2.77814645272624
H           -3.48035035034944        4.35544149349938        3.00079074234812
H            3.44131319792292       -2.67846584395480       -1.99939643823701
H            2.75225617097384       -4.29861754966748       -1.88929039700993
H            4.50454295081931       -4.08552456669435       -1.92120015879992
H            3.06895007991149       -5.68159977795876        0.17536148989575
H            4.78517111930400       -5.35200273307582        0.29753850003972
H            3.71571526810360       -4.95115030740269        1.64618826350533
H            4.79148047265985       -1.74360168129590       -0.12799023971196
H            5.72455399718994       -3.19774398771146        0.16826182450349
H            4.76232530175859       -2.49880631758803        1.46925762177457
H           -6.06648721268797       -4.46322684423116       -1.33654765676933
H           -5.17804199585683       -5.85245937895985       -0.71437613345825
H           -6.93923625273550       -5.87240319796496       -0.73019034541259
H           -6.95223162462170       -6.39009462206650        1.74948152377658
H           -6.12518586117471       -5.32009224655340        2.87990449375191
H           -5.19422237320197       -6.35441061606046        1.79621395698477
H           -7.48711426044135       -3.39052477240929        1.97112011092927
H           -7.50485851509302       -3.06802502694114        0.22691129545426
H           -8.26221167489047       -4.52024751269758        0.86655343818914
O           -4.01418237962546       -0.15024678349234        1.45085495981336
C            1.01606696628384        1.69468802835589        4.27283465618546
C            0.78608869543730        0.32902929200376        4.26674645023898
C            1.88888268392009       -0.52547768456857        4.11960474228047
C            3.21247697792729       -0.04358109459258        3.97117526040084
C            3.38232093494624        1.35136115141750        3.96473748168381
C            2.31230682847364        2.21441560208760        4.13153918402745
C            1.68451462209993       -1.90818893185066        4.14719820765369
C            2.76894535434451       -2.76573879241875        4.06321450696181
C            4.06674570224026       -2.20655578476845        3.94332363630703
N            4.27324148157775       -0.87618764084494        3.87569652198363
C            0.39895041982297       -2.43001879151430        4.31996319711422
C            0.24739599787758       -3.83608114359056        4.38892666133011
N            1.30053335099573       -4.67755241249915        4.29339501148109
C            2.53659695269449       -4.16175664700298        4.14876409190641
C            3.66728904170744       -5.00108609332440        4.09965543675498
C            4.95812997334567       -4.48979053545063        3.97515069586527
C            5.14730494946698       -3.11008539272005        3.90986842249044
C           -0.68185075619046       -1.54692022556825        4.46717261392408
C           -1.93829297871956       -2.08673908185786        4.68933580008847
C           -2.13144099194154       -3.47577282517945        4.77454095282223
C           -1.05022797268143       -4.32577280496303        4.61646039167153
C            2.57920864991717        3.72129975459947        4.16094773563896
C           -3.50592651992019       -4.04533461835462        5.13370991646319
C            6.17972061514749       -5.41071084399837        3.93691102478453
C           -4.64314493193053       -3.14553359244093        4.63000449687405
C           -3.58850029252631       -4.14377195236077        6.66411442045066
C           -3.70094761683265       -5.44483613650266        4.53314459381227
C            7.10341611477586       -5.02179896593899        2.77216003104984
C            6.93900698411989       -5.25872695198476        5.26264552652613
C            5.78532481036190       -6.88307790691907        3.75780362105328
C            1.32607695667455        4.52531117873648        4.52906805055634
C            3.66247199614303        4.03672052575017        5.20531679342481
C            3.06451170053295        4.16604956574313        2.77350920839763
H            4.38297650065385        1.72978792209003        3.84243030781164
H            0.16461766685343        2.34131649199898        4.39214550658353
H            6.13871473303569       -2.69468954054070        3.84010448498095
H            3.49240185117842       -6.06000382026440        4.17297897846241
H           -1.16439941939004       -5.39238004645456        4.68790641464135
H           -2.76114571532179       -1.40386499597033        4.81446822701137
H            2.32163959368790        3.92972099085923        2.01475323381955
H            3.24309285299561        5.24034788977773        2.75831439643455
H            3.99009183435557        3.66351504504405        2.50268004631374
H            3.82914174206256        5.11129903211391        5.26243545835909
H            4.60991230638990        3.56572951416399        4.95676922595741
H            3.35604915647322        3.68601098857688        6.18907927982587
H            0.95953471475817        4.24005208597630        5.51360727379256
H            1.55532967524978        5.58952106714435        4.54989456759849
H            0.53488775602356        4.36973402231073        3.80015498757579
H            7.49275777796291       -4.01321302122323        2.88364048808009
H            6.56769407344738       -5.07852975077862        1.82774237367037
H            7.95244316345952       -5.70164888803151        2.72456181818839
H            5.19833476357291       -7.01897606267257        2.85136026231045
H            6.67898772414176       -7.49926881907840        3.67684985977658
H            5.21263618741261       -7.24546589572702        4.60882927989447
H            7.27138179259706       -4.23288884863225        5.40818469654233
H            7.81438893635638       -5.90583409414792        5.27299934935543
H            6.30136756206222       -5.53177479771393        6.10167443380984
H           -3.52916204318460       -5.42083748024694        3.45958392037694
H           -3.02673094400124       -6.17173751351091        4.97867471077709
H           -4.71550248531337       -5.79366685498421        4.71736287207823
H           -4.55415287904871       -4.54766204579769        6.96431542384541
H           -3.47037703738374       -3.16299308699762        7.12149811468076
H           -2.80838775808205       -4.79638858765681        7.05172351924431
H           -4.65985934276707       -2.18957228152417        5.14804296751575
H           -4.53786865914623       -2.96435754684802        3.56381584195013
H           -5.60621550748133       -3.62295664233726        4.80322209053886
O           -0.48998183335546       -0.17801038375908        4.42868868989363
134
 energy: -186.464884581783 gnorm: 0.007073906590 xtb: 6.7.1 (edcfbbe)
C           -3.00171042328594        2.02546537947082        1.46523023010598
C           -2.88763854442044        0.65073480894165        1.41209677731993
C           -1.60919683379752        0.09484279236785        1.28402404761330
C           -0.43640579940335        0.88620158457636        1.19050408112445
C           -0.60674559864020        2.28405634753373        1.23013381511051
C           -1.86042158056771        2.84951767530967        1.35210954272115
C           -1.47367588856814       -1.29724617014261        1.18969507305330
C           -0.22345210418661       -1.85939324314956        1.00066237351443
C            0.89698565652488       -0.99202736089793        0.91115777205042
N            0.78012412575180        0.33728735758294        1.02242067783841
C           -2.61566402565092       -2.11125165207682        1.18591583080467
C           -2.44060257035025       -3.50676944114522        0.99707854470522
N           -1.22096255339785       -4.05373928019730        0.84333648888181
C           -0.13882130733403       -3.26581191160050        0.82383281798372
C            1.14214503034651       -3.79067372291819        0.54600550741888
C            2.26348689372199       -2.96776212724308        0.43274537625248
C            2.14507805421198       -1.59300734679804        0.63440778312584
C           -3.87648219520203       -1.51458282963067        1.28626873498496
C           -4.99676997102746       -2.32086673496436        1.19217022567121
C           -4.86783256083812       -3.71130856693777        0.99665147898318
C           -3.61090030854970       -4.28629276248485        0.91683833432199
C           -2.05528264639211        4.36336933297773        1.35460520236496
C           -6.09526319811973       -4.60378860180183        0.82744925436671
C            3.59140504698488       -3.56665346681744       -0.01865595396181
C           -7.41193209604180       -3.83890161323732        0.98078522851744
C           -6.08417647273837       -5.72600232410461        1.87300244900259
C           -6.05953304334903       -5.22545686718657       -0.57613916737217
C            3.55863426851584       -3.65872127460052       -1.55212801414695
C            4.78477421053897       -2.69960656155862        0.39451620307867
C            3.79608482292122       -4.97166730261276        0.55717823948725
C           -2.53360033764674        4.80427653920846        2.74458063819185
C           -0.76794529729572        5.12178026930088        1.01679211056701
C           -3.10456806833387        4.75713970943731        0.30533034211806
H            0.28272344986306        2.88135038204307        1.13607590515045
H           -3.98470216162881        2.45606906036901        1.57475205268450
H            2.99299596421532       -0.93444431889591        0.55130527867479
H            1.20697513306191       -4.85374645206784        0.38708325199217
H           -3.48848929820467       -5.34528842672620        0.75521046173141
H           -5.96413993105546       -1.85336125565341        1.26357458288742
H           -4.08150390113798        4.34271634833458        0.53391545294214
H           -3.20100209303578        5.84061559016704        0.27070660725965
H           -2.80327015506683        4.40744222936888       -0.67945783257385
H           -0.97179475638420        6.19080477116760        0.99402469590752
H           -0.39134711602855        4.82816257613403        0.03979915201432
H            0.00526534753254        4.95108480310203        1.76020561941786
H           -1.80575711748799        4.53002488892815        3.50483659919720
H           -2.66288652199528        5.88455230314865        2.76914952208988
H           -3.48242139234248        4.33977071411584        2.99865880793741
H            3.42906144748802       -2.67255327247628       -1.99248612098125
H            2.73935011897268       -4.29280390251260       -1.88306501373686
H            4.49282258877511       -4.08045182438215       -1.91831792623614
H            3.07414110850196       -5.67999238044863        0.16183746219500
H            4.78634294738319       -5.33534543359310        0.28879266600560
H            3.71079612798999       -4.95474492155851        1.64064890916087
H            4.79483078785781       -1.75401168455214       -0.14046364040859
H            5.71289776994737       -3.21621341393635        0.15862361802353
H            4.76657330982800       -2.50018563517372        1.46223667012610
H           -6.06030020393653       -4.44886716045591       -1.33754934983038
H           -5.17267196312751       -5.83740158368896       -0.71275536519114
H           -6.93433817871500       -5.85559898028819       -0.72490687562849
H           -6.95077938084087       -6.36935924785143        1.73247895574796
H           -6.12677765529805       -5.30710036834666        2.87396355775318
H           -5.19310336484174       -6.34079112489901        1.79281494486436
H           -7.48781819054191       -3.38795760347493        1.96744416381839
H           -7.50898800228285       -3.06612421545661        0.22240514853646
H           -8.24547312071943       -4.52862706202501        0.86256262438872
O           -4.00204920662285       -0.15492026761620        1.44819125198298
C            1.00425196963479        1.68898939824549        4.26731980716379
C            0.78544271400998        0.32487230029945        4.25109883425631
C            1.88658607917243       -0.52419415959519        4.10865787901224
C            3.21440383183582       -0.04352757975033        3.96870834357647
C            3.38243164779976        1.35265949664295        3.96373546302291
C            2.30672531889593        2.20667419153277        4.13012259733829
C            1.68802902189724       -1.91073180858041        4.13432836677125
C            2.77201529454245       -2.76740023637129        4.05695362425604
C            4.06890565390354       -2.20167153333840        3.94556570131443
N            4.26634299288202       -0.87865509479755        3.88243202992930
C            0.39756261910767       -2.42819290113810        4.30796065590831
C            0.24908637031047       -3.83659727414984        4.38469370436589
N            1.30243598009003       -4.66768900433745        4.29045954852567
C            2.53254650947156       -4.16264468652729        4.14502601758785
C            3.66602747243247       -5.00592516343360        4.09536245694061
C            4.95542432438446       -4.48870277851709        3.97635836111203
C            5.15257910673717       -3.10813726542727        3.91488197534833
C           -0.67877048699221       -1.54641587497859        4.45349840584487
C           -1.93511284251260       -2.07516986906180        4.68113997230357
C           -2.12411024144317       -3.47031637216239        4.76957910306683
C           -1.05007946859142       -4.32600023070756        4.61297230328620
C            2.57161117031248        3.70890915876818        4.16197176819468
C           -3.49338038802261       -4.03586895638660        5.13319279252973
C            6.17290905835898       -5.40656405398166        3.93947615032517
C           -4.63525585315638       -3.14380009916970        4.63640162389748
C           -3.57252606728954       -4.13426306772745        6.66409133390204
C           -3.69261740034482       -5.43355333270660        4.53749560683010
C            7.09653827094845       -5.02136058988767        2.77651874748837
C            6.93141103916975       -5.25328272352247        5.26469149237221
C            5.78952192256456       -6.87826961334015        3.76127813758140
C            1.32685638179242        4.51960791357502        4.52834614473271
C            3.65336496630972        4.02563863305933        5.20510794415859
C            3.05895502585774        4.15200908280748        2.77573796263724
H            4.38530151356389        1.72899608737323        3.84489642618228
H            0.15102231259718        2.33419914598854        4.38966491844062
H            6.14398066292427       -2.68890315285451        3.84969056394063
H            3.48536797132326       -6.06485035394801        4.16730069246801
H           -1.16053490995665       -5.39351944873435        4.68396798696178
H           -2.75884367037385       -1.39197281130249        4.80855207180417
H            2.31747308555622        3.91438743379192        2.01711898367369
H            3.23490420882194        5.22628417541592        2.76613114765484
H            3.98453223901228        3.65018446072933        2.50914069401975
H            3.81248294787946        5.10115095645433        5.25603761859514
H            4.60101325254780        3.55855215082865        4.95647800480342
H            3.34680788421163        3.67614404007113        6.18834720238188
H            0.95861417238415        4.23989791247960        5.51277457616955