116
 energy: -22.928061455056 gnorm: 0.329736929581 xtb: 6.6.1 (8d0f1dd)
C           -3.31122850772930        0.79849766164622       -0.92477639677520
C           -2.44380812530352       -0.12270372891954       -0.27661132624697
C           -1.41337090092821        0.39579727573559        0.56335275196199
C           -0.89266158675590        1.65801491088749        0.27377586709581
C           -1.72665675402493        2.51431363229076       -0.49448366572522
C           -2.95444148494349        2.13954154133227       -1.01494489940871
C           -0.74098268209890       -0.43411532818871        1.49825021926784
C            0.56872586496315        0.03782116815119        1.86248088067890
C            1.03782416582094        1.29402317993033        1.50887470833621
N            0.31238977034758        2.07067427098208        0.65193736800696
C           -1.29695700510141       -1.39996043042223        2.41574187746061
C           -0.38243517664656       -2.18060797534842        3.13232615520648
N            0.91308504082021       -1.90366887689689        3.30325166013478
C            1.37712470144904       -0.74872102533751        2.81811050966982
C            2.52149331701875       -0.17739833758153        3.39379298866852
C            2.95849061756259        1.02681208890480        2.95105897606587
C            2.24288949469137        1.78498308775960        2.03503020483770
C           -2.74860936222260       -1.74497937691422        2.38401158947411
C           -3.09416315450955       -2.91614440870436        3.00571134491758
C           -2.16786021984049       -3.77788778654213        3.63251872101904
C           -0.85708937311598       -3.40495313382985        3.68547234358092
O           -3.71994433332149       -0.94984598373544        1.67726658385724
O           -2.55702603277562       -1.47241711578389       -0.57241635275616
C           -3.84297843593025        3.13357444054366       -1.60938954875544
C           -2.68769581069131       -5.03867041417370        4.30484659386931
H           -1.39666850744143        3.51251503834900       -0.76806311868865
H           -4.27662633836220        0.55105838579656       -1.33106614114542
H            2.66329581305412        2.73912661909249        1.72562431984580
H            3.05775395548473       -0.69369546277216        4.16536137542516
H           -0.24710966264510       -4.12034095424229        4.22946223699121
H           -4.11477991332403       -3.04712728052358        3.03244694615357
O           -4.21824883374556        4.03433712717988       -0.87713382485991
O           -4.44510595673734        2.90643496899600       -2.81853501752979
C           -5.44216520282800        3.83300025693726       -3.02488532025093
C            4.23586651889298        1.50004220933226        3.59165660008449
O            5.05927614697201        0.66079890002952        3.91714215179376
O            4.47001334453535        2.86385149488593        3.72605651435371
C            5.79457498613219        3.08584475587818        4.15829123132174
O           -3.82227255313510       -5.27347675879771        4.16636005494405
O           -1.85023202017753       -5.79767454267276        5.06656077253571
C           -2.55119635829503       -6.86252441382958        5.62930343183426
C           -5.07197156564436       -1.42399175670916        1.58830531863830
C           -1.33089900128490       -2.23622472573986       -0.99264499351172
H           -2.54510546830388       -7.76426885143998        4.99136022291012
H           -3.57194749219491       -6.44405511486021        5.74196173723541
H           -2.09133598235598       -7.02043774843818        6.64022264233588
H            5.72707967266424        3.46798026205549        5.10135971236643
H            6.34060091246885        3.78468702308830        3.50069950143490
H            6.17933064298187        2.03010500085905        4.19342358084693
H           -0.91862729772622       -2.57650129080332       -0.01361370304871
H           -0.49769766914251       -1.60651221708571       -1.34094446550576
H           -1.52632419730509       -2.94569707152159       -1.75361447637286
H           -5.11788846557077       -2.41810833635233        1.17520213188926
H           -5.67929807973498       -0.69619639428435        1.04301666067831
H           -5.57598832326623       -1.42383358739762        2.57928294206544
H           -6.13050215934830        3.76035386975488       -2.23272855695873
H           -5.86615610071888        3.45938329385866       -4.02668959924245
H           -5.13479557532099        4.87790991548477       -2.98314551356402
C           -1.38192942069774        3.73616555005018        2.91232598411686
C           -1.84821468128685        2.59982427735607        3.49755545445181
C           -1.05946531454833        2.05730632010638        4.60922730982276
C            0.19893954712228        2.69376791964407        4.86302140881997
C            0.50425395911860        3.94630308659851        4.28768785650746
C           -0.26031777722226        4.46998310053134        3.25072669343212
C           -1.20488993561782        0.74454293276906        5.14851520323437
C           -0.06287609782692        0.02744069315890        5.60930570802864
C            1.19208754369866        0.71421540266195        5.78882868583885
N            1.19428660993148        2.06344359410476        5.62744624321596
C           -2.41361422770794        0.07928500213936        5.25249410304426
C           -2.45851584031083       -1.32662100968547        5.60237876023992
N           -1.29466212405906       -1.98318595734370        5.89916817085159
C           -0.14475655767527       -1.32117560077092        5.98824682881008
C            0.97209270935794       -1.98958449505532        6.53157704134458
C            2.21982707914082       -1.36973967291181        6.68703967237737
C            2.30561929262884       -0.09745313075593        6.26436900324455
C           -3.73018485967715        0.71367583494582        5.25810242262992
C           -4.89964478833448       -0.06184623426677        5.21204641615509
C           -4.82617965800088       -1.39228978090841        5.46901303780036
C           -3.67144193418464       -1.98914944386360        5.67265433266067
O           -3.75568638935321        2.07705011038914        5.52067969627343
O           -2.94192434743730        1.91263938797883        3.01658762327703
C            0.21273512614467        5.50086066357994        2.34765104514621
C           -6.06660304520411       -2.17604633098929        5.80641622556876
H            1.41756699010566        4.38133362238595        4.66974005703471
H           -1.82880610647429        4.11982501512100        2.06992133318584
H            3.26888037378556        0.32655662585251        6.31721410015598
H            0.87146188387207       -3.08471526305024        6.57830423410869
H           -3.67716811065157       -3.05999292755990        5.83019634570050
H           -5.77379677507622        0.43595144608221        4.71017130754348
O            1.34459852619901        5.82615848916894        2.44941456579099
O           -0.74718748219123        6.07961784856304        1.59848183464284
C           -0.21473095568964        7.24015934882472        1.05753806029483
C            3.53228080814219       -2.00967610361154        7.02506769044485
O            3.64093082622715       -3.14437803815732        7.50071391725347
O            4.56565258381079       -1.22937033368332        6.69086985080897
C            5.72579357310716       -1.80692399125161        7.22246151275881
O           -7.04801223588612       -1.95726935745904        5.14194115322235
O           -6.01514389321278       -2.93743591896022        6.94765316328794
C           -7.21292732384718       -3.62681918543340        7.15115816329978
C           -4.95459780685163        2.65960679932188        5.86868674392943
C           -3.68284113682406        2.59129188358641        2.05479246020704
H           -7.43119628931628       -4.22607794725959        6.20622607140901
H           -8.06548455146707       -2.91765848248592        7.29781126410398
H           -7.07314693247270       -4.33087306029711        7.91223421050944
H            6.57332189837178       -1.29353136199234        6.78341268688262
H            5.74663761932316       -2.84282155125561        6.88089468184451
H            5.69426191474290       -1.72781984964892        8.29460302186842
H           -4.10481209541493        3.44288266176275        2.60483747673152
H           -4.49244774344916        1.87419893016926        1.82433103764650
H           -3.18901540870812        2.85154642679373        1.06781919454921
H           -5.55414326821421        2.76698137191684        4.93950725322359
H           -4.78658370641210        3.62090640967288        6.25983200635257
H           -5.43485580473958        1.97242995129449        6.65265772412460
H            0.89164886030839        7.38838561720231        1.13776105146914
H           -0.62894889903848        8.04195665205089        1.64837664327952
H           -0.59282546386754        7.45699159724320        0.03719083132488
116
 energy: -22.773326405865 gnorm: 0.427460005017 xtb: 6.6.1 (8d0f1dd)
C           -2.77099122552367       -0.06248417844589       -1.70715889775025
C           -1.81331292012486       -0.93405399178887       -1.09359475181641
C           -0.98827166239928       -0.19680620665495       -0.12571729025142
C           -0.64565320024336        1.21370768608812       -0.24264572140905
C           -1.55690767388512        1.94481238035664       -1.05620242797460
C           -2.57926456900937        1.34134243765939       -1.69344546152717
C           -0.28382786140163       -0.99077401598783        0.92697817036050
C            0.83932935534075       -0.24270418738603        1.41773750043331
C            1.13250194587872        1.14570647367753        1.26096940196865
N            0.32122477257687        1.89446828753513        0.50624295826997
C           -0.92574114266316       -1.94467973116167        1.77198183471893
C           -0.00946144820093       -2.63475857283666        2.63448208658890
N            1.19946549492052       -2.13766955228498        2.96419419715739
C            1.47477522072169       -0.88035493884440        2.54380600292502
C            2.54742142492124       -0.25806992445775        3.22582333561225
C            2.96326978339962        0.99203806384261        2.73269075071474
C            2.18040052924237        1.73457656805996        1.90619888297151
C           -2.31940658021889       -2.27018724141891        1.80396999633186
C           -2.77001253650914       -3.36101778633362        2.55777806285976
C           -1.80102180211184       -4.15982721259331        3.18350940462216
C           -0.41974773650017       -3.85857140845811        3.19325795439359
O           -3.23635252221802       -1.33020445251122        1.26818674092214
O           -1.77245694621583       -2.31919675395419       -1.37042305412056
C           -3.67352436959364        2.19854111174250       -1.93370296732001
C           -2.32791264696718       -5.24242579104792        3.97123462842603
H           -1.66140097400835        3.07555264861866       -1.12051250309187
H           -3.59268408792965       -0.39750617267143       -2.37900840759597
H            2.42940290514835        2.76533455473224        1.69528013806862
H            3.02761771533502       -0.83221138617329        4.02059152220724
H            0.09520134602126       -4.57873946998832        3.76297232009470
H           -3.76725296538184       -3.33229536643481        2.93352272383211
O           -3.80262336941627        2.96687861121742       -2.85688598416189
O           -4.49509030487758        2.26822745738046       -0.78567041984335
C           -5.39419554068737        3.38173014665688       -0.51235665387600
C            4.06356228362885        1.51288324723286        3.50017139890169
O            4.67116290581489        0.88529380151709        4.29741692476484
O            4.32681243321358        2.84870180376622        3.41319905897062
C            5.47232833176367        3.20810510784708        4.15558455284677
O           -3.59971320760982       -5.28559377622452        3.98708339208789
O           -1.38126826732445       -6.02879250857261        4.51458601685737
C           -1.89026478692185       -7.21551789120233        4.94413932135119
C           -4.73844547773851       -1.57645924119162        1.20784068190455
C           -0.57244935570909       -2.82516031687805       -1.55754063146696
H           -1.80553332061889       -8.04035282052764        4.11874117267346
H           -2.94475732329550       -7.02427652154881        5.10964662088107
H           -1.25910148443290       -7.55014951229137        5.77808660735953
H            4.99429863834270        3.92410759573176        4.78920477078621
H            6.24020371648535        3.60336830731972        3.54990083697663
H            5.77628294992290        2.43290497244655        4.70696422609708
H            0.13179757203708       -2.01868595653708       -1.57865658644094
H           -0.61141785420156       -3.30604668545499       -2.60645976038998
H           -0.48075602480208       -3.62060413966600       -0.71079893315166
H           -4.84136508880288       -2.65650940678379        0.96576238167060
H           -5.28674500820987       -0.78595104522707        0.61346063715111
H           -5.06054082843844       -1.28360831806842        2.16268110562471
H           -4.77864397665489        4.25530821356637       -0.85030981162639
H           -5.62944490636437        3.46454019783439        0.54240197006569
H           -6.23818475847283        3.43284092637175       -1.15310422933565
C           -1.75630966615544        4.18421215454556        3.56139286099669
C           -2.01567819219179        2.97609332758018        4.19008893753526
C           -0.98034988102597        2.49133743765215        5.04636381428459
C            0.24463203930879        3.11002580424283        5.19023578561021
C            0.35817707604367        4.27945205469926        4.46148286955112
C           -0.57132502712457        4.87952340212267        3.61893221605374
C           -1.29948831489695        1.32644764604594        5.78682046252493
C           -0.16573352281756        0.56158251546437        6.06190235921087
C            1.09399071567489        1.15440447634581        6.13529698886211
N            1.29213333945873        2.46492749574985        5.79597760331384
C           -2.58083787969955        0.74305701461078        5.95362231195082
C           -2.58086619620705       -0.59631877763875        5.93803378334145
N           -1.58149091784524       -1.34092798600889        6.33838451326185
C           -0.36723436375243       -0.74151089440031        6.39639397163836
C            0.71446193761156       -1.47639230530634        6.77688505206531
C            1.97563176740988       -0.94792630035511        6.73629073695863
C            2.21485559308297        0.37456866763203        6.53874133005966
C           -3.75236379732937        1.53051449924325        6.12922342225364
C           -4.96806178358347        0.81875062534599        6.16978043684697
C           -5.10896491306633       -0.56927272872301        6.00590517424425
C           -3.86110042367679       -1.22125005043271        5.85471577763934
O           -3.54501704639331        2.92810184119936        6.35125399884426
O           -2.94304769042129        2.07966211622409        3.59540056394243
C           -0.37711037657004        6.15138208962402        2.88340765950541
C           -6.40140816375606       -1.26409810071618        6.12705814550776
H            1.26412819599665        4.83622720655411        4.61790084100872
H           -2.48855856491513        4.70890765270919        2.89798096527567
H            3.15108852471546        0.89013426617409        6.79335547977519
H            0.66572055017232       -2.32074423274232        7.30888234745543
H           -3.81630545130063       -2.34479064369703        5.96348513523259
H           -5.87576507638065        1.44106342084962        6.32542519520376
O            0.73966338832957        6.56815074817700        2.64532809142427
O           -1.52539551325901        6.80770187367227        2.37240735571376
C           -1.20463224333454        7.68583221440188        1.28723271772343
C            2.99724530901267       -1.91776555347768        6.91449815595758
O            3.76574679462551       -1.80995777191604        7.88315938512808
O            2.86157185998275       -3.02109917710531        5.94592250843789
C            4.09839610915497       -3.76942322109380        5.91645040922519
O           -7.35594174075733       -0.64098052784277        6.59237992508161
O           -6.40241081926284       -2.56686882255947        5.72170916293150
C           -7.70995551207296       -2.98725822952990        5.49496078232317
C           -4.59619861595151        3.79688333830320        6.61943898429515
C           -2.23795003548637        1.05916269717469        2.97260982533494
H           -7.92958698678881       -4.01818642680206        5.25505723803770
H           -8.02421379312273       -2.24314078131600        4.72187059810519
H           -8.10066942282483       -2.76413466201246        6.40877799522702
H            3.98598781267574       -4.61856578415123        6.54052444672833
H            4.94152202773943       -3.14738315240126        6.23070005039523
H            4.38557784135620       -4.08805650136702        4.79201690163505
H           -1.27264766775402        0.89632827023382        3.51219118114746
H           -2.16087266323339        1.28054145513813        1.93707122549962
H           -2.73442345642089        0.08732761376210        3.02902377764579
H           -4.64654442318922        4.37584442497967        7.59097719852167
H           -5.61150473744235        3.32758469039839        6.68765537598621
H           -4.56523743426582        4.64052420509224        5.84501866158786
H           -1.28436474718665        7.21581474844530        0.22884063803110
H           -0.30042225698043        8.22242810336601        1.29424562489835
H           -2.05110040822498        8.28922340217907        1.30124086834118
116
 energy: -22.831665076720 gnorm: 0.425444687910 xtb: 6.6.1 (8d0f1dd)
C           -3.41261081129548        0.22877866396909       -0.73298172868667
C           -2.59472221551259       -0.56940026161377       -0.04493344787632
C           -1.49302009220222       -0.00684102026307        0.75466834058478
C           -1.17938485854093        1.41361213584844        0.49267606654589
C           -1.95603965534243        2.13810292504634       -0.39224825231802
C           -3.03179440941271        1.55382558098329       -0.94819499464069
C           -0.59117994158815       -0.63178128493463        1.68948753105967
C            0.61528081646884       -0.01200600013669        1.94094529630153
C            0.75212543852116        1.34312542066645        1.74407821756066
N           -0.18087475961866        2.10252252746976        1.16112351101945
C           -0.78014019609992       -1.88633430539797        2.30989257843797
C            0.39422606934692       -2.70624648958111        2.65174562747311
N            1.61424493713593       -2.18813581431219        2.60655465881754
C            1.74616763454255       -0.86495627419990        2.36864700207360
C            2.99727451547427       -0.24419805277291        2.35640207963618
C            3.08593736632974        1.09552508043323        2.35138018496755
C            1.97154444215832        1.92865157345156        1.93134894491669
C           -2.04130439137369       -2.49267903641349        2.58043302210822
C           -2.22173871982113       -3.79215820001282        3.08407659507040
C           -1.10922364585817       -4.51588458964183        3.50952663180365
C            0.11662397517310       -3.90397167156800        3.25174576251642
O           -3.04583636297350       -1.58870548604740        2.27779195551194
O           -2.86024742496366       -1.97782264533601       -0.13636626291497
C           -3.78938849747627        2.38551252615326       -2.00794588846889
C           -1.37265023832502       -5.89786308150206        4.02492265758873
H           -1.67160537205467        3.13508184516870       -0.69680460841855
H           -4.15508345892103       -0.14634835336003       -1.38901536593351
H            2.10841182935177        2.98701908390979        1.94133522094421
H            3.90940412967455       -0.79903316883121        2.64687932988042
H            1.11930498235494       -4.49112759780197        3.33247192857691
H           -3.13223368384700       -4.30980681863991        3.14152975345697
O           -4.97593261843544        2.03357759511932       -2.21845227742125
O           -3.06583792121693        3.43925654377303       -2.47191016833051
C           -3.57123222019824        4.00702450979535       -3.68584787193975
C            4.32655486867457        1.76238652551748        2.65678231805747
O            5.39904647441377        1.25658817826444        2.85664836847747
O            4.18812819121044        3.07505522652057        2.66899292611818
C            5.34387847247297        3.79364851864850        3.06861023437963
O           -2.10255922229995       -6.57972786163229        3.40348478010883
O           -0.64828026427982       -6.19929286834415        5.17436358619696
C           -0.45068385723841       -7.56079083253705        5.44785436824791
C           -4.45577648542098       -2.07692175933290        2.27797202487835
C           -1.79510509085202       -2.90321000313964       -0.34077022451181
H            0.00941918308999       -8.10924097879890        4.63846067566373
H           -1.49866048689111       -7.85947010966643        5.67946531059302
H            0.23766363070964       -7.61379228686376        6.29667926638840
H            5.09310010391516        4.66980487421321        3.71093215164918
H            5.78690071963115        4.36531260785190        2.25094202939047
H            6.04976282388052        3.13239657212775        3.62863793349237
H           -1.92627841842966       -3.61607477480758        0.44805791119208
H           -0.89230430218507       -2.31561551835004       -0.27162168034564
H           -1.84103447380013       -3.44090844559273       -1.37569065841840
H           -4.40665747185944       -2.82597002371343        1.47434653276062
H           -5.20508538722729       -1.30202889724588        2.23670829866508
H           -4.70544685039660       -2.61497964496879        3.19730890142271
H           -3.63086769234014        3.17828808715375       -4.42734745469457
H           -2.92651096936866        4.81065769989239       -4.06230821736385
H           -4.66450306998416        4.25641854629945       -3.54803685694457
C           -1.71405668661601        4.70703077515462        3.96632468168344
C           -2.04983603628798        3.39748142009227        4.18971578888852
C           -1.15043286884263        2.42234011499787        4.86392896975146
C            0.23917307960787        2.83348403491087        4.87688811774604
C            0.60565025589590        4.07686591692514        4.41040476334718
C           -0.31816002415871        5.00077789199931        3.92097982701145
C           -1.57689974036000        1.26614605369696        5.51964708716780
C           -0.51179522805384        0.39756024643211        5.61327727163113
C            0.84246824280296        0.90119583294065        5.51054058691860
N            1.20883512710310        2.15135534449973        5.27898046614744
C           -2.84576394947030        0.65293543143131        5.73126649781178
C           -2.94180938323319       -0.80779933682658        5.72832971832050
N           -1.89047413165121       -1.63362510717199        5.60782677298728
C           -0.70311842611160       -1.02250931609473        5.62153569829359
C            0.44219109637359       -1.95702174363667        5.74952732466217
C            1.76362052029175       -1.41223754534193        5.84989805331297
C            1.88310380421563       -0.04283610379549        5.72033565369081
C           -4.05800693025317        1.35735770161898        5.96040900784472
C           -5.30979277560972        0.71274296034931        5.82074595609900
C           -5.36323860991045       -0.62475234652671        5.37518321455646
C           -4.20693241827032       -1.43851383179191        5.41655347729023
O           -4.07311964569053        2.67857074976787        6.47428909429571
O           -3.23217285972223        2.84424890386193        3.65613039850458
C            0.12039269104927        6.27919205360931        3.31462513775310
C           -6.73051934020308       -1.24455559721567        5.64467933610090
H            1.69109736903086        4.37564787010705        4.40135127172397
H           -2.53310483739187        5.30278310758914        3.45764860494064
H            2.86507350246760        0.42590245736210        5.56559958157984
H            0.15128360760833       -2.96501585497698        5.61828470440946
H           -4.23330169856429       -2.56102822037474        5.41407970278861
H           -6.15232337477343        1.41353162910040        6.03446980674282
O            1.25913505775627        6.49187556023066        2.98960327955155
O           -0.94881536142959        7.17523647547228        3.36434756095397
C           -0.52339853251403        8.39340264895123        2.81006474393808
C            2.84821722046882       -2.34665814723213        6.25275561600757
O            3.66955164898841       -2.82129301616742        5.47014631580319
O            2.79250624182656       -2.53473755622673        7.65850564879727
C            3.71691182237061       -3.59257761652543        7.86040130342447
O           -7.29052592389410       -1.25192129513155        6.74511836532533
O           -7.28581034476883       -1.66213702096491        4.43744858518787
C           -8.56702404054082       -2.16527909998364        4.61486904679020
C           -4.54602090874527        2.77072314978208        7.74473150960494
C           -3.09961884391935        1.73021483538011        2.80761274343218
H           -8.79006549389892       -2.69143128821452        3.72019764387580
H           -9.17981864412125       -1.34919388929245        5.07830582439296
H           -8.56379139838510       -3.04930226513146        5.36489203060548
H            4.64546093631939       -3.64160228505482        7.18006452241890
H            3.24372727605680       -4.51850193973846        7.81660752519718
H            4.13476769138464       -3.43965931532017        8.91255904215911
H           -3.51115906775311        1.91598362699963        1.83813303923041
H           -3.74657109897176        1.03401549437701        3.26253027607316
H           -2.08304394672478        1.40056640339334        2.80933631511154
H           -4.57326230148806        3.78734047567534        8.12810937019733
H           -4.02243022759098        2.13329575514867        8.43661565221314
H           -5.57217795600016        2.38244030370856        7.88551465062073
H           -0.81790938778643        9.23510722397351        3.45659192606653
H           -1.17252156404840        8.48571746500372        1.82312609611911
H            0.44165014783926        8.34829339203323        2.44306821518916
116
 energy: -22.826741464833 gnorm: 0.411854117807 xtb: 6.6.1 (8d0f1dd)
C           -3.04894164015162        0.03226097771733       -1.06667622854795
C           -2.05732786820151       -0.58278377679742       -0.29433569714551
C           -1.18001956638501        0.30055987347805        0.38408782197471
C           -1.09463657587826        1.70259520118035        0.16725763395722
C           -1.99547644611144        2.20190027249627       -0.76299307692575
C           -2.96409012401757        1.39971716820782       -1.29325078190054
C           -0.35305622453471       -0.14674317543417        1.46552355484562
C            0.83661850244594        0.59336199743001        1.79758592157125
C            0.98413873612917        1.87458954759712        1.34020026278233
N           -0.01939373603492        2.38093911825169        0.51332046063745
C           -0.78283570162707       -1.18912995945005        2.39492123155013
C            0.32800007923591       -1.83099201880186        3.04014765536758
N            1.57880347414668       -1.22402261934277        3.16965258686261
C            1.82471450354199       -0.01824874023122        2.66878108542450
C            3.11866594185951        0.65751010150873        2.85953968972602
C            3.23429814455522        1.97817682594253        2.33170927319878
C            2.27908517697098        2.49225208404550        1.48768373098216
C           -2.10667197043774       -1.66723915234273        2.58908056733850
C           -2.20692247411246       -2.90227575581806        3.30140194102309
C           -1.13922449968823       -3.65520627692027        3.71987488979530
C            0.11600070011035       -3.16047541217272        3.67542461645731
O           -3.22815544131440       -1.14493908096667        1.82385791457331
O           -2.01023000685477       -1.95799711498783       -0.21214054684963
C           -4.04185668033684        2.00145664598558       -2.20227522066065
C           -1.40393589596197       -5.07636929773515        4.27708139213414
H           -1.91262985733933        3.26560164527919       -0.82767620513689
H           -3.82471708004850       -0.53061674689351       -1.48629807413857
H            2.43471597077304        3.58948909605492        1.32484797198823
H            3.80888682774490        0.22072600868965        3.53457364303402
H            0.91517988489951       -3.88332190502681        4.04564292971618
H           -3.24546005177036       -3.21243960219965        3.50630024749768
O           -5.10173914332697        1.45432539181870       -2.13683702946564