116
 energy: -22.911009973807 gnorm: 0.376442266873 xtb: 6.6.1 (8d0f1dd)
C            0.05597822186755        0.87767319170958       -0.81494899831871
C           -0.69979502092308        1.31165332075405        0.31952906219656
C           -0.19323695764733        1.18906515822022        1.64385781646547
C            0.82979614529588        0.20507049201256        1.85966446521028
C            1.46993584228775       -0.29226942015795        0.70923891924254
C            1.15183826594110        0.03911456124386       -0.57042277523064
C           -0.57674563936974        1.96080917664312        2.76090067134467
C           -0.15104893032181        1.64097297191142        4.02029368653825
C            0.91360688921944        0.63264397058212        4.16682113526128
N            1.45968649346703        0.03261378224400        3.07145653298175
C           -1.41642142414975        3.13296669099734        2.72418527832050
C           -2.09373244197654        3.55563200937894        3.92323775847740
N           -1.80875812118718        3.01876235214144        5.14231602209629
C           -0.75911064626951        2.24857164463175        5.19525460028047
C           -0.24488343058324        1.87049129140772        6.43063759457959
C            0.90756241187546        1.11146184595214        6.52468305003417
C            1.44194105684057        0.41336871895713        5.47188080876903
C           -1.46045681543134        4.10695116137961        1.63804773898301
C           -2.46317145834086        4.98877172741795        1.62633099626177
C           -3.23172630071537        5.30863726634096        2.73888298460817
C           -3.03647695583290        4.53815706669396        3.86348356661090
O           -0.41400549652483        4.15305579595811        0.55813779416288
O           -2.10734066944589        1.60223934477298        0.18849704276799
C            1.93323117849498       -0.54284851964204       -1.64157059372614
C           -4.23302541023268        6.40801112704342        2.71988586640166
H            2.31799863004530       -0.87346754759930        0.83650058995851
H           -0.42777131322456        0.90217151210562       -1.75774638364084
H            2.32982582069164       -0.18471452385839        5.53764754782959
H           -0.60031078940867        2.40687986865534        7.25374970985365
H           -3.63109187607346        4.64294737606262        4.78044423900948
H           -2.54482140422522        5.54964242632447        0.63705921551930
O            1.38840978588859       -1.11085450736037       -2.58382616347183
O            3.28133053153977       -0.44864651543000       -1.53366145818363
C            3.92555754307921       -0.81189180144361       -2.74080129933806
C            1.39120954603972        0.70953660747134        7.82144162767383
O            2.11151404912204       -0.21305816908149        8.05812126332052
O            0.93962563582263        1.54254417883543        8.87451881027562
C            1.32359995279999        0.94492428972816       10.09466488053015
O           -4.10050820748591        7.18855984712380        3.60554978450795
O           -5.16663765902160        6.55897032098542        1.73747811982276
C           -6.09577221578408        7.58648430297194        2.12071161929445
C            0.60833897367022        4.97286542354409        0.92231325447070
C           -2.36001201840197        2.23235609069096       -1.01642234906810
H           -6.91824056610601        7.53621719243486        1.50259348887899
H           -5.65592833547777        8.57300964139215        1.98725896526291
H           -6.36334686568032        7.38908673929993        3.12996726679447
H            1.00693341850882       -0.06102022583634        9.95996259853915
H            0.84772329911865        1.39232012753063       10.88690864676461
H            2.45641520992634        0.94638502826656       10.03898142137412
H           -3.32821512215617        2.68304198832871       -1.02415320674391
H           -2.31034916015210        1.55299274724211       -1.87583104709379
H           -1.70162036807864        3.00598245886369       -0.99744970938103
H            1.17526252595439        4.53197588366525        1.77698075171783
H            0.21454930821230        5.90851539558541        1.38833657535147
H            1.21576883610195        5.13948448551118        0.10139980042660
H            4.79337752968988       -0.20273526684360       -2.82058874850181
H            3.24893768205649       -0.58581619165248       -3.50644905984075
H            4.32700634576661       -1.86070031803307       -2.67399407067537
C            0.83977155534762       -3.49839013245536        2.13937583747977
C            0.12139264223286       -2.95760136973464        3.22865439533748
C           -1.15005246621646       -2.34746834556647        3.04657484696785
C           -1.48483150592151       -2.14997523823122        1.70265091154434
C           -0.74976761023271       -2.69512253917061        0.61226445116213
C            0.37334539904919       -3.33541742198600        0.86929717304988
C           -1.95759979898063       -1.83314723528731        4.12443895334842
C           -2.87572752252675       -0.84721655588167        3.77895633957439
C           -3.14910204179922       -0.62346693050364        2.37157591817210
N           -2.55367634111154       -1.37670435051441        1.40662531831412
C           -1.82560937356461       -2.03193731792600        5.51548149474968
C           -2.26224808630684       -1.01869241115862        6.40313262340136
N           -2.89201556889682        0.07028728332992        5.99609554060621
C           -3.31519672346633        0.12251023776331        4.71290476934250
C           -4.27811406302977        0.98883756743257        4.29841305113035
C           -4.70323304569868        1.05773601136829        2.98497659801970
C           -4.12171604808469        0.34533525004192        1.97729068578514
C           -1.57904462728368       -3.27549671056966        6.01027568446278
C           -1.38354242690913       -3.58508259945307        7.39475533681386
C           -1.71967249685709       -2.52799680254441        8.24484443524306
C           -2.25405751162827       -1.29734000614107        7.75741275817154
O           -1.47244927306295       -4.27614537117696        5.00680522784364
O            0.68932061941679       -2.81703384667852        4.50055552341529
C            1.05166650751772       -4.05732377922289       -0.27198932339901
C           -1.48204779952498       -2.65520966322190        9.71775356967930
H           -1.09004459120968       -2.58053742572328       -0.39043752425686
H            1.77470659592908       -4.05420409614353        2.24089215895765
H           -4.40767246451882        0.61028573736928        0.92857084460610
H           -4.79634302567715        1.57051855677345        5.04197905532495
H           -2.45831082982986       -0.46264396334662        8.46965062554287
H           -0.81906430722720       -4.39093826983491        7.75146799908149
O            2.22401407050633       -4.31044268489311       -0.33011038370629
O            0.10714499482548       -4.65690384821886       -1.09427312687457
C            0.66858531721652       -5.41956121902223       -2.04941601805496
C           -5.53352242152550        2.28872540126747        2.54268806779611
O           -6.12845931692720        2.95611258394217        3.35420946144331
O           -5.51671419878468        2.51890990134091        1.21777480567011
C           -6.24600088870873        3.65172050330247        0.93081089600118
O           -0.91639562991293       -3.63332639022338       10.16375418630397
O           -1.85942325453381       -1.65328034541698       10.57493790023988
C           -1.92130758146663       -2.06324467545797       11.85913522437816
C           -2.02595882251240       -5.47647279855059        5.53755968584909
C            2.03901412796682       -3.12333438384056        4.62472877719341
H           -1.71542646385043       -1.10888726917350       12.40550540230976
H           -1.08168085858526       -2.64033610543689       12.25788503163458
H           -2.95565930179317       -2.37534048842920       12.00467090344010
H           -6.19243448418620        3.94606379659667       -0.12475010677200
H           -6.02295072311437        4.41930513243781        1.63103283810200
H           -7.32807046002425        3.33114574579131        1.02016308433301
H            2.36344588158138       -2.89135364154134        5.55880765780417
H            2.56629679941213       -2.58381258503278        3.79164799890530
H            2.17860511027550       -4.22823726061235        4.62309589281437
H           -2.65247837607906       -5.83643453902550        4.70035778793338
H           -2.64952963082300       -5.39183281660309        6.43471234104443
H           -1.22716567735896       -6.16293875943118        5.64557059038966
H           -0.17327181030875       -5.88777902831492       -2.59447949266878
H            1.00084057183393       -6.26016034211893       -1.45449406945695
H            1.40054217980353       -4.91443177097402       -2.65826732210723
116
 energy: -22.838915500437 gnorm: 0.422986336592 xtb: 6.6.1 (8d0f1dd)
C            0.07793945779869        1.01198298118038       -1.13503930513448
C           -0.61418632205984        1.48606906884447        0.01304354167885
C           -0.01203494363610        1.27454433309456        1.26139093007339
C            0.88121040725925        0.21216660321922        1.43983303275017
C            1.62732959287393       -0.25101334797133        0.28725916300101
C            1.24092540631028        0.18272805394818       -0.96400048473316
C           -0.49276483944335        2.03189754735824        2.40380073373099
C           -0.09783893528680        1.53696381338468        3.64979409016178
C            0.90465628659012        0.47306873428928        3.70863875200154
N            1.45201355448057       -0.10652460527066        2.63944811321145
C           -1.37515811346753        3.20822985544115        2.32200312574373
C           -1.92546923834215        3.58145277068755        3.58258974907684
N           -1.51906887607682        3.19017133121826        4.80523302700669
C           -0.58175894014024        2.20048557515885        4.78501453723920
C           -0.08063526286668        1.75400459509474        6.07178789825491
C            0.79204278646825        0.67586332488762        6.20137313452934
C            1.21566078959310        0.02332205375529        5.03720113930037
C           -1.66704418310771        3.90660906114248        1.09267592761322
C           -2.76901253940738        4.76180049127924        1.08428154383612
C           -3.47429702727131        5.00266852084007        2.27264263151260
C           -2.98407009236980        4.52652928305408        3.52545645744303
O           -0.67172159110130        4.11950268751621        0.15280244845952
O           -1.96493118568555        1.89508076765368        0.01890697244229
C            2.13121903177083       -0.11009687668775       -2.06191884273290
C           -4.13907419097036        6.31117739597367        2.39167247868644
H            2.55639753675993       -0.72265858314028        0.32472222522392
H           -0.12193053376148        1.29934066580909       -2.13247301925922
H            1.71674633588552       -0.92282287795344        5.22938381042603
H           -0.49407175136722        2.20950120143394        6.90781917779616
H           -3.23949325593444        4.94377455716532        4.49831485999032
H           -2.99021068381237        5.22137791126353        0.07641236353946
O            1.89558674262345        0.44716529023772       -3.14902258610177
O            3.13539474077658       -1.00668135183837       -1.83816294117228
C            4.04343028926453       -1.00317790170023       -2.96395171417341
C            0.91059651249205        0.11196146520303        7.64525165671030
O            1.23716957328241       -1.10648101867529        7.80292196819914
O            0.70186824155596        0.97962363210862        8.65206453469747
C            0.71057729749036        0.33571833070317        9.88712794500341
O           -4.60187444104966        6.65513942631633        3.46873487068489
O           -4.29686996801682        6.93705639070997        1.22834744139776
C           -5.28488792261220        7.84435743143418        1.28644256245333
C            0.67621649390495        4.37990430567660        0.78445389382037
C           -2.70542843256317        1.43158103207408       -1.06183095915072
H           -6.24481695559585        7.63703375675442        1.71795342123545
H           -5.32894991562577        8.31495181937773        0.27555700185797
H           -4.70079796992152        8.64593140116808        1.87897715163390
H            1.12271457745798        1.00277420657687       10.73651404108035
H            1.46532539753214       -0.52088354486673        9.79822511821541
H           -0.36262517743608       -0.00446063759229       10.03789583229478
H           -3.56066380539444        2.15463801991140       -1.18134467288619
H           -3.11424669178595        0.42516579536469       -0.84287892363244
H           -2.10804421196963        1.51908373612070       -1.84060596193087
H            1.33005327142456        3.53576055827688        0.63221528595971
H            0.64992324231770        4.29492330160209        1.86049741859429
H            1.20739706237562        5.28506243500978        0.37999010748776
H            5.06909421507759       -0.71767738450910       -2.60569902614956
H            3.85066208665623       -0.14067406901709       -3.56526215761439
H            3.98756714677449       -1.84839185640349       -3.56674000229831
C            0.45604657696692       -3.60474102988144        2.34672650144142
C           -0.05150945902572       -2.98697369524412        3.37026299521211
C           -1.24207290008458       -2.11096930602382        3.31183431444562
C           -1.74679535480389       -1.82329764976090        1.95565360176643
C           -1.24398346925757       -2.57020457240336        0.88337304252379
C           -0.07329727225420       -3.38765298077118        1.06345844212911
C           -1.98450906445164       -1.66423195221506        4.50075259563091
C           -2.89136943548854       -0.69103104074947        4.19646862070854
C           -3.29655813152672       -0.55335867092159        2.83933551170723
N           -2.87264592817674       -1.27819974683981        1.75203355739659
C           -1.88437678556147       -2.06524756672213        5.92681107182086
C           -2.34479772469989       -1.13353532456049        6.92594977797848
N           -3.21500861688073       -0.14045137597377        6.58168165512587
C           -3.51693425904607        0.04402624060311        5.21432925513120
C           -4.33304843248561        1.13232773498813        4.78129812542258
C           -4.64172500693947        1.36357652448311        3.47554669220191
C           -4.08945342901653        0.54625419956495        2.51102301674143
C           -1.45802969680598       -3.42127061904738        6.34075739691862
C           -1.39129644746701       -3.56376538022193        7.79507893800865
C           -1.66700562951750       -2.50750270143012        8.75679127891147
C           -2.30504349413159       -1.38704421394698        8.30592306124041
O           -1.52240976272110       -4.42989598931236        5.39690438621741
O            0.64292852158989       -3.11153550443328        4.60370803669651
C            0.78902398729451       -3.86465013833898       -0.01262514812926
C           -1.48651414295422       -2.74877081935784       10.27217500753826
H           -1.57046115765242       -2.33200054335037       -0.11732856997920
H            1.28842869426533       -4.24050293665489        2.51674212392467
H           -4.30224761754005        0.71257843264998        1.47299835919185
H           -5.00976745719363        1.58937488451771        5.55472909102150
H           -2.76036431489118       -0.60180956237915        8.96286976244093
H           -1.08721801667770       -4.52136130615428        8.19311849449624
O            1.83254587555850       -4.50373867531700        0.31548973056932
O            0.47877548053524       -3.61237581079204       -1.30624308833746
C            1.60869946398128       -3.72388219417016       -2.09739120203284
C           -5.53113241562856        2.39403736836329        2.96938050670109
O           -6.37824708689224        2.87169033892247        3.73247933839393
O           -5.39156318796459        2.98182266499865        1.71707979429892
C           -6.47176034787012        3.92088957822374        1.50980509284784
O           -0.55108845544143       -3.37198795228140       10.74310088825630
O           -2.28371160468498       -1.93610586213720       10.92319530671472
C           -1.83181198530288       -1.88273520832692       12.26620489486771
C           -0.99063313511469       -5.69066129045659        5.85800097473719
C            2.05409351832381       -3.26763731460272        4.72137274891758
H           -2.23625068389899       -2.66553540984164       12.79386286873508
H           -1.91764876398492       -0.87379625338196       12.68303494195202
H           -0.69887275644470       -1.89055125822859       12.07275870136903
H           -6.85227607134482        3.42377442069229        0.63114286412709
H           -6.17080019966250        4.92216470156244        1.22568869456862
H           -7.07505953917082        3.98614665669068        2.39822324818797
H            2.38395100145688       -3.09380105706071        5.80294183062098
H            2.63706399512772       -2.64596010526693        4.05660999861083
H            2.31843454660820       -4.28931500202950        4.45764321393344
H           -0.00468130067080       -5.70661708753183        5.39636831466460
H           -1.54079772077661       -6.43692785474398        5.36237318180965
H           -1.10706182831569       -5.86242540127683        6.89043797029692
H            1.35328372963125       -3.60957870109618       -3.22753518305052
H            1.87925903895229       -4.75579694534220       -1.96735907592797
H            2.28086345912683       -2.89548623711052       -1.74597291796171
116
 energy: -22.878515464655 gnorm: 0.368126994922 xtb: 6.6.1 (8d0f1dd)
C            0.10906564075827        0.40927319680448       -1.29782776069208
C           -0.39016393473773        1.13844582250462       -0.22128405776561
C            0.33504265199847        1.33245495999255        1.01882977490739
C            1.39257229336455        0.40104002531623        1.28964808588116
C            1.97375567685316       -0.19242523497780        0.11135247929416
C            1.34338147865654       -0.21711152327543       -1.17237959702586
C           -0.14268630579306        2.14776408749050        2.05207655615879
C            0.15398622607007        1.66519485898202        3.30701320095266
C            1.32787241651889        0.92472144604432        3.57195098964533
N            2.00550846169319        0.37898616115716        2.49248831291373
C           -1.22250163353439        3.10203473455430        1.93900814135945
C           -2.02870317899986        3.38397954152622        3.06368437481935
N           -1.57958682734893        3.03590571351228        4.27340178292432
C           -0.54101469346287        2.20499325920013        4.45008666157654
C           -0.15694284978077        1.84340846820250        5.75478887501987
C            0.92969190774701        1.02857819067247        5.96802739845166
C            1.70346071369855        0.66694049613412        4.88241384305837
C           -1.38584044902793        3.95629181434525        0.75286011643576
C           -2.40689278167313        4.86740495357883        0.71583245363555
C           -3.26022316215308        5.08318037723823        1.78985561844932
C           -2.95038019255121        4.49801220713416        3.00427915421641
O           -0.48982391313515        3.98916435102199       -0.28862946388851
O           -1.73501976398439        1.52697209164482       -0.15459433919705
C            2.04847986894515       -0.58251783323640       -2.40959160119968
C           -4.23782460591761        6.30407306774536        1.74214049523284
H            2.95826428873966       -0.59118461087159        0.23844977269723
H           -0.19431407691845        0.53307681359802       -2.28562592814006
H            2.58114110105811        0.08294765172125        5.05112781827054
H           -0.63073062677485        2.16148192422516        6.62529461484285
H           -3.51580786976594        4.84114153228359        3.81590594593852
H           -2.49557373736481        5.56480208226481       -0.06165421999309
O            1.52953830897636       -0.73626444125971       -3.47311241129105
O            3.41683823411427       -0.69638395464307       -2.20673644317100
C            3.88226958503560       -1.44973303959950       -3.24923544933820
C            1.05742770640848        0.19534988392604        7.19091498598019
O            1.99045317500502       -0.52018189705101        7.24384474593017
O            0.09628186113193        0.32483904064824        8.12418188851442
C            0.51012895609861       -0.45392504566306        9.17430965604805
O           -5.20020145545933        6.34764828570781        2.46924745919586
O           -3.91978301110180        7.31014892228604        0.84209503648768
C           -4.80290598521115        8.37076442856889        1.02403331651912
C            0.59772644970061        4.78071605285466        0.16108755028360
C           -2.58827724179607        1.00061095135750       -1.06624426231611
H           -5.55546874998265        8.06689255773148        1.76924944713903
H           -5.31258824673853        8.38532009892627        0.11258344698365
H           -4.28169837259538        9.30835854107646        1.34640737734335
H            0.97750250899226       -1.47594151571186        8.99088348807588
H           -0.37948931204658       -0.48931971688086        9.84510902709130
H            1.21753182524799        0.08574378476658        9.75062337866611
H           -3.32055526218656        1.71841774023703       -1.26939245698273
H           -2.97500445851343       -0.01198379041660       -0.86399345716088
H           -2.16314639032528        1.00834859324672       -2.03191652434927
H            1.18480889305032        5.41139154399842       -0.53398687443183
H            1.45956716883870        4.11562116306239        0.46379594231739
H            0.07281424341708        5.45620646817411        0.86315255604722
H            4.52367418772246       -2.23633145828609       -2.89830006623144
H            4.59804140991094       -0.66913361915288       -3.75976011727132
H            3.17405765439493       -1.71897542251662       -4.04547261987811
C            0.60809927351274       -3.13294611672769        2.80079876235605
C           -0.04204566068875       -2.48573892753225        3.88680855047066
C           -1.30599408976554       -1.89001172149016        3.70006639954658
C           -1.65233435124577       -1.54626766564661        2.35293761285379
C           -0.99919589545520       -2.25625526970081        1.33656973468575
C            0.12384667381424       -2.99732783889466        1.57080151245438
C           -2.15867038066232       -1.58543144301875        4.81856775554889
C           -2.95335530819159       -0.47213453060059        4.49066462729089
C           -3.15860970925762       -0.03450889398473        3.15269138087741
N           -2.47169084574062       -0.39293541028628        2.06735608236968
C           -2.17876084561300       -2.14396511732558        6.13893959572485
C           -2.76997004147010       -1.35798864165425        7.14317091311579
N           -3.34065465379723       -0.15208224959904        6.86636684545614
C           -3.61811512932373        0.18432574486863        5.60005169351392
C           -4.39572467978145        1.29334942984379        5.32143548909598
C           -4.68876949933011        1.65494310115735        3.96563618827456
C           -4.08000204379350        0.96528807562541        2.94798229780206
C           -1.64644294143968       -3.39974032957504        6.41766162378152
C           -1.48679288172517       -3.81750944205981        7.70860244942143
C           -1.96910496803552       -3.08803222901670        8.77470890809240
C           -2.60456189003050       -1.91261786569282        8.47967824399399
O           -1.11955775819666       -4.29128755936484        5.44732291891726
O            0.53127497866158       -2.43807162253629        5.16698916684712
C            0.93777874978781       -3.38067343311297        0.44309542163328
C           -1.77658575919284       -3.46626213095412       10.20739899626251
H           -1.22310832870125       -2.05489768406354        0.31510207615820
H            1.55986531542535       -3.69568285478943        3.00555584431798
H           -4.25861843744007        1.33454187409330        1.95991206977014
H           -4.85958887285123        1.81149869074819        6.22843917888676
H           -3.08888125458403       -1.29427756605226        9.26819080626512
H           -1.02637989838379       -4.76623067498005        7.95453936655043
O            2.12416818563907       -3.34966229119135        0.60542754212144
O            0.50093541489899       -3.67366636908580       -0.85398340107636
C            1.48757434926707       -3.92537353265425       -1.84453134200662
C           -5.63852803907765        2.81372938582932        3.83914826741299
O           -5.83332186044417        3.56587157988894        4.79295960040477
O           -6.29846629957448        2.91186588042243        2.66862986609141
C           -7.29896802234516        3.88516452665324        2.85718783669266
O           -1.01589525842754       -4.43959669169628       10.41715481054212
O           -2.42073408532395       -2.68181246813179       11.17677887763363
C           -2.18006181625077       -3.24093712131310       12.44934727730979
C           -1.41287669734770       -5.69990136678210        5.44401792120279
C            1.91366704902471       -2.65504100351861        5.35235488905040
H           -1.24679321208931       -3.73799055209075       12.38005392094217
H           -3.10164570401019       -3.77299816983287       12.91805259461158
H           -1.92294990212576       -2.31442722167263       13.04458601139439
H           -7.75980270186344        3.56794487550424        3.69932194635013
H           -8.18891763714916        3.97588443706677        2.11690619330126
H           -6.70996831649929        4.79485865894772        2.94504907847745
H            2.15769596598138       -2.01747476075947        6.18300999639945
H            2.49154159021274       -2.32696589604085        4.45371769144485
H            2.22090708657621       -3.72568273037809        5.44163019977001
H           -0.70267513690736       -6.31935430654430        5.98369831708614
H           -1.37741908814082       -6.05073063971913        4.39819943197088
H           -2.41701646310076       -5.97348571199417        5.74571811768904
H            1.07452273983033       -3.74647384670025       -2.76644624457557
H            1.82429617418349       -4.98760798866697       -1.65735727413972
H            2.26680193272252       -3.20499813714845       -1.59819923241349
116
 energy: -22.870691372103 gnorm: 0.407321737908 xtb: 6.6.1 (8d0f1dd)
C            0.53408423457564        0.69858916249391       -1.52834707864206
C           -0.33132208503239        1.20925111332423       -0.58350652273438
C            0.19090301545185        1.15096040314496        0.78382315053602
C            1.27723645294166        0.32861205314029        1.11819915651092
C            1.99341672829493       -0.26212593490189        0.13672056559237
C            1.70341517569863       -0.02045878903163       -1.17175860665511
C           -0.42727952811286        1.87169102708967        1.81942670209010
C           -0.12823474374887        1.51472545236724        3.14229590109473
C            0.92865808767734        0.63371922489220        3.38185892207454
N            1.65978718439615        0.06015520177911        2.38762233180894
C           -1.35311530964499        3.00853413352913        1.64468907553753
C           -2.12014342567757        3.46163395201695        2.77515060037408
N           -1.73867967352295        3.16440519026692        4.06980972233221
C           -0.78131725494638        2.20634592018736        4.21537798292809
C           -0.42248454088372        1.89778876901770        5.49823157545312
C            0.55959291230824        0.95325120731131        5.78462091264084
C            1.26006300777504        0.38179017995826        4.74150415610163
C           -1.37902910905448        3.86538984450644        0.45489589825310
C           -2.30619915297854        5.00496927657697        0.40970081943735
C           -3.08136299443633        5.32864353461873        1.50523250430684
C           -3.02042919383695        4.50839205423734        2.64977736232555
O           -0.18052410813857        3.79600329410617       -0.44200613452397
O           -1.62488464096422        1.63339160295711       -0.85028114342675
C            2.66973330794197       -0.36100866297981       -2.25500532276331
C           -4.11865179247221        6.33185058276402        1.29101863536726
H            2.55310204805455       -1.16352405272464        0.43901661738033
H            0.27456386633357        0.74128253020777       -2.59348243200017
H            2.02773965446920       -0.25444829988986        4.97466655164297
H           -1.09797465399494        2.34044963920403        6.20453634635510
H           -3.45216532069164        4.83742455027946        3.55498064377240
H           -2.41274119593334        5.62003745241011       -0.42707021045906
O            2.27344061389359       -0.44162277710418       -3.42319773890434