Optimization of monomers started
      -----------------------------------------------------------      
     |                   =====================                   |     
     |                           x T B                           |     
     |                   =====================                   |     
     |                         S. Grimme                         |     
     |          Mulliken Center for Theoretical Chemistry        |     
     |                    University of Bonn                     |     
      -----------------------------------------------------------      

   * xtb version 6.7.1 (edcfbbe) compiled by 'runner@Mac-1732539442253.local' on 2024-11-25

   xtb is free software: you can redistribute it and/or modify it under
   the terms of the GNU Lesser General Public License as published by
   the Free Software Foundation, either version 3 of the License, or
   (at your option) any later version.
   
   xtb is distributed in the hope that it will be useful,
   but WITHOUT ANY WARRANTY; without even the implied warranty of
   MERCHANTABILITY or FITNESS FOR A PARTICULAR PURPOSE.  See the
   GNU Lesser General Public License for more details.
   
   Cite this work as:
   * C. Bannwarth, E. Caldeweyher, S. Ehlert, A. Hansen, P. Pracht,
     J. Seibert, S. Spicher, S. Grimme, WIREs Comput. Mol. Sci., 2020, 11,
     e01493. DOI: 10.1002/wcms.1493
   
   for GFN2-xTB:
   * C. Bannwarth, S. Ehlert and S. Grimme., J. Chem. Theory Comput., 2019,
     15, 1652-1671. DOI: 10.1021/acs.jctc.8b01176
   for GFN1-xTB:
   * S. Grimme, C. Bannwarth, P. Shushkov, J. Chem. Theory Comput., 2017,
     13, 1989-2009. DOI: 10.1021/acs.jctc.7b00118
   for GFN0-xTB:
   * P. Pracht, E. Caldeweyher, S. Ehlert, S. Grimme, ChemRxiv, 2019, preprint.
     DOI: 10.26434/chemrxiv.8326202.v1
   for GFN-FF:
   * S. Spicher and S. Grimme, Angew. Chem. Int. Ed., 2020, 59, 15665-15673.
     DOI: 10.1002/anie.202004239
   
   for ALPB and GBSA implicit solvation:
   * S. Ehlert, M. Stahn, S. Spicher, S. Grimme, J. Chem. Theory Comput.,
     2021, 17, 4250-4261. DOI: 10.1021/acs.jctc.1c00471
   
   for ddCOSMO and CPCM-X implicit solvation:
   * M. Stahn, S. Ehlert, S. Grimme, J. Phys. Chem. A,
     2023, XX, XXXX-XXXX. DOI: 10.1021/acs.jpca.3c04382
   
   for DFT-D4:
   * E. Caldeweyher, C. Bannwarth and S. Grimme, J. Chem. Phys., 2017,
     147, 034112. DOI: 10.1063/1.4993215
   * E. Caldeweyher, S. Ehlert, A. Hansen, H. Neugebauer, S. Spicher,
     C. Bannwarth and S. Grimme, J. Chem. Phys., 2019, 150, 154122.
     DOI: 10.1063/1.5090222
   * E. Caldeweyher, J.-M. Mewes, S. Ehlert and S. Grimme, Phys. Chem. Chem. Phys.
     2020, 22, 8499-8512. DOI: 10.1039/D0CP00502A
   
   for sTDA-xTB:
   * S. Grimme and C. Bannwarth, J. Chem. Phys., 2016, 145, 054103.
     DOI: 10.1063/1.4959605
   
   in the mass-spec context:
   * V. Asgeirsson, C. Bauer and S. Grimme, Chem. Sci., 2017, 8, 4879.
     DOI: 10.1039/c7sc00601b
   * J. Koopman and S. Grimme, ACS Omega 2019, 4, 12, 15120-15133.
     DOI: 10.1021/acsomega.9b02011
   
   for metadynamics refer to:
   * S. Grimme, J. Chem. Theory Comput., 2019, 155, 2847-2862
     DOI: 10.1021/acs.jctc.9b00143
   
   for SPH calculations refer to:
   * S. Spicher and S. Grimme, J. Chem. Theory Comput., 2021, 17, 1701-1714
     DOI: 10.1021/acs.jctc.0c01306
   
   for ONIOM refer to:
   * C. Plett, A. Katbashev, S. Ehlert, S. Grimme, M. Bursch,
     Phys. Chem. Chem. Phys., 2023, 25, 17860-17868. DOI: 10.1039/D3CP02178E
   
   for DIPRO refer to:
   * J. Kohn, N. Gildemeister, S. Grimme, D. Fazzi, A. Hansen,
     J. Chem. Phys., 2023, just accepted.
   
   for PTB refer to:
   * S. Grimme, M. Mueller, A. Hansen, J. Chem. Phys., 2023, 158, 124111.
     DOI: 10.1063/5.0137838
   
   with help from (in alphabetical order)
   P. Atkinson, C. Bannwarth, F. Bohle, G. Brandenburg, E. Caldeweyher
   M. Checinski, S. Dohm, S. Ehlert, S. Ehrlich, I. Gerasimov, C. Hölzer
   A. Katbashev, J. Kohn, J. Koopman, C. Lavigne, S. Lehtola, F. März, M. Müller,
   F. Musil, H. Neugebauer, J. Pisarek, C. Plett, P. Pracht, F. Pultar,
   J. Seibert, P. Shushkov, S. Spicher, M. Stahn, M. Steiner, T. Strunk,
   J. Stückrath, T. Rose, and J. Unsleber
   
 * started run on 2025/03/04 at 11:27:30.147     
   ID    Z sym.   atoms
    1    6 C      1-9, 11, 12, 14-21, 24-35, 42, 43
    2    7 N      10, 13
    3    8 O      22, 23
    4    1 H      36-41, 44-76

           -------------------------------------------------
          |                Calculation Setup                |
           -------------------------------------------------

          program call               : xtb Base3tBu.mol --opt tight --cycles 500 --chrg 0 --uhf 1 --spinpol --tblite
          coordinate file            : Base3tBu.mol
          omp threads                :                     8

repulsion energy          9.7623309485373E-01 Eh
dispersion energy         5.6497307361390E-04 Eh
interaction energy        0.0000000000000E+00 Eh
number of electrons       1.9300000000000E+02 e
integral cutoff           1.7347787504999E+01 bohr

------------------------------------------------------------
  cycle        total energy    energy error   density error
------------------------------------------------------------
      1     -103.0721809547  -1.0404898E+02   1.0892012E-01
      2     -103.1662067139  -9.4025759E-02   6.4790329E-02
      3     -102.9960378991   1.7016881E-01   5.6101443E-02
      4     -103.2679914571  -2.7195356E-01   2.8827988E-02
      5     -103.4177941876  -1.4980273E-01   9.0364652E-03
      6     -103.4225888928  -4.7947053E-03   5.1927968E-03
      7     -103.4251443568  -2.5554640E-03   3.3605394E-03
      8     -103.4255806917  -4.3633485E-04   2.3711213E-03
      9     -103.4261703508  -5.8965916E-04   1.2630173E-03
     10     -103.4262252762  -5.4925389E-05   8.2024475E-04
     11     -103.4262176345   7.6417256E-06   6.8817320E-04
     12     -103.4262621706  -4.4536173E-05   3.2724733E-04
     13     -103.4262676802  -5.5095915E-06   1.9641643E-04
     14     -103.4262713613  -3.6810597E-06   1.2483283E-04
     15     -103.4262730802  -1.7188981E-06   7.0476780E-05
     16     -103.4262732361  -1.5592299E-07   4.1830291E-05
     17     -103.4262733480  -1.1183556E-07   2.4157664E-05
     18     -103.4262733929  -4.4980581E-08   1.3885217E-05
------------------------------------------------------------

electronic energy        -1.0440307146086E+02 Eh
total energy             -1.0342627339293E+02 Eh

 total:                                   0.759 sec
 - repulsion                              0.000 sec (  0%)
 - dispersion                             0.006 sec (  0%)
 - coulomb                                0.002 sec (  0%)
 - hamiltonian                            0.014 sec (  1%)
 - scc                                    0.737 sec ( 97%)

      ----------------------------------------------------------- 
     |                   =====================                   |
     |                        A N C O P T                        |
     |                   =====================                   |
     |               Approximate Normal Coordinate               |
     |                Rational Function Optimizer                |
      ----------------------------------------------------------- 
      ----------------------------------------------------------- 
     |                   =====================                   |
     |                        A N C O P T                        |
     |                   =====================                   |
     |               Approximate Normal Coordinate               |
     |                Rational Function Optimizer                |
      ----------------------------------------------------------- 

          ...................................................
          :                      SETUP                      :
          :.................................................:
          :   optimization level             tight          :
          :   max. optcycles                   500          :
          :   ANC micro-cycles                  20          :
          :   degrees of freedom               222          :
          :.................................................:
          :   RF solver                   davidson          :
          :   write xtbopt.log                true          :
          :   linear?                        false          :
          :   energy convergence         0.1000000E-05 Eh   :
          :   grad. convergence          0.8000000E-03 Eh/α :
          :   maxmium RF displ.          1.0000000          :
          :   Hlow (freq-cutoff)         0.1000000E-01      :
          :   Hmax (freq-cutoff)         5.0000000          :
          :   S6 in model hess.         20.0000000          :
          ...................................................

generating ANC from exact Hessian ...
Using Lindh-Hessian (1995)
 Shifting diagonal of input Hessian by    1.0131760126574452E-002
 Lowest  eigenvalues of input Hessian
    0.010000    0.010022    0.010042    0.010077    0.010081    0.000000
    0.010094    0.000000    0.000000    0.000000    0.000000    0.000000
    0.010271    0.010381    0.010445    0.010555    0.010617    0.010783
 Highest eigenvalues
    1.169183    1.169787    1.219763    1.220655    1.407608    2.384335


........................................................................
.............................. CYCLE    1 ..............................
........................................................................
------------------------------------------------------------
  cycle        total energy    energy error   density error
------------------------------------------------------------
      1     -103.4262731891  -1.0440307E+02   3.0645094E-05
      2     -103.4262729416   2.4747087E-07   4.5408235E-05
      3     -103.4262734025  -4.6093089E-07   5.6697717E-06
------------------------------------------------------------

 total:                                   0.148 sec
 * total energy  :  -103.4262734 Eh     change       -0.9609550E-08 Eh
   gradient norm :     0.5456430 Eh/α   predicted     0.0000000E+00 (-100.00%)
   displ. norm   :     0.7928252 α      lambda       -0.3675768E+00
   maximum displ.:     0.3174331 α      in ANC's #103, #105, #143, ...

........................................................................
.............................. CYCLE    2 ..............................
........................................................................
------------------------------------------------------------
  cycle        total energy    energy error   density error
------------------------------------------------------------
      1     -103.7410788442  -1.0471418E+02   1.0028800E-02
      2     -103.7414485608  -3.6971657E-04   6.1475902E-03
      3     -103.7386383479   2.8102129E-03   4.8377896E-03
      4     -103.7418893208  -3.2509729E-03   9.9524932E-04
      5     -103.7419806416  -9.1320844E-05   6.3166093E-04
      6     -103.7420231126  -4.2471024E-05   2.7129900E-04
      7     -103.7420283651  -5.2524854E-06   1.7804231E-04
      8     -103.7420302831  -1.9179381E-06   9.2141187E-05
      9     -103.7420310709  -7.8785934E-07   5.1974556E-05
     10     -103.7420311710  -1.0005600E-07   3.4330253E-05
     11     -103.7420312197  -4.8760214E-08   2.2817971E-05
     12     -103.7420312604  -4.0635683E-08   1.2466534E-05
------------------------------------------------------------

 total:                                   0.513 sec
 * total energy  :  -103.7420313 Eh     change       -0.3157579E+00 Eh
   gradient norm :     0.3700606 Eh/α   predicted    -0.2993305E+00 (  -5.20%)
   displ. norm   :     0.8356381 α      lambda       -0.2836256E+00
   maximum displ.:     0.3714456 α      in ANC's #103, #105, #56, ...

........................................................................
.............................. CYCLE    3 ..............................
........................................................................
------------------------------------------------------------
  cycle        total energy    energy error   density error
------------------------------------------------------------
      1     -103.9801190295  -1.0500398E+02   9.8589797E-03
      2     -103.9802013463  -8.2316873E-05   6.1693122E-03
      3     -103.9773542889   2.8470575E-03   5.1602722E-03
      4     -103.9809533293  -3.5990404E-03   9.0593059E-04
      5     -103.9810677621  -1.1443279E-04   4.6998773E-04
      6     -103.9810904537  -2.2691667E-05   2.5077093E-04
      7     -103.9810949098  -4.4560853E-06   1.4056240E-04
      8     -103.9810951262  -2.1635175E-07   8.2670677E-05
      9     -103.9810956889  -5.6274121E-07   4.7941791E-05
     10     -103.9810957797  -9.0789186E-08   2.8868410E-05
     11     -103.9810958168  -3.7123726E-08   2.0447534E-05
     12     -103.9810958535  -3.6648160E-08   1.0219902E-05
------------------------------------------------------------

 total:                                   0.516 sec
 * total energy  :  -103.9810959 Eh     change       -0.2390646E+00 Eh
   gradient norm :     0.2380498 Eh/α   predicted    -0.2408395E+00 (   0.74%)
   displ. norm   :     0.8486631 α      lambda       -0.1924412E+00
   maximum displ.:     0.3972652 α      in ANC's #103, #105, #56, ...

........................................................................
.............................. CYCLE    4 ..............................
........................................................................
------------------------------------------------------------
  cycle        total energy    energy error   density error
------------------------------------------------------------
      1     -104.1450669779  -1.0525530E+02   8.5074065E-03
      2     -104.1449192167   1.4776116E-04   5.4008051E-03
      3     -104.1428151405   2.1040763E-03   4.6941624E-03
      4     -104.1457767978  -2.9616573E-03   7.3186662E-04
      5     -104.1458573778  -8.0580007E-05   3.2663636E-04
      6     -104.1458628665  -5.4887172E-06   1.9610273E-04
      7     -104.1458639807  -1.1142383E-06   1.1314380E-04
      8     -104.1458647140  -7.3324293E-07   6.1177630E-05
      9     -104.1458648253  -1.1130129E-07   4.1564883E-05
     10     -104.1458649398  -1.1455724E-07   2.0276242E-05
     11     -104.1458649550  -1.5115759E-08   1.2102368E-05
------------------------------------------------------------

 total:                                   0.638 sec
 * total energy  :  -104.1458650 Eh     change       -0.1647691E+00 Eh
   gradient norm :     0.1669999 Eh/α   predicted    -0.1655223E+00 (   0.46%)
   displ. norm   :     0.8482265 α      lambda       -0.1356362E+00
   maximum displ.:     0.4327189 α      in ANC's #56, #103, #105, ...

........................................................................
.............................. CYCLE    5 ..............................
........................................................................
------------------------------------------------------------
  cycle        total energy    energy error   density error
------------------------------------------------------------
      1     -104.2610262166  -1.0546638E+02   7.5609413E-03
      2     -104.2609068251   1.1939149E-04   4.8652481E-03
      3     -104.2595343479   1.3724772E-03   4.0924070E-03
      4     -104.2617276867  -2.1933388E-03   7.2825111E-04
      5     -104.2618076944  -8.0007694E-05   2.8252705E-04
      6     -104.2618106233  -2.9289087E-06   1.7621601E-04
      7     -104.2618111719  -5.4862922E-07   1.0825014E-04
      8     -104.2618120318  -8.5988279E-07   5.2577785E-05
      9     -104.2618121061  -7.4324319E-08   3.5703425E-05
     10     -104.2618122019  -9.5737008E-08   1.5926497E-05
------------------------------------------------------------

 total:                                   0.401 sec
 * total energy  :  -104.2618122 Eh     change       -0.1159472E+00 Eh
   gradient norm :     0.1198854 Eh/α   predicted    -0.1166124E+00 (   0.57%)
   displ. norm   :     0.8513681 α      lambda       -0.9574404E-01
   maximum displ.:     0.5209625 α      in ANC's #56, #103, #105, ...

........................................................................
.............................. CYCLE    6 ..............................
........................................................................
------------------------------------------------------------
  cycle        total energy    energy error   density error
------------------------------------------------------------
      1     -104.3436266841  -1.0563248E+02   6.3600772E-03
      2     -104.3436551155  -2.8431366E-05   4.0180852E-03
      3     -104.3427582429   8.9687261E-04   3.2014679E-03
      4     -104.3441032119  -1.3449690E-03   6.1628170E-04
      5     -104.3441629421  -5.9730171E-05   2.1727646E-04
      6     -104.3441647897  -1.8476172E-06   1.2977860E-04
      7     -104.3441654575  -6.6775314E-07   8.1293044E-05
      8     -104.3441658264  -3.6899405E-07   4.0995339E-05
      9     -104.3441659215  -9.5061679E-08   2.5579349E-05
     10     -104.3441659633  -4.1775692E-08   1.1286958E-05
------------------------------------------------------------

 total:                                   0.386 sec
 * total energy  :  -104.3441660 Eh     change       -0.8235376E-01 Eh
   gradient norm :     0.0884104 Eh/α   predicted    -0.8257103E-01 (   0.26%)
   displ. norm   :     0.8589280 α      lambda       -0.6945231E-01
   maximum displ.:     0.5613552 α      in ANC's #56, #17, #103, ...

........................................................................
.............................. CYCLE    7 ..............................
........................................................................
------------------------------------------------------------
  cycle        total energy    energy error   density error
------------------------------------------------------------
      1     -104.4039750090  -1.0575851E+02   5.0815520E-03
      2     -104.4040509804  -7.5971365E-05   3.0898611E-03
      3     -104.4035364396   5.1454083E-04   2.2447319E-03
      4     -104.4042004083  -6.6396870E-04   4.3173940E-04
      5     -104.4042300244  -2.9616143E-05   1.6904614E-04
      6     -104.4042316279  -1.6034455E-06   9.2178891E-05
      7     -104.4042320425  -4.1461865E-07   5.8838696E-05
      8     -104.4042322414  -1.9890905E-07   3.1003517E-05
      9     -104.4042322912  -4.9819079E-08   1.8667907E-05
------------------------------------------------------------

 total:                                   0.347 sec
 * total energy  :  -104.4042323 Eh     change       -0.6006633E-01 Eh
   gradient norm :     0.0646922 Eh/α   predicted    -0.6034579E-01 (   0.47%)
   displ. norm   :     0.8657649 α      lambda       -0.5137185E-01
   maximum displ.:     0.5406258 α      in ANC's #56, #17, #19, ...

........................................................................
.............................. CYCLE    8 ..............................
........................................................................
------------------------------------------------------------
  cycle        total energy    energy error   density error
------------------------------------------------------------
      1     -104.4482041350  -1.0585103E+02   4.4870136E-03
      2     -104.4482726197  -6.8484688E-05   2.6642243E-03
      3     -104.4480193570   2.5326265E-04   1.5680318E-03
      4     -104.4483221523  -3.0279532E-04   2.9881959E-04
      5     -104.4483321273  -9.9749758E-06   1.6386476E-04
      6     -104.4483344801  -2.3527854E-06   8.4953291E-05
      7     -104.4483348016  -3.2153201E-07   5.4675818E-05
      8     -104.4483349740  -1.7234737E-07   2.6576254E-05
      9     -104.4483350005  -2.6504580E-08   1.6571769E-05
------------------------------------------------------------

 total:                                   0.393 sec
 * total energy  :  -104.4483350 Eh     change       -0.4410271E-01 Eh
   gradient norm :     0.0531639 Eh/α   predicted    -0.4493879E-01 (   1.90%)
   displ. norm   :     0.8902196 α      lambda       -0.4125762E-01
   maximum displ.:     0.4711664 α      in ANC's #56, #17, #18, ...

........................................................................
.............................. CYCLE    9 ..............................
........................................................................
------------------------------------------------------------
  cycle        total energy    energy error   density error
------------------------------------------------------------
      1     -104.4809759579  -1.0593257E+02   4.6681610E-03
      2     -104.4810266963  -5.0738341E-05   2.7902528E-03
      3     -104.4807397804   2.8691587E-04   1.6221798E-03
      4     -104.4810849298  -3.4514944E-04   2.4592692E-04
      5     -104.4810921809  -7.2510658E-06   1.2370724E-04
      6     -104.4810932819  -1.1009754E-06   6.0510756E-05
      7     -104.4810935069  -2.2507285E-07   3.6207294E-05
      8     -104.4810935781  -7.1136427E-08   2.2455138E-05
      9     -104.4810935895  -1.1452570E-08   1.4132013E-05
------------------------------------------------------------

 total:                                   0.431 sec
 * total energy  :  -104.4810936 Eh     change       -0.3275859E-01 Eh
   gradient norm :     0.0567027 Eh/α   predicted    -0.3697696E-01 (  12.88%)
   displ. norm   :     0.8708705 α      lambda       -0.3497180E-01
   maximum displ.:     0.3851315 α      in ANC's #56, #17, #19, ...

........................................................................
.............................. CYCLE   10 ..............................
........................................................................
------------------------------------------------------------
  cycle        total energy    energy error   density error
------------------------------------------------------------
      1     -104.5086332801  -1.0599320E+02   4.7539263E-03
      2     -104.5086825165  -4.9236419E-05   2.8251041E-03
      3     -104.5085132090   1.6930750E-04   1.2132338E-03
      4     -104.5087162246  -2.0301558E-04   1.7641908E-04
      5     -104.5087177503  -1.5257580E-06   1.0094492E-04
      6     -104.5087185972  -8.4691342E-07   4.5703763E-05
      7     -104.5087187389  -1.4169080E-07   2.3771349E-05
      8     -104.5087187795  -4.0522863E-08   1.3527643E-05
------------------------------------------------------------

 total:                                   0.310 sec
 * total energy  :  -104.5087188 Eh     change       -0.2762519E-01 Eh
   gradient norm :     0.0363517 Eh/α   predicted    -0.3074748E-01 (  11.30%)
   displ. norm   :     0.8742293 α      lambda       -0.2636072E-01
   maximum displ.:     0.3862332 α      in ANC's #19, #17, #18, ...

........................................................................
.............................. CYCLE   11 ..............................
........................................................................
------------------------------------------------------------
  cycle        total energy    energy error   density error
------------------------------------------------------------
      1     -104.5290041243  -1.0604813E+02   4.2380280E-03
      2     -104.5290418368  -3.7712474E-05   2.5213757E-03
      3     -104.5288478363   1.9400043E-04   1.1922613E-03
      4     -104.5290652447  -2.1740834E-04   2.7613563E-04
      5     -104.5290772622  -1.2017542E-05   1.0521037E-04
      6     -104.5290780342  -7.7204035E-07   3.8492621E-05
      7     -104.5290781021  -6.7875575E-08   2.2188124E-05
      8     -104.5290781358  -3.3646344E-08   1.2529667E-05
------------------------------------------------------------

 total:                                   0.310 sec
 * total energy  :  -104.5290781 Eh     change       -0.2035936E-01 Eh
   gradient norm :     0.0470736 Eh/α   predicted    -0.2325383E-01 (  14.22%)
   displ. norm   :     0.8528258 α      lambda       -0.2433930E-01
   maximum displ.:     0.4110095 α      in ANC's #17, #19, #18, ...

........................................................................
.............................. CYCLE   12 ..............................
........................................................................
------------------------------------------------------------
  cycle        total energy    energy error   density error
------------------------------------------------------------
      1     -104.5469499808  -1.0610102E+02   3.9901848E-03
      2     -104.5469871846  -3.7203801E-05   2.3717549E-03
      3     -104.5468665468   1.2063776E-04   9.4430925E-04
      4     -104.5470068585  -1.4031170E-04   1.9536446E-04
      5     -104.5470113681  -4.5096115E-06   9.8833792E-05
      6     -104.5470123221  -9.5402848E-07   3.8701350E-05
      7     -104.5470124225  -1.0031707E-07   1.8224224E-05
------------------------------------------------------------

 total:                                   0.279 sec
 * total energy  :  -104.5470124 Eh     change       -0.1793429E-01 Eh
   gradient norm :     0.0331180 Eh/α   predicted    -0.2102079E-01 (  17.21%)
   displ. norm   :     0.8229641 α      lambda       -0.1684347E-01
   maximum displ.:     0.3653170 α      in ANC's #17, #19, #18, ...

........................................................................
.............................. CYCLE   13 ..............................
........................................................................
------------------------------------------------------------
  cycle        total energy    energy error   density error
------------------------------------------------------------
      1     -104.5595059938  -1.0613022E+02   3.4630305E-03
      2     -104.5595242033  -1.8209462E-05   2.0406559E-03
      3     -104.5594726562   5.1547049E-05   6.1544948E-04
      4     -104.5595312985  -5.8642229E-05   1.5954275E-04
      5     -104.5595331463  -1.8477908E-06   8.7697827E-05
      6     -104.5595341512  -1.0049265E-06   2.7332145E-05
      7     -104.5595342076  -5.6444790E-08   1.5599559E-05
------------------------------------------------------------

 total:                                   0.262 sec
 * total energy  :  -104.5595342 Eh     change       -0.1252179E-01 Eh
   gradient norm :     0.0317040 Eh/α   predicted    -0.1412552E-01 (  12.81%)
   displ. norm   :     0.8179737 α      lambda       -0.1575689E-01
   maximum displ.:     0.3784802 α      in ANC's #19, #17, #15, ...

........................................................................
.............................. CYCLE   14 ..............................
........................................................................
------------------------------------------------------------
  cycle        total energy    energy error   density error
------------------------------------------------------------
      1     -104.5688859135  -1.0615166E+02   4.1222064E-03
      2     -104.5689138799  -2.7966374E-05   2.4429151E-03
      3     -104.5688574770   5.6402904E-05   6.8682778E-04
      4     -104.5689220244  -6.4547396E-05   1.6028353E-04
      5     -104.5689244403  -2.4159866E-06   8.6422140E-05
      6     -104.5689252324  -7.9202397E-07   3.4348370E-05
      7     -104.5689253251  -9.2718281E-08   1.5150980E-05
------------------------------------------------------------

 total:                                   0.275 sec
 * total energy  :  -104.5689253 Eh     change       -0.9391117E-02 Eh
   gradient norm :     0.0379568 Eh/α   predicted    -0.1314977E-01 (  40.02%)
   displ. norm   :     0.6977759 α      lambda       -0.1079759E-01
   maximum displ.:     0.2885758 α      in ANC's #19, #15, #17, ...

........................................................................
.............................. CYCLE   15 ..............................
........................................................................
------------------------------------------------------------
  cycle        total energy    energy error   density error
------------------------------------------------------------
      1     -104.5750864860  -1.0617635E+02   3.5863010E-03
      2     -104.5751081806  -2.1694580E-05   2.1054686E-03
      3     -104.5750444177   6.3762833E-05   5.4973355E-04
      4     -104.5751154764  -7.1058672E-05   1.6761412E-04
      5     -104.5751186868  -3.2104142E-06   8.1552754E-05
      6     -104.5751191988  -5.1194093E-07   3.1115845E-05
      7     -104.5751192473  -4.8564544E-08   1.6345524E-05
------------------------------------------------------------

 total:                                   0.265 sec
 * total energy  :  -104.5751192 Eh     change       -0.6193922E-02 Eh
   gradient norm :     0.0361982 Eh/α   predicted    -0.8027420E-02 (  29.60%)
   displ. norm   :     0.6564914 α      lambda       -0.8893117E-02
   maximum displ.:     0.3057613 α      in ANC's #15, #19, #17, ...

........................................................................
.............................. CYCLE   16 ..............................
........................................................................
------------------------------------------------------------
  cycle        total energy    energy error   density error
------------------------------------------------------------
      1     -104.5792654181  -1.0618140E+02   3.5382442E-03
      2     -104.5792876088  -2.2190709E-05   2.0685776E-03
      3     -104.5791755893   1.1201951E-04   7.9405264E-04
      4     -104.5793021263  -1.2653695E-04   1.5831182E-04
      5     -104.5793040071  -1.8808751E-06   7.4717120E-05
      6     -104.5793045216  -5.1447157E-07   2.8600339E-05
      7     -104.5793046190  -9.7404012E-08   1.1313611E-05
------------------------------------------------------------

 total:                                   0.252 sec
 * total energy  :  -104.5793046 Eh     change       -0.4185372E-02 Eh
   gradient norm :     0.0256560 Eh/α   predicted    -0.6362943E-02 (  52.03%)
   displ. norm   :     0.5415458 α      lambda       -0.4860207E-02
   maximum displ.:     0.2747090 α      in ANC's #15, #19, #22, ...

........................................................................
.............................. CYCLE   17 ..............................
........................................................................
------------------------------------------------------------
  cycle        total energy    energy error   density error
------------------------------------------------------------
      1     -104.5816359611  -1.0618794E+02   3.0487792E-03
      2     -104.5816522345  -1.6273451E-05   1.7781156E-03
      3     -104.5816118627   4.0371772E-05   5.4398729E-04
      4     -104.5816596480  -4.7785248E-05   1.2723074E-04
      5     -104.5816600350  -3.8699538E-07   7.0091831E-05
      6     -104.5816607736  -7.3857876E-07   2.0690835E-05
      7     -104.5816608248  -5.1214158E-08   8.7952063E-06
------------------------------------------------------------

 total:                                   0.292 sec
 * total energy  :  -104.5816608 Eh     change       -0.2356206E-02 Eh
   gradient norm :     0.0262879 Eh/α   predicted    -0.3142786E-02 (  33.38%)
   displ. norm   :     0.5110290 α      lambda       -0.4609578E-02
   maximum displ.:     0.2353573 α      in ANC's #15, #19, #22, ...

........................................................................
.............................. CYCLE   18 ..............................
........................................................................
------------------------------------------------------------
  cycle        total energy    energy error   density error
------------------------------------------------------------
      1     -104.5827594638  -1.0620364E+02   2.9466183E-03
      2     -104.5827748194  -1.5355550E-05   1.7507885E-03
      3     -104.5827011664   7.3652981E-05   6.4678438E-04
      4     -104.5827819134  -8.0746977E-05   1.4275082E-04
      5     -104.5827846812  -2.7678286E-06   6.0485014E-05
      6     -104.5827850149  -3.3373283E-07   2.6154279E-05
      7     -104.5827850458  -3.0865380E-08   1.2191165E-05
------------------------------------------------------------

 total:                                   0.299 sec
 * total energy  :  -104.5827850 Eh     change       -0.1124221E-02 Eh
   gradient norm :     0.0320213 Eh/α   predicted    -0.2906691E-02 ( 158.55%)
   displ. norm   :     0.2773044 α      lambda       -0.2796283E-02
   maximum displ.:     0.1326085 α      in ANC's #15, #12, #19, ...

........................................................................
.............................. CYCLE   19 ..............................
........................................................................
------------------------------------------------------------
  cycle        total energy    energy error   density error
------------------------------------------------------------
      1     -104.5841841620  -1.0620437E+02   2.0092113E-03
      2     -104.5841920223  -7.8603455E-06   1.1897316E-03
      3     -104.5841759861   1.6036161E-05   3.2520097E-04
      4     -104.5841947211  -1.8734942E-05   8.5756203E-05
      5     -104.5841952567  -5.3566183E-07   4.2335389E-05
      6     -104.5841954166  -1.5988468E-07   1.8492055E-05
------------------------------------------------------------

 total:                                   0.278 sec
 * total energy  :  -104.5841954 Eh     change       -0.1410371E-02 Eh
   gradient norm :     0.0157322 Eh/α   predicted    -0.1505659E-02 (   6.76%)
   displ. norm   :     0.3231027 α      lambda       -0.1952018E-02
   maximum displ.:     0.1268812 α      in ANC's #15, #12, #7, ...

........................................................................
.............................. CYCLE   20 ..............................
........................................................................
------------------------------------------------------------
  cycle        total energy    energy error   density error
------------------------------------------------------------
      1     -104.5843096241  -1.0620193E+02   2.4762636E-03
      2     -104.5843177894  -8.1652647E-06   1.4663447E-03
      3     -104.5842207473   9.7042108E-05   6.8823165E-04
      4     -104.5843279716  -1.0722436E-04   1.0790619E-04
      5     -104.5843291014  -1.1297409E-06   4.9024288E-05
      6     -104.5843292642  -1.6286788E-07   2.3469319E-05
      7     -104.5843293340  -6.9762848E-08   1.0039274E-05
------------------------------------------------------------

 total:                                   0.303 sec
 * total energy  :  -104.5843293 Eh     change       -0.1339174E-03 Eh
   gradient norm :     0.0247555 Eh/α   predicted    -0.1077903E-02 ( 704.90%)
   displ. norm   :     0.2127659 α      lambda       -0.1755307E-02
   maximum displ.:     0.0605132 α      in ANC's #15, #59, #17, ...
 * RMSD in coord.:     1.2325078 α      energy gain  -0.1158056E+01 Eh

generating ANC from exact Hessian ...
Using Lindh-Hessian (1995)
 Shifting diagonal of input Hessian by    9.8608971620417433E-003
 Lowest  eigenvalues of input Hessian
    0.000000    0.000000    0.000000    0.000000    0.000000    0.000000
    0.010000    0.010129    0.010209    0.010325    0.010414    0.010523
    0.011096    0.011142    0.011412    0.011527    0.011667    0.012502
 Highest eigenvalues
    1.995755    2.030413    2.044084    2.100564    2.201589    2.208977


........................................................................
.............................. CYCLE   21 ..............................
........................................................................
------------------------------------------------------------
  cycle        total energy    energy error   density error
------------------------------------------------------------
      1     -104.5852040193  -1.0620497E+02   1.8896234E-03
      2     -104.5852078456  -3.8263023E-06   1.1086204E-03
      3     -104.5851265290   8.1316679E-05   6.8102152E-04
      4     -104.5852185690  -9.2040085E-05   1.0798825E-04
      5     -104.5852196620  -1.0929381E-06   5.2275003E-05
      6     -104.5852199676  -3.0560761E-07   1.3643734E-05
------------------------------------------------------------

 total:                                   0.350 sec
 * total energy  :  -104.5852200 Eh     change       -0.8906336E-03 Eh
   gradient norm :     0.0141234 Eh/α   predicted     0.0000000E+00 (-100.00%)
   displ. norm   :     0.1733945 α      lambda       -0.8020430E-03
   maximum displ.:     0.0629619 α      in ANC's #7, #18, #11, ...

........................................................................
.............................. CYCLE   22 ..............................
........................................................................
------------------------------------------------------------
  cycle        total energy    energy error   density error
------------------------------------------------------------
      1     -104.5858198180  -1.0620653E+02   1.0296010E-03
      2     -104.5858221074  -2.2893574E-06   6.0944448E-04
      3     -104.5858175255   4.5818959E-06   1.7824720E-04
      4     -104.5858227556  -5.2300754E-06   4.9620496E-05
      5     -104.5858229854  -2.2987062E-07   2.5184772E-05
      6     -104.5858230440  -5.8608705E-08   1.1059193E-05
------------------------------------------------------------

 total:                                   0.260 sec
 * total energy  :  -104.5858230 Eh     change       -0.6030765E-03 Eh
   gradient norm :     0.0054400 Eh/α   predicted    -0.4130816E-03 ( -31.50%)
   displ. norm   :     0.3369244 α      lambda       -0.7528052E-03
   maximum displ.:     0.1324362 α      in ANC's #7, #11, #6, ...

........................................................................
.............................. CYCLE   23 ..............................
........................................................................
------------------------------------------------------------
  cycle        total energy    energy error   density error
------------------------------------------------------------
      1     -104.5863553585  -1.0620630E+02   1.4034329E-03
      2     -104.5863595664  -4.2079029E-06   8.4394889E-04
      3     -104.5863299758   2.9590608E-05   4.0910185E-04
      4     -104.5863631243  -3.3148493E-05   6.9889454E-05
      5     -104.5863635189  -3.9461159E-07   3.9283500E-05
      6     -104.5863636749  -1.5600617E-07   1.7017503E-05
------------------------------------------------------------

 total:                                   0.288 sec
 * total energy  :  -104.5863637 Eh     change       -0.5406309E-03 Eh
   gradient norm :     0.0060131 Eh/α   predicted    -0.4191592E-03 ( -22.47%)
   displ. norm   :     0.3715765 α      lambda       -0.4997575E-03
   maximum displ.:     0.1527973 α      in ANC's #7, #6, #11, ...

........................................................................
.............................. CYCLE   24 ..............................
........................................................................
------------------------------------------------------------
  cycle        total energy    energy error   density error
------------------------------------------------------------
      1     -104.5867377764  -1.0620479E+02   1.2622662E-03
      2     -104.5867399901  -2.2137025E-06   7.6925027E-04
      3     -104.5867033694   3.6620642E-05   4.5541240E-04
      4     -104.5867442736  -4.0904184E-05   5.7470559E-05
      5     -104.5867445469  -2.7328616E-07   3.3297246E-05
      6     -104.5867446619  -1.1494680E-07   1.3789623E-05
------------------------------------------------------------

 total:                                   0.213 sec
 * total energy  :  -104.5867447 Eh     change       -0.3809869E-03 Eh
   gradient norm :     0.0092027 Eh/α   predicted    -0.2843798E-03 ( -25.36%)
   displ. norm   :     0.4019557 α      lambda       -0.4823990E-03
   maximum displ.:     0.1711384 α      in ANC's #6, #7, #8, ...

........................................................................
.............................. CYCLE   25 ..............................
........................................................................
------------------------------------------------------------
  cycle        total energy    energy error   density error
------------------------------------------------------------
      1     -104.5871180927  -1.0620412E+02   1.2234208E-03
      2     -104.5871194217  -1.3290031E-06   7.4124830E-04
      3     -104.5870875010   3.1920749E-05   4.2436612E-04
      4     -104.5871228830  -3.5382000E-05   5.0541605E-05
      5     -104.5871231402  -2.5722819E-07   2.7953923E-05
      6     -104.5871232104  -7.0236453E-08   1.1556489E-05
------------------------------------------------------------

 total:                                   0.325 sec
 * total energy  :  -104.5871232 Eh     change       -0.3785486E-03 Eh
   gradient norm :     0.0079710 Eh/α   predicted    -0.2801712E-03 ( -25.99%)
   displ. norm   :     0.4184390 α      lambda       -0.4407007E-03
   maximum displ.:     0.1954844 α      in ANC's #6, #7, #1, ...

........................................................................
.............................. CYCLE   26 ..............................
........................................................................
------------------------------------------------------------
  cycle        total energy    energy error   density error
------------------------------------------------------------
      1     -104.5874475852  -1.0620508E+02   1.2513884E-03
      2     -104.5874488037  -1.2184898E-06   7.4850542E-04
      3     -104.5874179284   3.0875214E-05   4.0800002E-04
      4     -104.5874519864  -3.4057949E-05   5.3627496E-05
      5     -104.5874522232  -2.3683474E-07   2.9426083E-05
      6     -104.5874523103  -8.7043745E-08   1.0544617E-05
------------------------------------------------------------

 total:                                   0.228 sec
 * total energy  :  -104.5874523 Eh     change       -0.3290999E-03 Eh
   gradient norm :     0.0042279 Eh/α   predicted    -0.2589330E-03 ( -21.32%)
   displ. norm   :     0.4364383 α      lambda       -0.2839448E-03
   maximum displ.:     0.2167348 α      in ANC's #6, #1, #7, ...

........................................................................
.............................. CYCLE   27 ..............................
........................................................................
------------------------------------------------------------
  cycle        total energy    energy error   density error
------------------------------------------------------------
      1     -104.5876599239  -1.0620551E+02   1.3062036E-03
      2     -104.5876609663  -1.0423875E-06   7.7838673E-04
      3     -104.5876347201   2.6246261E-05   3.6252186E-04
      4     -104.5876633462  -2.8626101E-05   5.2280826E-05
      5     -104.5876635007  -1.5456357E-07   2.8609788E-05
      6     -104.5876635969  -9.6141505E-08   8.9985970E-06
------------------------------------------------------------

 total:                                   0.231 sec
 * total energy  :  -104.5876636 Eh     change       -0.2112866E-03 Eh
   gradient norm :     0.0050432 Eh/α   predicted    -0.1690198E-03 ( -20.00%)
   displ. norm   :     0.3742797 α      lambda       -0.2555440E-03
   maximum displ.:     0.2022988 α      in ANC's #6, #1, #8, ...

........................................................................
.............................. CYCLE   28 ..............................
........................................................................
------------------------------------------------------------
  cycle        total energy    energy error   density error
------------------------------------------------------------
      1     -104.5878265983  -1.0620889E+02   1.0718766E-03
      2     -104.5878277529  -1.1545320E-06   6.2628386E-04
      3     -104.5878176961   1.0056783E-05   2.2725481E-04
      4     -104.5878285682  -1.0872118E-05   5.9336859E-05
      5     -104.5878288787  -3.1052770E-07   2.4033595E-05
      6     -104.5878289365  -5.7758811E-08   7.5118982E-06
------------------------------------------------------------

 total:                                   0.279 sec
 * total energy  :  -104.5878289 Eh     change       -0.1653396E-03 Eh
   gradient norm :     0.0055191 Eh/α   predicted    -0.1456727E-03 ( -11.89%)
   displ. norm   :     0.4365673 α      lambda       -0.2055324E-03
   maximum displ.:     0.2413309 α      in ANC's #6, #1, #8, ...

........................................................................
.............................. CYCLE   29 ..............................
........................................................................
------------------------------------------------------------
  cycle        total energy    energy error   density error
------------------------------------------------------------
      1     -104.5879745735  -1.0620893E+02   1.2654681E-03
      2     -104.5879754746  -9.0103350E-07   7.5200141E-04
      3     -104.5879660710   9.4035715E-06   2.1217216E-04
      4     -104.5879763730  -1.0301993E-05   4.4204292E-05
      5     -104.5879764190  -4.6048328E-08   2.2675653E-05
      6     -104.5879764960  -7.6935990E-08   8.6407736E-06
------------------------------------------------------------

 total:                                   0.224 sec
 * total energy  :  -104.5879765 Eh     change       -0.1475595E-03 Eh
   gradient norm :     0.0048682 Eh/α   predicted    -0.1223538E-03 ( -17.08%)
   displ. norm   :     0.2810126 α      lambda       -0.1550175E-03
   maximum displ.:     0.1661818 α      in ANC's #6, #1, #3, ...

........................................................................
.............................. CYCLE   30 ..............................
........................................................................
------------------------------------------------------------
  cycle        total energy    energy error   density error
------------------------------------------------------------
      1     -104.5881061782  -1.0621024E+02   7.5993213E-04
      2     -104.5881065803  -4.0209454E-07   4.5046428E-04
      3     -104.5881035214   3.0589218E-06   1.2440521E-04
      4     -104.5881068101  -3.2887329E-06   3.1456360E-05
      5     -104.5881068952  -8.5065679E-08   1.2695420E-05
------------------------------------------------------------

 total:                                   0.207 sec
 * total energy  :  -104.5881069 Eh     change       -0.1303992E-03 Eh
   gradient norm :     0.0029767 Eh/α   predicted    -0.8363037E-04 ( -35.87%)
   displ. norm   :     0.3867799 α      lambda       -0.2034320E-03
   maximum displ.:     0.2321405 α      in ANC's #6, #1, #3, ...

........................................................................
.............................. CYCLE   31 ..............................
........................................................................
------------------------------------------------------------
  cycle        total energy    energy error   density error
------------------------------------------------------------
      1     -104.5882674738  -1.0621093E+02   1.0182763E-03
      2     -104.5882685487  -1.0748729E-06   6.0419426E-04
      3     -104.5882625058   6.0428546E-06   1.7187865E-04
      4     -104.5882692464  -6.7405449E-06   3.4066308E-05
      5     -104.5882693186  -7.2246181E-08   2.3117025E-05
      6     -104.5882693722  -5.3581928E-08   8.7976539E-06
------------------------------------------------------------

 total:                                   0.268 sec
 * total energy  :  -104.5882694 Eh     change       -0.1624771E-03 Eh
   gradient norm :     0.0028742 Eh/α   predicted    -0.1169338E-03 ( -28.03%)
   displ. norm   :     0.4384227 α      lambda       -0.1759251E-03
   maximum displ.:     0.2651457 α      in ANC's #6, #1, #3, ...

........................................................................
.............................. CYCLE   32 ..............................
........................................................................
------------------------------------------------------------
  cycle        total energy    energy error   density error
------------------------------------------------------------
      1     -104.5884133975  -1.0620996E+02   1.1225029E-03
      2     -104.5884143036  -9.0614706E-07   6.6527980E-04
      3     -104.5884124947   1.8089476E-06   1.0821269E-04
      4     -104.5884145930  -2.0983045E-06   3.3115832E-05
      5     -104.5884146386  -4.5624432E-08   2.3342257E-05
      6     -104.5884147094  -7.0771563E-08   8.0234612E-06
------------------------------------------------------------

 total:                                   0.269 sec
 * total energy  :  -104.5884147 Eh     change       -0.1453372E-03 Eh
   gradient norm :     0.0038318 Eh/α   predicted    -0.1048724E-03 ( -27.84%)
   displ. norm   :     0.3911396 α      lambda       -0.1561922E-03
   maximum displ.:     0.2303836 α      in ANC's #6, #1, #3, ...

........................................................................
.............................. CYCLE   33 ..............................
........................................................................
------------------------------------------------------------
  cycle        total energy    energy error   density error
------------------------------------------------------------
      1     -104.5885457423  -1.0620914E+02   9.8338763E-04
      2     -104.5885465107  -7.6835232E-07   5.8172829E-04
      3     -104.5885448894   1.6213179E-06   1.0200109E-04
      4     -104.5885467811  -1.8917474E-06   3.2878343E-05
      5     -104.5885468447  -6.3525405E-08   1.4650287E-05
------------------------------------------------------------

 total:                                   0.326 sec
 * total energy  :  -104.5885468 Eh     change       -0.1321353E-03 Eh
   gradient norm :     0.0044419 Eh/α   predicted    -0.9004998E-04 ( -31.85%)
   displ. norm   :     0.4214763 α      lambda       -0.1656578E-03
   maximum displ.:     0.2451528 α      in ANC's #6, #1, #3, ...

........................................................................
.............................. CYCLE   34 ..............................
........................................................................
------------------------------------------------------------
  cycle        total energy    energy error   density error
------------------------------------------------------------
      1     -104.5886837725  -1.0620799E+02   1.0503511E-03
      2     -104.5886847073  -9.3478613E-07   6.2011726E-04
      3     -104.5886797056   5.0017026E-06   1.7955258E-04
      4     -104.5886852317  -5.5261109E-06   4.7065807E-05
      5     -104.5886853317  -1.0001527E-07   2.4757150E-05
      6     -104.5886854357  -1.0390985E-07   7.4555017E-06
------------------------------------------------------------

 total:                                   0.330 sec
 * total energy  :  -104.5886854 Eh     change       -0.1385910E-03 Eh
   gradient norm :     0.0036762 Eh/α   predicted    -0.9754397E-04 ( -29.62%)
   displ. norm   :     0.4502610 α      lambda       -0.1660749E-03
   maximum displ.:     0.2576780 α      in ANC's #1, #6, #3, ...

........................................................................
.............................. CYCLE   35 ..............................
........................................................................
------------------------------------------------------------
  cycle        total energy    energy error   density error
------------------------------------------------------------
      1     -104.5888099974  -1.0620730E+02   1.1676225E-03
      2     -104.5888110653  -1.0678896E-06   6.8906964E-04
      3     -104.5887940721   1.6993248E-05   2.9505182E-04
      4     -104.5888127980  -1.8725909E-05   5.3713545E-05
      5     -104.5888128719  -7.3894526E-08   2.9882467E-05
      6     -104.5888130193  -1.4744796E-07   9.4137871E-06
------------------------------------------------------------

 total:                                   0.270 sec
 * total energy  :  -104.5888130 Eh     change       -0.1275837E-03 Eh
   gradient norm :     0.0034003 Eh/α   predicted    -0.9987497E-04 ( -21.72%)
   displ. norm   :     0.3795714 α      lambda       -0.1083791E-03
   maximum displ.:     0.2258214 α      in ANC's #1, #6, #3, ...

........................................................................
.............................. CYCLE   36 ..............................
........................................................................
------------------------------------------------------------
  cycle        total energy    energy error   density error
------------------------------------------------------------
      1     -104.5888905375  -1.0620716E+02   9.6017819E-04
      2     -104.5888915062  -9.6874585E-07   5.6633421E-04
      3     -104.5888809780   1.0528180E-05   2.3705173E-04
      4     -104.5888924521  -1.1474085E-05   4.9590899E-05
      5     -104.5888926201  -1.6801535E-07   2.3296900E-05
      6     -104.5888926932  -7.3059937E-08   8.7436009E-06
------------------------------------------------------------

 total:                                   0.378 sec
 * total energy  :  -104.5888927 Eh     change       -0.7967386E-04 Eh
   gradient norm :     0.0024146 Eh/α   predicted    -0.6200129E-04 ( -22.18%)
   displ. norm   :     0.2599169 α      lambda       -0.6813824E-04
   maximum displ.:     0.1582630 α      in ANC's #1, #6, #3, ...

........................................................................
.............................. CYCLE   37 ..............................
........................................................................
------------------------------------------------------------
  cycle        total energy    energy error   density error
------------------------------------------------------------
      1     -104.5889395603  -1.0620866E+02   7.2723134E-04
      2     -104.5889399582  -3.9780313E-07   4.2872404E-04
      3     -104.5889326215   7.3366576E-06   1.9020797E-04
      4     -104.5889406346  -8.0131432E-06   3.6149323E-05
      5     -104.5889407009  -6.6221205E-08   1.6479603E-05
------------------------------------------------------------

 total:                                   0.262 sec
 * total energy  :  -104.5889407 Eh     change       -0.4800766E-04 Eh
   gradient norm :     0.0021168 Eh/α   predicted    -0.3637427E-04 ( -24.23%)
   displ. norm   :     0.2376127 α      lambda       -0.4840245E-04
   maximum displ.:     0.1504962 α      in ANC's #1, #6, #3, ...

........................................................................
.............................. CYCLE   38 ..............................
........................................................................
------------------------------------------------------------
  cycle        total energy    energy error   density error
------------------------------------------------------------
      1     -104.5889759322  -1.0620925E+02   6.0442529E-04
      2     -104.5889766261  -6.9388204E-07   3.5951029E-04
      3     -104.5889701486   6.4774463E-06   1.7748622E-04
      4     -104.5889775740  -7.4254134E-06   2.6735888E-05
      5     -104.5889776403  -6.6211243E-08   1.4918640E-05
------------------------------------------------------------

 total:                                   0.194 sec
 * total energy  :  -104.5889776 Eh     change       -0.3693940E-04 Eh
   gradient norm :     0.0015815 Eh/α   predicted    -0.2556811E-04 ( -30.78%)
   displ. norm   :     0.2642014 α      lambda       -0.4055661E-04
   maximum displ.:     0.1701700 α      in ANC's #1, #3, #6, ...

........................................................................
.............................. CYCLE   39 ..............................
........................................................................
------------------------------------------------------------
  cycle        total energy    energy error   density error
------------------------------------------------------------
      1     -104.5890207014  -1.0621085E+02   7.1016427E-04
      2     -104.5890214332  -7.3183537E-07   4.2338096E-04
      3     -104.5890160482   5.3849582E-06   1.8861300E-04
      4     -104.5890220897  -6.0415037E-06   3.5931800E-05
      5     -104.5890222326  -1.4284657E-07   1.5195788E-05
------------------------------------------------------------

 total:                                   0.212 sec
 * total energy  :  -104.5890222 Eh     change       -0.4459232E-04 Eh
   gradient norm :     0.0020570 Eh/α   predicted    -0.2091143E-04 ( -53.11%)
   displ. norm   :     0.1705442 α      lambda       -0.3720931E-04
   maximum displ.:     0.1093452 α      in ANC's #1, #3, #11, ...

........................................................................
.............................. CYCLE   40 ..............................
........................................................................
------------------------------------------------------------
  cycle        total energy    energy error   density error
------------------------------------------------------------
      1     -104.5890538959  -1.0621057E+02   4.6313211E-04
      2     -104.5890540734  -1.7748219E-07   2.7713891E-04
      3     -104.5890488484   5.2249962E-06   1.5994802E-04
      4     -104.5890546367  -5.7882935E-06   2.1578363E-05
      5     -104.5890546910  -5.4287952E-08   1.1426619E-05
------------------------------------------------------------

 total:                                   0.235 sec
 * total energy  :  -104.5890547 Eh     change       -0.3245840E-04 Eh
   gradient norm :     0.0019925 Eh/α   predicted    -0.1915011E-04 ( -41.00%)
   displ. norm   :     0.3947527 α      lambda       -0.6790553E-04
   maximum displ.:     0.2449368 α      in ANC's #1, #11, #3, ...

........................................................................
.............................. CYCLE   41 ..............................
........................................................................
------------------------------------------------------------
  cycle        total energy    energy error   density error
------------------------------------------------------------
      1     -104.5891263043  -1.0621111E+02   1.1026863E-03
      2     -104.5891270278  -7.2348261E-07   6.5870289E-04
      3     -104.5891189845   8.0433251E-06   1.9512862E-04
      4     -104.5891278588  -8.8743512E-06   3.5313224E-05
      5     -104.5891278820  -2.3184100E-08   2.1617747E-05
      6     -104.5891279521  -7.0042873E-08   7.5747185E-06
------------------------------------------------------------

 total:                                   0.218 sec
 * total energy  :  -104.5891280 Eh     change       -0.7326108E-04 Eh
   gradient norm :     0.0028590 Eh/α   predicted    -0.3630692E-04 ( -50.44%)
   displ. norm   :     0.2573608 α      lambda       -0.5644270E-04
   maximum displ.:     0.1585383 α      in ANC's #1, #11, #3, ...

........................................................................
.............................. CYCLE   42 ..............................
........................................................................
------------------------------------------------------------
  cycle        total energy    energy error   density error
------------------------------------------------------------
      1     -104.5891752353  -1.0621015E+02   7.1896368E-04
      2     -104.5891755915  -3.5620594E-07   4.3131503E-04
      3     -104.5891712107   4.3808426E-06   1.4602942E-04
      4     -104.5891759986  -4.7879294E-06   2.7199167E-05
      5     -104.5891760409  -4.2335799E-08   1.4260258E-05
------------------------------------------------------------

 total:                                   0.209 sec
 * total energy  :  -104.5891760 Eh     change       -0.4808887E-04 Eh
   gradient norm :     0.0029788 Eh/α   predicted    -0.3009401E-04 ( -37.42%)
   displ. norm   :     0.4390662 α      lambda       -0.1073138E-03
   maximum displ.:     0.2620556 α      in ANC's #1, #11, #2, ...
 * RMSD in coord.:     0.7249732 α      energy gain  -0.4846707E-02 Eh

generating ANC from exact Hessian ...
Using Lindh-Hessian (1995)
 Shifting diagonal of input Hessian by    9.8518062052446679E-003
 Lowest  eigenvalues of input Hessian
    0.000000    0.000000    0.000000    0.000000    0.000000    0.000000
    0.010000    0.010118    0.010192    0.010314    0.010413    0.010530
    0.010964    0.011145    0.011366    0.011567    0.011610    0.012644
 Highest eigenvalues
    1.994971    2.029371    2.052236    2.110842    2.201963    2.208725


........................................................................
.............................. CYCLE   43 ..............................
........................................................................
------------------------------------------------------------
  cycle        total energy    energy error   density error
------------------------------------------------------------
      1     -104.5892592357  -1.0620945E+02   1.2243548E-03
      2     -104.5892604898  -1.2540214E-06   7.3751619E-04
      3     -104.5892402381   2.0251640E-05   3.2538613E-04
      4     -104.5892625988  -2.2360703E-05   4.4448326E-05
      5     -104.5892627158  -1.1700213E-07   2.8430248E-05
      6     -104.5892627862  -7.0370206E-08   1.1122890E-05
------------------------------------------------------------

 total:                                   0.279 sec
 * total energy  :  -104.5892628 Eh     change       -0.8674527E-04 Eh
   gradient norm :     0.0035034 Eh/α   predicted     0.0000000E+00 (-100.00%)
   displ. norm   :     0.0429452 α      lambda       -0.4660434E-04
   maximum displ.:     0.0181505 α      in ANC's #11, #12, #2, ...

........................................................................
.............................. CYCLE   44 ..............................
........................................................................
------------------------------------------------------------
  cycle        total energy    energy error   density error
------------------------------------------------------------
      1     -104.5893003479  -1.0620995E+02   2.3593021E-04
      2     -104.5893004133  -6.5477309E-08   1.4454506E-04
      3     -104.5892987896   1.6237042E-06   9.5085030E-05
      4     -104.5893006332  -1.8435234E-06   1.1315668E-05
      5     -104.5893006488  -1.5679944E-08   6.4851278E-06
------------------------------------------------------------

 total:                                   0.300 sec
 * total energy  :  -104.5893006 Eh     change       -0.3786265E-04 Eh
   gradient norm :     0.0015939 Eh/α   predicted    -0.2335216E-04 ( -38.32%)
   displ. norm   :     0.1969444 α      lambda       -0.8257824E-04
   maximum displ.:     0.0967482 α      in ANC's #11, #2, #12, ...

........................................................................
.............................. CYCLE   45 ..............................
........................................................................
------------------------------------------------------------
  cycle        total energy    energy error   density error
------------------------------------------------------------
      1     -104.5893663830  -1.0621065E+02   9.3995898E-04
      2     -104.5893671226  -7.3959821E-07   5.6510767E-04
      3     -104.5893558017   1.1320870E-05   2.3690506E-04
      4     -104.5893681762  -1.2374472E-05   3.3656821E-05
      5     -104.5893682513  -7.5146374E-08   1.9634981E-05
------------------------------------------------------------

 total:                                   0.252 sec
 * total energy  :  -104.5893683 Eh     change       -0.6760245E-04 Eh
   gradient norm :     0.0035713 Eh/α   predicted    -0.4200233E-04 ( -37.87%)
   displ. norm   :     0.0935915 α      lambda       -0.3919028E-04
   maximum displ.:     0.0564632 α      in ANC's #11, #2, #6, ...

........................................................................
.............................. CYCLE   46 ..............................
........................................................................
------------------------------------------------------------
  cycle        total energy    energy error   density error
------------------------------------------------------------
      1     -104.5894048300  -1.0621051E+02   3.7853876E-04
      2     -104.5894049367  -1.0668990E-07   2.3332027E-04
      3     -104.5894006989   4.2378648E-06   1.5429991E-04
      4     -104.5894055512  -4.8522933E-06   1.9224635E-05
      5     -104.5894056115  -6.0333704E-08   7.3684952E-06
------------------------------------------------------------

 total:                                   0.254 sec
 * total energy  :  -104.5894056 Eh     change       -0.3736020E-04 Eh
   gradient norm :     0.0030577 Eh/α   predicted    -0.2002663E-04 ( -46.40%)
   displ. norm   :     0.2681691 α      lambda       -0.1184605E-03
   maximum displ.:     0.1561844 α      in ANC's #11, #6, #2, ...

........................................................................
.............................. CYCLE   47 ..............................
........................................................................
------------------------------------------------------------
  cycle        total energy    energy error   density error
------------------------------------------------------------
      1     -104.5894981332  -1.0620961E+02   1.0060443E-03
      2     -104.5894987705  -6.3724369E-07   6.1102599E-04
      3     -104.5894894452   9.3252427E-06   2.0848478E-04
      4     -104.5894997107  -1.0265500E-05   2.9174743E-05
      5     -104.5894997011   9.5938901E-09   1.9138329E-05
------------------------------------------------------------

 total:                                   0.247 sec
 * total energy  :  -104.5894997 Eh     change       -0.9408962E-04 Eh
   gradient norm :     0.0023124 Eh/α   predicted    -0.6350098E-04 ( -32.51%)
   displ. norm   :     0.2756282 α      lambda       -0.8610253E-04
   maximum displ.:     0.1621909 α      in ANC's #11, #6, #2, ...

........................................................................
.............................. CYCLE   48 ..............................
........................................................................
------------------------------------------------------------
  cycle        total energy    energy error   density error
------------------------------------------------------------
      1     -104.5895563886  -1.0620863E+02   9.6092342E-04
      2     -104.5895570989  -7.1029990E-07   5.8634439E-04
      3     -104.5895415450   1.5553890E-05   2.6559301E-04
      4     -104.5895584838  -1.6938801E-05   3.9797370E-05
      5     -104.5895586365  -1.5269822E-07   2.0261121E-05
      6     -104.5895586675  -3.1000837E-08   6.9305635E-06
------------------------------------------------------------

 total:                                   0.285 sec
 * total energy  :  -104.5895587 Eh     change       -0.5896636E-04 Eh
   gradient norm :     0.0051538 Eh/α   predicted    -0.4632610E-04 ( -21.44%)
   displ. norm   :     0.1597889 α      lambda       -0.6080169E-04
   maximum displ.:     0.0950142 α      in ANC's #11, #6, #2, ...

........................................................................
.............................. CYCLE   49 ..............................
........................................................................
------------------------------------------------------------
  cycle        total energy    energy error   density error
------------------------------------------------------------
      1     -104.5896107344  -1.0620884E+02   4.9017401E-04
      2     -104.5896109673  -2.3293080E-07   2.9758355E-04
      3     -104.5896101612   8.0614846E-07   7.3116781E-05
      4     -104.5896110783  -9.1710334E-07   1.7601885E-05
------------------------------------------------------------

 total:                                   0.223 sec
 * total energy  :  -104.5896111 Eh     change       -0.5241080E-04 Eh
   gradient norm :     0.0053675 Eh/α   predicted    -0.3117909E-04 ( -40.51%)
   displ. norm   :     0.3357417 α      lambda       -0.1581052E-03
   maximum displ.:     0.2004013 α      in ANC's #11, #6, #2, ...

........................................................................
.............................. CYCLE   50 ..............................
........................................................................
------------------------------------------------------------
  cycle        total energy    energy error   density error
------------------------------------------------------------
      1     -104.5897275440  -1.0620968E+02   1.0376788E-03
      2     -104.5897284657  -9.2174226E-07   6.3169609E-04
      3     -104.5897129674   1.5498364E-05   3.0456793E-04
      4     -104.5897299845  -1.7017180E-05   4.2545450E-05
      5     -104.5897301988  -2.1429395E-07   2.1482233E-05
      6     -104.5897302319  -3.3105792E-08   8.1664560E-06
------------------------------------------------------------

 total:                                   0.224 sec
 * total energy  :  -104.5897302 Eh     change       -0.1191537E-03 Eh
   gradient norm :     0.0044935 Eh/α   predicted    -0.8796368E-04 ( -26.18%)
   displ. norm   :     0.3777157 α      lambda       -0.1279658E-03
   maximum displ.:     0.2276303 α      in ANC's #11, #6, #2, ...

........................................................................
.............................. CYCLE   51 ..............................
........................................................................
------------------------------------------------------------
  cycle        total energy    energy error   density error
------------------------------------------------------------
      1     -104.5898201446  -1.0620936E+02   1.2407398E-03
      2     -104.5898218080  -1.6634731E-06   7.5351708E-04
      3     -104.5898146868   7.1212330E-06   2.1243127E-04
      4     -104.5898227331  -8.0462742E-06   4.3245837E-05
      5     -104.5898229072  -1.7415056E-07   2.4734813E-05
      6     -104.5898229563  -4.9050911E-08   9.4520623E-06
------------------------------------------------------------

 total:                                   0.230 sec
 * total energy  :  -104.5898230 Eh     change       -0.9272436E-04 Eh
   gradient norm :     0.0052550 Eh/α   predicted    -0.7311543E-04 ( -21.15%)
   displ. norm   :     0.2709396 α      lambda       -0.1483029E-03
   maximum displ.:     0.1515106 α      in ANC's #11, #6, #2, ...

........................................................................
.............................. CYCLE   52 ..............................
........................................................................
------------------------------------------------------------
  cycle        total energy    energy error   density error
------------------------------------------------------------
      1     -104.5898974184  -1.0621153E+02   9.3355965E-04
      2     -104.5898992921  -1.8737030E-06   5.6347269E-04
      3     -104.5898926639   6.6281868E-06   2.2144032E-04
      4     -104.5898999860  -7.3220404E-06   4.9287621E-05
      5     -104.5899002821  -2.9611627E-07   2.4494372E-05
      6     -104.5899003501  -6.8026253E-08   9.1699044E-06
------------------------------------------------------------

 total:                                   0.201 sec
 * total energy  :  -104.5899004 Eh     change       -0.7739382E-04 Eh
   gradient norm :     0.0036234 Eh/α   predicted    -0.7959786E-04 (   2.85%)
   displ. norm   :     0.3675638 α      lambda       -0.1063023E-03
   maximum displ.:     0.2227997 α      in ANC's #11, #6, #2, ...

........................................................................
.............................. CYCLE   53 ..............................
........................................................................
------------------------------------------------------------
  cycle        total energy    energy error   density error
------------------------------------------------------------
      1     -104.5899326655  -1.0620985E+02   1.2784129E-03
      2     -104.5899348816  -2.2160638E-06   7.7758781E-04
      3     -104.5899265600   8.3215871E-06   2.1690976E-04
      4     -104.5899360893  -9.5293281E-06   4.6754452E-05
      5     -104.5899362832  -1.9387778E-07   2.7699407E-05
      6     -104.5899363556  -7.2342345E-08   9.6717361E-06
------------------------------------------------------------

 total:                                   0.234 sec
 * total energy  :  -104.5899364 Eh     change       -0.3600546E-04 Eh
   gradient norm :     0.0049767 Eh/α   predicted    -0.6034345E-04 (  67.60%)
   displ. norm   :     0.1195807 α      lambda       -0.8079077E-04
   maximum displ.:     0.0667437 α      in ANC's #11, #6, #2, ...

........................................................................
.............................. CYCLE   54 ..............................
........................................................................
------------------------------------------------------------
  cycle        total energy    energy error   density error
------------------------------------------------------------
      1     -104.5899870847  -1.0621100E+02   3.9103563E-04
      2     -104.5899874013  -3.1661939E-07   2.3575069E-04
      3     -104.5899856711   1.7302419E-06   1.0847350E-04
      4     -104.5899876814  -2.0103290E-06   1.8523361E-05
      5     -104.5899877078  -2.6412238E-08   1.0990606E-05
------------------------------------------------------------

 total:                                   0.281 sec
 * total energy  :  -104.5899877 Eh     change       -0.5135222E-04 Eh
   gradient norm :     0.0014064 Eh/α   predicted    -0.4098279E-04 ( -20.19%)
   displ. norm   :     0.1524542 α      lambda       -0.4287086E-04
   maximum displ.:     0.0622640 α      in ANC's #11, #3, #28, ...

........................................................................
.............................. CYCLE   55 ..............................
........................................................................
------------------------------------------------------------
  cycle        total energy    energy error   density error
------------------------------------------------------------
      1     -104.5900216931  -1.0621152E+02   5.6776291E-04
      2     -104.5900221130  -4.1985831E-07   3.4408665E-04
      3     -104.5900144759   7.6370701E-06   2.0142321E-04
      4     -104.5900229076  -8.4317156E-06   2.7188389E-05
      5     -104.5900229643  -5.6654727E-08   1.3973564E-05
------------------------------------------------------------

 total:                                   0.233 sec
 * total energy  :  -104.5900230 Eh     change       -0.3525646E-04 Eh
   gradient norm :     0.0019962 Eh/α   predicted    -0.2168443E-04 ( -38.50%)
   displ. norm   :     0.1084173 α      lambda       -0.1755301E-04
   maximum displ.:     0.0583827 α      in ANC's #11, #3, #7, ...

........................................................................
.............................. CYCLE   56 ..............................
........................................................................
------------------------------------------------------------
  cycle        total energy    energy error   density error
------------------------------------------------------------
      1     -104.5900429812  -1.0621115E+02   3.4024511E-04
      2     -104.5900431878  -2.0659253E-07   2.0394947E-04
      3     -104.5900417856   1.4022054E-06   9.2877331E-05
      4     -104.5900433363  -1.5507018E-06   2.0580655E-05
      5     -104.5900433829  -4.6554860E-08   9.3624918E-06
------------------------------------------------------------

 total:                                   0.297 sec
 * total energy  :  -104.5900434 Eh     change       -0.2041863E-04 Eh
   gradient norm :     0.0014335 Eh/α   predicted    -0.8826242E-05 ( -56.77%)
   displ. norm   :     0.1360425 α      lambda       -0.2271208E-04
   maximum displ.:     0.0614769 α      in ANC's #7, #3, #28, ...

........................................................................
.............................. CYCLE   57 ..............................
........................................................................
------------------------------------------------------------
  cycle        total energy    energy error   density error
------------------------------------------------------------
      1     -104.5900642692  -1.0621043E+02   4.4372361E-04
      2     -104.5900645708  -3.0162518E-07   2.6384659E-04
      3     -104.5900618668   2.7040055E-06   1.3153717E-04
      4     -104.5900648775  -3.0106903E-06   2.2845929E-05
      5     -104.5900649025  -2.4981375E-08   1.5323968E-05
------------------------------------------------------------

 total:                                   0.272 sec
 * total energy  :  -104.5900649 Eh     change       -0.2151958E-04 Eh
   gradient norm :     0.0009205 Eh/α   predicted    -0.1145300E-04 ( -46.78%)
   displ. norm   :     0.0729007 α      lambda       -0.7996527E-05
   maximum displ.:     0.0349090 α      in ANC's #7, #3, #18, ...

........................................................................
.............................. CYCLE   58 ..............................
........................................................................
------------------------------------------------------------
  cycle        total energy    energy error   density error
------------------------------------------------------------
      1     -104.5900732051  -1.0621038E+02   2.4308353E-04
      2     -104.5900731697   3.5371158E-08   1.5180265E-04
      3     -104.5900716039   1.5658835E-06   1.1999921E-04
      4     -104.5900738739  -2.2700100E-06   1.7230448E-05
      5     -104.5900739223  -4.8458844E-08   5.0932918E-06
------------------------------------------------------------

 total:                                   0.292 sec
 * total energy  :  -104.5900739 Eh     change       -0.9019858E-05 Eh
   gradient norm :     0.0008555 Eh/α   predicted    -0.4007900E-05 ( -55.57%)
   displ. norm   :     0.0907324 α      lambda       -0.8900435E-05
   maximum displ.:     0.0426552 α      in ANC's #7, #3, #6, ...

........................................................................
.............................. CYCLE   59 ..............................
........................................................................
------------------------------------------------------------
  cycle        total energy    energy error   density error
------------------------------------------------------------
      1     -104.5900827045  -1.0621059E+02   2.4214659E-04
      2     -104.5900827407  -3.6204639E-08   1.4434486E-04
      3     -104.5900820978   6.4293980E-07   4.9878323E-05
      4     -104.5900828085  -7.1076018E-07   7.0350518E-06
[...]
    28   6 C       66   1 H                                       1.0880794
    28   6 C       67   1 H                                       1.0856214
    27   6 C       68   1 H                                       1.0879977
    27   6 C       69   1 H                                       1.0877485
    27   6 C       70   1 H                                       1.0881684
    43   6 C       71   1 H                                       1.0921022
    43   6 C       72   1 H                                       1.0942387
    43   6 C       73   1 H                                       1.0929818
    42   6 C       74   1 H                                       1.0889921
    42   6 C       75   1 H                                       1.0955914
    42   6 C       76   1 H                                       1.0945541
    77   6 C       78   6 C                                       1.3806028
    78   6 C       79   6 C                                       1.4097370
    79   6 C       80   6 C                                       1.4321499
    80   6 C       81   6 C                                       1.4100169
    77   6 C       82   6 C                                       1.4033583
    81   6 C       82   6 C                                       1.3750363
    79   6 C       83   6 C                                       1.4277307
    83   6 C       84   6 C                                       1.4009328
    84   6 C       85   6 C                                       1.4220893
    80   6 C       86   7 N                                       1.3378933
    85   6 C       86   7 N                                       1.3342496
    83   6 C       87   6 C                                       1.4280067
    87   6 C       88   6 C                                       1.4292423
    88   6 C       89   7 N                                       1.3379164
    84   6 C       90   6 C                                       1.4218519
    89   7 N       90   6 C                                       1.3321762
    90   6 C       91   6 C                                       1.4120211
    91   6 C       92   6 C                                       1.3864466
    85   6 C       93   6 C                                       1.4090365
    92   6 C       93   6 C                                       1.3915199
    87   6 C       94   6 C                                       1.4149826
    94   6 C       95   6 C                                       1.3810579
    95   6 C       96   6 C                                       1.4049711
    88   6 C       97   6 C                                       1.4101668
    96   6 C       97   6 C                                       1.3735400
    94   6 C       98   8 O                                       1.3587026
    78   6 C       99   8 O                                       1.3768385
   101   6 C      103   6 C                                       1.5313969
   101   6 C      104   6 C                                       1.5351701
   101   6 C      105   6 C                                       1.5348514
   102   6 C      106   6 C                                       1.5347433
   102   6 C      107   6 C                                       1.5349389
   102   6 C      108   6 C                                       1.5306807
   100   6 C      109   6 C                                       1.5306549
   100   6 C      110   6 C                                       1.5331079
   100   6 C      111   6 C                                       1.5368975 (max)
    81   6 C      112   1 H                                       1.0780924
    77   6 C      113   1 H                                       1.0770472
    93   6 C      114   1 H                                       1.0774323
    91   6 C      115   1 H                                       1.0762089
    97   6 C      116   1 H                                       1.0773603
    95   6 C      117   1 H                                       1.0754543
    98   8 O      118   6 C                                       1.4032850
    99   8 O      119   6 C                                       1.4168737
Note: The following floating-point exceptions are signalling: IEEE_UNDERFLOW_FLAG
normal termination of xtb
   111   6 C      120   1 H                                       1.0881658
   111   6 C      121   1 H                                       1.0881738
   111   6 C      122   1 H                                       1.0858785
   110   6 C      123   1 H                                       1.0860967
   110   6 C      124   1 H                                       1.0863818
   110   6 C      125   1 H                                       1.0881717
   109   6 C      126   1 H                                       1.0869039
   109   6 C      127   1 H                                       1.0886219
   109   6 C      128   1 H                                       1.0880927
   106   6 C      129   1 H                                       1.0862586
   106   6 C      130   1 H                                       1.0883021
   106   6 C      131   1 H                                       1.0880110
   108   6 C      132   1 H                                       1.0873837
   108   6 C      133   1 H                                       1.0873085
   108   6 C      134   1 H                                       1.0882543
   107   6 C      135   1 H                                       1.0862250
   107   6 C      136   1 H                                       1.0880014
   107   6 C      137   1 H                                       1.0880060
   105   6 C      138   1 H                                       1.0881244
   105   6 C      139   1 H                                       1.0860383
   105   6 C      140   1 H                                       1.0880420
   104   6 C      141   1 H                                       1.0880639
   104   6 C      142   1 H                                       1.0880372
   104   6 C      143   1 H                                       1.0858078
   103   6 C      144   1 H                                       1.0877789
   103   6 C      145   1 H                                       1.0877529
   103   6 C      146   1 H                                       1.0882191
   119   6 C      147   1 H                                       1.0900608
   119   6 C      148   1 H                                       1.0932028
   119   6 C      149   1 H                                       1.0955514
   118   6 C      150   1 H                                       1.0889904
   118   6 C      151   1 H                                       1.0957564
   118   6 C      152   1 H                                       1.0940225

 * 4 distinct bonds (by element types)

   Z      Z             #   av. dist./Å        max./Å        min./Å
   1 H    6 C          78     1.0867026     1.0957564     1.0749374
   6 C    6 C          60     1.4442869     1.5368975     1.3723581
   6 C    7 N           8     1.3351982     1.3393069     1.3321166
   6 C    8 O           8     1.3873073     1.4168737     1.3587026


optimized geometry written to: xtbopt.mol


           -------------------------------------------------
          | TOTAL ENERGY             -209.205127008373 Eh   |
          | GRADIENT NORM               0.000077275390 Eh/α |
           -------------------------------------------------

------------------------------------------------------------------------
 * finished run on 2025/03/04 at 11:29:58.793     
------------------------------------------------------------------------
 total:
 * wall-time:     0 d,  0 h,  1 min, 21.948 sec
 *  cpu-time:     0 d,  0 h,  4 min, 45.059 sec
 * ratio c/w:     3.479 speedup
 SCF:
 * wall-time:     0 d,  0 h,  0 min,  2.294 sec
 *  cpu-time:     0 d,  0 h,  0 min,  7.930 sec
 * ratio c/w:     3.457 speedup
 ANC optimizer:
 * wall-time:     0 d,  0 h,  1 min, 19.636 sec
 *  cpu-time:     0 d,  0 h,  4 min, 37.124 sec
 * ratio c/w:     3.480 speedup

      -----------------------------------------------------------      
     |                   =====================                   |     
     |                           x T B                           |     
     |                   =====================                   |     
     |                         S. Grimme                         |     
     |          Mulliken Center for Theoretical Chemistry        |     
     |                    University of Bonn                     |     
      -----------------------------------------------------------      

   * xtb version 6.7.1 (edcfbbe) compiled by 'runner@Mac-1732539442253.local' on 2024-11-25

   xtb is free software: you can redistribute it and/or modify it under
   the terms of the GNU Lesser General Public License as published by
   the Free Software Foundation, either version 3 of the License, or
   (at your option) any later version.
   
   xtb is distributed in the hope that it will be useful,
   but WITHOUT ANY WARRANTY; without even the implied warranty of
   MERCHANTABILITY or FITNESS FOR A PARTICULAR PURPOSE.  See the
   GNU Lesser General Public License for more details.
   
   Cite this work as:
   * C. Bannwarth, E. Caldeweyher, S. Ehlert, A. Hansen, P. Pracht,
     J. Seibert, S. Spicher, S. Grimme, WIREs Comput. Mol. Sci., 2020, 11,
     e01493. DOI: 10.1002/wcms.1493
   
   for GFN2-xTB:
   * C. Bannwarth, S. Ehlert and S. Grimme., J. Chem. Theory Comput., 2019,
     15, 1652-1671. DOI: 10.1021/acs.jctc.8b01176
   for GFN1-xTB:
   * S. Grimme, C. Bannwarth, P. Shushkov, J. Chem. Theory Comput., 2017,
     13, 1989-2009. DOI: 10.1021/acs.jctc.7b00118
   for GFN0-xTB:
   * P. Pracht, E. Caldeweyher, S. Ehlert, S. Grimme, ChemRxiv, 2019, preprint.
     DOI: 10.26434/chemrxiv.8326202.v1
   for GFN-FF:
   * S. Spicher and S. Grimme, Angew. Chem. Int. Ed., 2020, 59, 15665-15673.
     DOI: 10.1002/anie.202004239
   
   for ALPB and GBSA implicit solvation:
   * S. Ehlert, M. Stahn, S. Spicher, S. Grimme, J. Chem. Theory Comput.,
     2021, 17, 4250-4261. DOI: 10.1021/acs.jctc.1c00471
   
   for ddCOSMO and CPCM-X implicit solvation:
   * M. Stahn, S. Ehlert, S. Grimme, J. Phys. Chem. A,
     2023, XX, XXXX-XXXX. DOI: 10.1021/acs.jpca.3c04382
   
   for DFT-D4:
   * E. Caldeweyher, C. Bannwarth and S. Grimme, J. Chem. Phys., 2017,
     147, 034112. DOI: 10.1063/1.4993215
   * E. Caldeweyher, S. Ehlert, A. Hansen, H. Neugebauer, S. Spicher,
     C. Bannwarth and S. Grimme, J. Chem. Phys., 2019, 150, 154122.
     DOI: 10.1063/1.5090222
   * E. Caldeweyher, J.-M. Mewes, S. Ehlert and S. Grimme, Phys. Chem. Chem. Phys.
     2020, 22, 8499-8512. DOI: 10.1039/D0CP00502A
   
   for sTDA-xTB:
   * S. Grimme and C. Bannwarth, J. Chem. Phys., 2016, 145, 054103.
     DOI: 10.1063/1.4959605
   
   in the mass-spec context:
   * V. Asgeirsson, C. Bauer and S. Grimme, Chem. Sci., 2017, 8, 4879.
     DOI: 10.1039/c7sc00601b
   * J. Koopman and S. Grimme, ACS Omega 2019, 4, 12, 15120-15133.
     DOI: 10.1021/acsomega.9b02011
   
   for metadynamics refer to:
   * S. Grimme, J. Chem. Theory Comput., 2019, 155, 2847-2862
     DOI: 10.1021/acs.jctc.9b00143
   
   for SPH calculations refer to:
   * S. Spicher and S. Grimme, J. Chem. Theory Comput., 2021, 17, 1701-1714
     DOI: 10.1021/acs.jctc.0c01306
   
   for ONIOM refer to:
   * C. Plett, A. Katbashev, S. Ehlert, S. Grimme, M. Bursch,
     Phys. Chem. Chem. Phys., 2023, 25, 17860-17868. DOI: 10.1039/D3CP02178E
   
   for DIPRO refer to:
   * J. Kohn, N. Gildemeister, S. Grimme, D. Fazzi, A. Hansen,
     J. Chem. Phys., 2023, just accepted.
   
   for PTB refer to:
   * S. Grimme, M. Mueller, A. Hansen, J. Chem. Phys., 2023, 158, 124111.
     DOI: 10.1063/5.0137838
   
   with help from (in alphabetical order)
   P. Atkinson, C. Bannwarth, F. Bohle, G. Brandenburg, E. Caldeweyher
   M. Checinski, S. Dohm, S. Ehlert, S. Ehrlich, I. Gerasimov, C. Hölzer
   A. Katbashev, J. Kohn, J. Koopman, C. Lavigne, S. Lehtola, F. März, M. Müller,
   F. Musil, H. Neugebauer, J. Pisarek, C. Plett, P. Pracht, F. Pultar,
   J. Seibert, P. Shushkov, S. Spicher, M. Stahn, M. Steiner, T. Strunk,
   J. Stückrath, T. Rose, and J. Unsleber
   
 * started run on 2025/03/04 at 11:29:58.847     
   ID    Z sym.   atoms
    1    6 C      1-9, 11, 12, 14-21, 24-35, 42, 43, 77-85, 87, 88, 90-97,
                  100-111, 118, 119
    2    7 N      10, 13, 86, 89
    3    8 O      22, 23, 98, 99
    4    1 H      36-41, 44-76, 112-117, 120-152

           -------------------------------------------------
          |                Calculation Setup                |
           -------------------------------------------------

          program call               : xtb opt_dimer.mol --dipro 0.3 --chrg 0 --uhf 2 --spinpol --tblite
          coordinate file            : opt_dimer.mol
          omp threads                :                     8


molecular fragmentation (1/2 indicates fragments):
111111111111111111111111111111111111111111111111111111111111111111111111
111122222222222222222222222222222222222222222222222222222222222222222222
22222222
# atoms in fragment 1/2:    76    76
 fragment masses (1/2) :      495.68      495.68
CMA distance (Bohr)    :  13.961
constraining FC (au)   :  0.0500
Wavefunction read from restart file
           -------------------------------------------------
          |                    D I P R O                    |
           -------------------------------------------------
Calculation for dimer 
--------------------- 
  
charge of dimer :   0.
unpaired e- of dimer :  2
repulsion energy          3.2398773312073E+00 Eh
dispersion energy         1.0308931415098E-02 Eh
number of electrons       3.8600000000000E+02 e
integral cutoff           1.7347787504999E+01 bohr

------------------------------------------------------------
  cycle        total energy    energy error   density error
------------------------------------------------------------
      1     -208.7477347021  -2.1199792E+02   1.2353830E-01
      2     -209.1109092677  -3.6317457E-01   6.0942105E-02
      3     -209.0766366303   3.4272637E-02   3.6213509E-02
      4     -209.1655200622  -8.8883432E-02   1.5473057E-02
      5     -209.1990778696  -3.3557807E-02   4.8903118E-03
      6     -209.1998727723  -7.9490268E-04   2.5480453E-03
      7     -209.2007443122  -8.7153994E-04   1.3555035E-03
      8     -209.2010109049  -2.6659265E-04   5.9152990E-04
      9     -209.2010555755  -4.4670592E-05   2.1363058E-04
     10     -209.2010604324  -4.8569112E-06   9.5107204E-05
     11     -209.2010616522  -1.2197837E-06   4.4590171E-05
     12     -209.2010618424  -1.9017764E-07   2.5764503E-05
     13     -209.2010619163  -7.3953856E-08   1.3378652E-05
------------------------------------------------------------

electronic energy        -2.1245124817893E+02 Eh
total energy             -2.0920106191631E+02 Eh

 total:                                   1.379 sec
 - repulsion                              0.000 sec (  0%)
 - dispersion                             0.006 sec (  0%)
 - coulomb                                0.002 sec (  0%)
 - hamiltonian                            0.006 sec (  0%)
 - scc                                    1.365 sec ( 98%)

Found 2 fragments!
Fragment 1:  1-76
Fragment 2:  77-152

[Info] Fragment spin read from .UHFfrag
Calculation for fragment 1
 ------------------------------
   
charge of fragment :   0.
unpaired e- of fragment :  1
------------------------------------------------------------
  cycle        total energy    energy error   density error
------------------------------------------------------------
      1     -104.3575907762  -1.0597902E+02   1.2327690E-01
      2     -104.5395198877  -1.8192911E-01   6.0439898E-02
      3     -104.5214314234   1.8088464E-02   3.6573741E-02
      4     -104.5695114503  -4.8080027E-02   1.5460003E-02
      5     -104.5866982257  -1.7186775E-02   4.8543957E-03
      6     -104.5870844792  -3.8625344E-04   2.4524937E-03
      7     -104.5874190368  -3.3455763E-04   1.3296138E-03
      8     -104.5875327528  -1.1371605E-04   5.9053453E-04
      9     -104.5875553144  -2.2561600E-05   1.9934612E-04
     10     -104.5875571240  -1.8096163E-06   8.5073827E-05
     11     -104.5875575972  -4.7317674E-07   3.5821217E-05
     12     -104.5875576414  -4.4166839E-08   1.7979996E-05
------------------------------------------------------------

 total:                                   0.500 sec
Calculation for fragment 2
 ------------------------------
   
charge of fragment :   0.
unpaired e- of fragment :  1
------------------------------------------------------------
  cycle        total energy    energy error   density error
------------------------------------------------------------
      1     -104.3580091569  -1.0597798E+02   1.2407905E-01
      2     -104.5395230512  -1.8151389E-01   6.1818384E-02
      3     -104.5196962777   1.9826774E-02   3.6791167E-02
      4     -104.5675691084  -4.7872831E-02   1.6131034E-02
      5     -104.5856950781  -1.8125970E-02   4.8001189E-03
      6     -104.5861736710  -4.7859299E-04   2.1046399E-03
      7     -104.5863668834  -1.9321230E-04   1.0889067E-03
      8     -104.5864147699  -4.7886564E-05   5.4731969E-04
      9     -104.5864351135  -2.0343611E-05   2.1814786E-04
     10     -104.5864383148  -3.2012293E-06   8.8012375E-05
     11     -104.5864388831  -5.6838179E-07   3.5547649E-05
     12     -104.5864389287  -4.5612481E-08   1.7135343E-05
------------------------------------------------------------

 total:                                   0.291 sec
   
   ::::::::::::::::::::::::::::::::::::::::::::::
   ::     D I P R O      C O U P L I N G S     ::
   ::::::::::::::::::::::::::::::::::::::::::::::
   
energy threshhold for near-degenerate orbitals near HOMO and LUMO considered for DIPRO:  0.300 eV
no. of orbitals within energy window of frag 1         2
no. of orbitals within energy window of frag 2         2
   
  Fragment 1 SOMO   Fragment 2 SOMO 
--------------------------------------
E_mon(orb) frag1 frag2              -9.503    -9.391 eV
J(AB):               -0.008 eV
S(AB):             0.00039712 Eh
|J(AB,eff)|:            0.004 eV
   
  Fragment 1 SOMO   Fragment 2 LUMO 
--------------------------------------
E_mon(orb) frag1 frag2              -9.503    -8.997 eV
J(AB):                0.011 eV
S(AB):            -0.00058827 Eh
|J(AB,eff)|:            0.006 eV
   
  Fragment 1 LUMO   Fragment 2 SOMO 
--------------------------------------
E_mon(orb) frag1 frag2              -9.071    -9.391 eV
J(AB):               -0.006 eV
S(AB):             0.00025935 Eh
|J(AB,eff)|:            0.004 eV
   
  Fragment 1 LUMO   Fragment 2 LUMO 
--------------------------------------
E_mon(orb) frag1 frag2              -9.071    -8.997 eV
J(AB):                0.017 eV
S(AB):            -0.00066495 Eh
|J(AB,eff)|:            0.011 eV
   
..............................................................................
:  total |J(AB,eff)| for hole transport (occ. MOs) :               0.004 eV  :
:  total |J(AB,eff)| for charge transport (unocc. MOs) :           0.011 eV  :
:  total |J(AB,eff)| for charge transfer (CT) :                    0.007 eV  :
..............................................................................
  
 Please remember, DIPRO is not available for restart!
   
normal termination of dipro
----------------------------------------------------------
 * finished run on 2025/03/04 at 11:30:01.038     
----------------------------------------------------------
 dipro:
 * wall-time:     0 d,  0 h,  0 min,  2.183 sec
 *  cpu-time:     0 d,  0 h,  0 min,  7.947 sec
 * ratio c/w:     3.640 speedup
Reorganization energy (electron): 0.08074951556168519 eV
Reorganization energy (hole): 0.1993657083026666 eV
Electron Transfer integral J: 0.011 eV
Hole Transfer integral J: 0.004 eV
