152
 energy: -209.180860899203 gnorm: 0.098908071164 xtb: 6.7.1 (edcfbbe)
C           -2.49360000000000        2.13460000000000       -2.19250000000000
C           -2.36020000000000        1.03370000000000       -1.34990000000000
C           -1.49670000000000        1.15590000000000       -0.20990000000000
C           -0.54790000000000        2.21700000000000       -0.19660000000000
C           -0.70910000000000        3.27250000000000       -1.11260000000000
C           -1.70420000000000        3.27410000000000       -2.06670000000000
C           -1.48740000000000        0.25150000000000        0.90110000000000
C           -0.31360000000000        0.21370000000000        1.66430000000000
C            0.66660000000000        1.22880000000000        1.50690000000000
N            0.50830000000000        2.26090000000000        0.65130000000000
C           -2.57200000000000       -0.55790000000000        1.37060000000000
C           -2.26030000000000       -1.63040000000000        2.24600000000000
N           -1.03300000000000       -1.80880000000000        2.79360000000000
C           -0.12620000000000       -0.82480000000000        2.61340000000000
C            1.04510000000000       -0.81780000000000        3.38250000000000
C            1.99710000000000        0.18300000000000        3.27090000000000
C            1.80110000000000        1.18100000000000        2.32910000000000
C           -3.94730000000000       -0.25180000000000        1.11660000000000
C           -4.92160000000000       -1.14530000000000        1.55500000000000
C           -4.61170000000000       -2.27480000000000        2.30800000000000
C           -3.29590000000000       -2.49170000000000        2.64610000000000
O           -4.26040000000000        0.98070000000000        0.54830000000000
O           -3.03620000000000       -0.13890000000000       -1.72420000000000
C           -1.92200000000000        4.45250000000000       -3.02610000000000
C           -5.69120000000000       -3.20220000000000        2.88340000000000
C            3.25420000000000        0.20430000000000        4.15190000000000
C           -7.08890000000000       -2.86490000000000        2.33080000000000
C           -5.36630000000000       -4.66240000000000        2.51740000000000
C           -5.71330000000000       -3.04120000000000        4.41500000000000
C            4.48260000000000       -0.12250000000000        3.28690000000000
C            3.41850000000000        1.60240000000000        4.77650000000000
C            3.16180000000000       -0.82640000000000        5.29490000000000
C           -3.39340000000000        4.90190000000000       -2.95080000000000
C           -1.58650000000000        4.00820000000000       -4.46050000000000
C           -1.03130000000000        5.65580000000000       -2.66170000000000
H           -0.02270000000000        4.09450000000000       -1.03810000000000
H           -3.19800000000000        2.05800000000000       -2.99940000000000
H            2.53340000000000        1.95700000000000        2.20930000000000
H            1.17340000000000       -1.61450000000000        4.08960000000000
H           -3.04120000000000       -3.31260000000000        3.28900000000000
H           -5.94990000000000       -0.92410000000000        1.35030000000000
C           -5.57730000000000        1.10130000000000        0.06500000000000
C           -2.30390000000000       -1.33480000000000       -1.53070000000000
H           -1.21810000000000        5.98470000000000       -1.63980000000000
H           -1.23090000000000        6.49870000000000       -3.32290000000000
H            0.02510000000000        5.40750000000000       -2.75800000000000
H           -2.22700000000000        3.18700000000000       -4.77920000000000
H           -0.55260000000000        3.67080000000000       -4.52670000000000
H           -1.72010000000000        4.82910000000000       -5.16450000000000
H           -4.06890000000000        4.10420000000000       -3.25620000000000
H           -3.57410000000000        5.75730000000000       -3.60100000000000
H           -3.65500000000000        5.18980000000000       -1.93290000000000
H            4.60100000000000        0.60480000000000        2.48470000000000
H            4.38260000000000       -1.10780000000000        2.83260000000000
H            5.39370000000000       -0.11600000000000        3.88480000000000
H            3.13750000000000       -1.84470000000000        4.90890000000000
H            2.26680000000000       -0.66370000000000        5.89350000000000
H            4.02240000000000       -0.74950000000000        5.95840000000000
H            3.59740000000000        2.36270000000000        4.01830000000000
H            4.26070000000000        1.62280000000000        5.46630000000000
H            2.52090000000000        1.88280000000000        5.32540000000000
H           -5.93680000000000       -2.01050000000000        4.68870000000000
H           -4.74910000000000       -3.29640000000000        4.85290000000000
H           -6.46860000000000       -3.68380000000000        4.86620000000000
H           -5.30560000000000       -4.78310000000000        1.43630000000000
H           -6.13640000000000       -5.33750000000000        2.88960000000000
H           -4.41580000000000       -4.97880000000000        2.94410000000000
H           -7.10490000000000       -2.92980000000000        1.24320000000000
H           -7.39700000000000       -1.86170000000000        2.62320000000000
H           -7.83430000000000       -3.56030000000000        2.71570000000000
H           -2.44080000000000       -1.97520000000000       -2.40250000000000
H           -2.67790000000000       -1.85590000000000       -0.65000000000000
H           -1.24170000000000       -1.11770000000000       -1.41150000000000
H           -5.65380000000000        2.03130000000000       -0.49910000000000
H           -6.28340000000000        1.13280000000000        0.89530000000000
H           -5.79990000000000        0.26650000000000       -0.60080000000000
C           -2.67530000000000        0.67800000000000        4.84120000000000
C           -2.06720000000000       -0.23390000000000        5.70130000000000
C           -1.03650000000000        0.24600000000000        6.57890000000000
C           -0.42520000000000        1.49510000000000        6.27900000000000
C           -1.06720000000000        2.34830000000000        5.36380000000000
C           -2.22080000000000        1.98810000000000        4.70120000000000
C           -0.52000000000000       -0.48500000000000        7.69710000000000
C            0.77100000000000       -0.15010000000000        8.12140000000000
C            1.37460000000000        1.05060000000000        7.66260000000000
N            0.75060000000000        1.89910000000000        6.81800000000000
C           -1.17400000000000       -1.53260000000000        8.41990000000000
C           -0.36380000000000       -2.41520000000000        9.18250000000000
N            0.94480000000000       -2.18050000000000        9.44520000000000
C            1.46980000000000       -1.01650000000000        9.00430000000000
C            2.76770000000000       -0.65550000000000        9.39340000000000
C            3.36730000000000        0.52340000000000        8.97620000000000
C            2.65820000000000        1.36340000000000        8.13260000000000
C           -2.59760000000000       -1.68320000000000        8.46870000000000
C           -3.11860000000000       -2.85300000000000        9.01500000000000
C           -2.31120000000000       -3.82160000000000        9.60790000000000
C           -0.96150000000000       -3.56850000000000        9.72070000000000
O           -3.39290000000000       -0.62500000000000        8.03800000000000
O           -2.47470000000000       -1.57600000000000        5.60820000000000
C           -2.94000000000000        3.02020000000000        3.82000000000000
C           -2.88730000000000       -5.12530000000000       10.18010000000000
C            4.77250000000000        0.93470000000000        9.44170000000000
C           -4.39560000000000       -5.25840000000000        9.89370000000000
C           -2.16750000000000       -6.32410000000000        9.53440000000000
C           -2.67380000000000       -5.14930000000000       11.70380000000000
C            5.66540000000000        1.20460000000000        8.21630000000000
C            4.66530000000000        2.21150000000000       10.29420000000000
C            5.43790000000000       -0.16680000000000       10.28890000000000
C           -4.29390000000000        2.48760000000000        3.31720000000000
C           -2.06090000000000        3.35890000000000        2.60640000000000
C           -3.20420000000000        4.29750000000000        4.64010000000000
H           -0.63290000000000        3.31690000000000        5.19900000000000
H           -3.47990000000000        0.31300000000000        4.23180000000000
H            3.09350000000000        2.29210000000000        7.81430000000000
H            3.28660000000000       -1.32790000000000       10.04930000000000
H           -0.32690000000000       -4.26000000000000       10.24320000000000
H           -4.18100000000000       -2.99390000000000        9.00700000000000
C           -4.75350000000000       -0.93530000000000        7.85500000000000
C           -1.42490000000000       -2.52760000000000        5.67420000000000
H           -3.79440000000000        4.06890000000000        5.52700000000000
H           -3.75140000000000        5.03270000000000        4.05070000000000
H           -2.27470000000000        4.76140000000000        4.96640000000000
H           -1.88070000000000        2.46670000000000        2.01200000000000
H           -1.09430000000000        3.75590000000000        2.91290000000000
H           -2.54230000000000        4.09640000000000        1.96500000000000
H           -4.15510000000000        1.62500000000000        2.66990000000000
H           -4.81840000000000        3.24670000000000        2.73780000000000
H           -4.93520000000000        2.19740000000000        4.14890000000000
H            5.28490000000000        2.03390000000000        7.62230000000000
H            5.71730000000000        0.32510000000000        7.57520000000000
H            6.68000000000000        1.45780000000000        8.52260000000000
H            5.52430000000000       -1.09520000000000        9.72510000000000
H            4.86810000000000       -0.36330000000000       11.19640000000000
H            6.44170000000000        0.13140000000000       10.59060000000000
H            4.23960000000000        3.03370000000000        9.72060000000000
H            5.64520000000000        2.52530000000000       10.65250000000000
H            4.02630000000000        2.04280000000000       11.16050000000000
H           -3.16090000000000       -4.29550000000000       12.17370000000000
H           -1.61480000000000       -5.10980000000000       11.95510000000000
H           -3.08720000000000       -6.05760000000000       12.14140000000000
H           -2.28680000000000       -6.30570000000000        8.45150000000000
H           -2.57190000000000       -7.26650000000000        9.90270000000000
H           -1.10080000000000       -6.31230000000000        9.75360000000000
H           -4.59500000000000       -5.22480000000000        8.82280000000000
H           -4.96030000000000       -4.46200000000000       10.37730000000000
H           -4.77820000000000       -6.20620000000000       10.27160000000000
H           -1.63660000000000       -3.24590000000000        6.46630000000000
H           -0.46830000000000       -2.04240000000000        5.86360000000000
H           -1.36090000000000       -3.05470000000000        4.72320000000000
H           -5.23930000000000       -0.08650000000000        7.37260000000000
H           -5.23020000000000       -1.11600000000000        8.81890000000000
H           -4.84650000000000       -1.80820000000000        7.20780000000000
152
 energy: -209.194386090892 gnorm: 0.042345328817 xtb: 6.7.1 (edcfbbe)
C           -2.48494102735896        2.12934634410993       -2.19650393575403
C           -2.35270512135216        1.04285494003817       -1.35027855710599
C           -1.50073404359094        1.14489734419060       -0.22203848221630
C           -0.55039022650425        2.20974498514683       -0.20157713134303
C           -0.70586723467800        3.27768769406084       -1.10908899565876
C           -1.70131195042682        3.28245174518762       -2.06020809768905
C           -1.49597862231567        0.25580895725634        0.89636735521212
C           -0.32404156889595        0.21822446261831        1.66261656543065
C            0.66612311216308        1.22467339426651        1.49602367888258
N            0.49647080160041        2.24590569344091        0.64442056745331
C           -2.58167168634386       -0.54619512940774        1.36823393236216
C           -2.26413575381961       -1.61808581703484        2.25059387962944
N           -1.04009484779292       -1.79250818126538        2.78379996709426
C           -0.13793461000915       -0.81580490883867        2.61778035736316
C            1.04317820683579       -0.82040851077130        3.38386223981036
C            1.99819559461412        0.18181744315490        3.27021127686811
C            1.80500771151587        1.18277952248995        2.32334618590096
C           -3.94887728256088       -0.27152799225811        1.10432419350946
C           -4.92061776088106       -1.14591121581393        1.56116531347129
C           -4.60598572178512       -2.27804038454609        2.32035737523704
C           -3.28913865589469       -2.49766211554433        2.65044360174698
O           -4.25248931591060        0.93311031451167        0.50786859777994
O           -3.01778171880492       -0.11825691380646       -1.71325518756442
C           -1.91946051626064        4.45238617420230       -3.01951151843881
C           -5.68852732087133       -3.20139713177298        2.87933970369915
C            3.24892824338540        0.20423951585163        4.14989566956092
C           -7.08322460561748       -2.86717080350446        2.33168055156725
C           -5.36441204481879       -4.65789901609508        2.51523151640914
C           -5.70940687470828       -3.03922814508715        4.40757894505031
C            4.47359862857499       -0.12206611908373        3.28282502669507
C            3.41399226032767        1.60032639669656        4.76862140464504
C            3.16334486940484       -0.82360635270157        5.28740796090036
C           -3.38885031259605        4.89620234280416       -2.94659179212204
C           -1.58682840737153        4.00544278163470       -4.45134142333748
C           -1.03385995438293        5.65331878492949       -2.66288260485965
H           -0.00386977426764        4.08817568159568       -1.03053177254645
H           -3.19218615576323        2.04365195352079       -3.00551262593755
H            2.53148163798462        1.96834529560271        2.20210341483773
H            1.16618340037927       -1.62551276440698        4.08625114333326
H           -3.02242769113118       -3.31637941946325        3.29474359833491
H           -5.95101946121616       -0.92723988231247        1.35213034680198
C           -5.57417202852183        1.09307934524295        0.05174065378903
C           -2.30642011316004       -1.32831454590540       -1.52922945712437
H           -1.22214161988534        5.98245505093035       -1.64289632350607
H           -1.24626244858965        6.48596834296471       -3.33123293024956
H            0.02073188444357        5.40660502822686       -2.76532444351784
H           -2.22765094111116        3.18627615144287       -4.77005810863451
H           -0.55279434196005        3.67151875324978       -4.51543568991720
H           -1.72291557075143        4.83099072310838       -5.14814191401230
H           -4.06267642598464        4.09988161887709       -3.25399808379684
H           -3.55937249418861        5.75042150986186       -3.59970949217122
H           -3.64657778192966        5.18634357726718       -1.92963119663569
H            4.59178135490989        0.60628319849835        2.48326515263217
H            4.37434160950244       -1.10851223837161        2.83276844263443
H            5.37833311623097       -0.11225324641015        3.88863559612055
H            3.14745642229837       -1.84206394361429        4.90361838618935
H            2.27240729946234       -0.65942219582948        5.88893426411075
H            4.02634346097153       -0.73149764220053        5.94372781287839
H            3.59960688337792        2.35683868819676        4.01037193836874
H            4.25761945626974        1.60504701467100        5.45569476064091
H            2.51797709873891        1.88072548481716        5.31811393613622
H           -5.93635840127663       -2.00910678905859        4.67751082207859
H           -4.74508144137029       -3.29226238796800        4.84228667349761
H           -6.46733002267028       -3.68526738463917        4.84862066499426
H           -5.30587826886861       -4.77604800931534        1.43474680715080
H           -6.13967007138770       -5.32380082643366        2.89070057197325
H           -4.41631612020405       -4.97309235079017        2.94344547337889
H           -7.10073088906629       -2.93447157446739        1.24518305680145
H           -7.39555927973439       -1.86827123313850        2.63092583567227
H           -7.81661786095763       -3.57017001333322        2.72251118276746
H           -2.46267575657144       -1.94840239620957       -2.41452728524015
H           -2.67462993521877       -1.86725713957674       -0.65269821967278
H           -1.23712611456563       -1.13987880139527       -1.41389983929889
H           -5.61288941400952        2.03212522692871       -0.49997515344156
H           -6.28050523566573        1.14684468535384        0.88632822832783
H           -5.83697167913079        0.27073245921155       -0.61839461863683
C           -2.66486665305540        0.67352737249891        4.83926863757601
C           -2.05390376159604       -0.22533005228487        5.69755346543529
C           -1.04000975151592        0.23656338230086        6.57454646182221
C           -0.42811090514137        1.49068241828084        6.27933628800477
C           -1.06557116914181        2.35555333943676        5.36731085911970
C           -2.22299010483240        1.99693494307629        4.71102658470924
C           -0.53025799667055       -0.48326652034488        7.69838010736348
C            0.76045231413339       -0.14840034726820        8.12518168712601
C            1.37096823346541        1.04748186710689        7.65879604815080
N            0.73673114858546        1.88770864379552        6.82704580562990
C           -1.18828168797727       -1.52060012834378        8.42690951079694
C           -0.37049272360852       -2.40464107425870        9.18880051918973
N            0.93185043030715       -2.16898748978897        9.43785609678165
C            1.45821342465693       -1.01099884958029        9.01392562182661
C            2.76669515749361       -0.65891271054367        9.39944655876045
C            3.36569743746795        0.52363780745798        8.98227480444728
C            2.65691755967137        1.36907882445878        8.13497969678067
C           -2.59618098083607       -1.69297697706215        8.47284661901573
C           -3.11593868960094       -2.85162281008468        9.02290642879923
C           -2.30161263776548       -3.82657020251095        9.61145899743616
C           -0.95332722407229       -3.57165884206925        9.72399821191185
O           -3.38053525920692       -0.65424792566770        8.02941018011624
O           -2.45300479473496       -1.54943717032827        5.61866737358208
C           -2.94275152779317        3.02048478772794        3.83146480491850
C           -2.88627335206341       -5.12163543574374       10.17758467745067
C            4.76804928994056        0.92906777035223        9.44235396388717
C           -4.38954415683111       -5.25741981805195        9.89473783616761
C           -2.16755723373736       -6.31733785023326        9.53398261617181
C           -2.67264135918661       -5.14536778426842       11.69812420604906
C            5.65756806726404        1.20159436513689        8.21925011820183
C            4.65940845798424        2.20568428585926       10.28996580584706
C            5.43575465978098       -0.16419250989912       10.28708389437320
C           -4.29286959582168        2.49518466727244        3.33265281766783
C           -2.06589859279096        3.35875818183354        2.61967707708956
C           -3.20215209377830        4.29502167809757        4.64812229335672
H           -0.61372822869956        3.31855507319668        5.19893020876805
H           -3.47532768138682        0.30034293827868        4.23636808384473
H            3.08585789880363        2.30285806184427        7.81227687948611
H            3.28103404885524       -1.34268225545796       10.05099677673259
H           -0.30762491136068       -4.25264649817336       10.25191169278363
H           -4.17999289195635       -2.99590008675590        9.01237562178340
C           -4.74788144823553       -0.93695705459861        7.85192960511259
C           -1.42682575528426       -2.52727753923869        5.67862801812166
H           -3.79345086554288        4.06486559526772        5.53241420811235
H           -3.74921909935258        5.01985278876744        4.04723202687138
H           -2.27298437611857        4.75857317501592        4.96901075092757
H           -1.89667311998275        2.46705381738452        2.02585806257391
H           -1.09822149266433        3.75308084080707        2.92187331457103
H           -2.55256320910655        4.09519938901084        1.98269648035060
H           -4.14935864377324        1.63792008697098        2.68633485983228
H           -4.80327459626464        3.26194925622800        2.75213666500753
H           -4.93416123009417        2.20836966842849        4.16422748973941
H            5.27853962581392        2.03157824609005        7.62771654104887
H            5.71043758286819        0.32048034414103        7.58190220480974
H            6.66877180670837        1.45288770808689        8.53524308538050
H            5.52499904684503       -1.09064446833634        9.72285924731505
H            4.87015868090992       -0.35616618432744       11.19651462278810
H            6.43684226878244        0.14859693015295       10.57898291289859
H            4.23542108645544        3.02656183754882        9.71581959663279
H            5.64286726087463        2.51164239407404       10.64304753273577
H            4.02340220217953        2.03422576466170       11.15656612666471
H           -3.16161641261310       -4.29222510458547       12.16516425252789
H           -1.61501028796776       -5.10699398868956       11.94753108619629
H           -3.08944936622320       -6.05559490754770       12.12630994090351
H           -2.29008493598369       -6.29794703666961        8.45244696249054
H           -2.57903221408846       -7.25334098308659        9.90813574709689
H           -1.10313890796174       -6.30527989614560        9.75466052097136
H           -4.58903829069507       -5.22784735857237        8.82478625670844
H           -4.95547900209376       -4.46674605977626       10.38407804658105
H           -4.75681036912188       -6.20843052565008       10.27638820370495
H           -1.64417303235675       -3.24537318217829        6.47286496067542
H           -0.45563041195506       -2.07160813762884        5.86190852656133
H           -1.37877010544049       -3.04260654087092        4.71758404875572
H           -5.19930318353693       -0.06850924002384        7.37212321395220
H           -5.24258746551100       -1.10691476637280        8.81319509632712
H           -4.87156243099740       -1.80659704141793        7.20136409679146
152
 energy: -209.198599972491 gnorm: 0.010902654066 xtb: 6.7.1 (edcfbbe)
C           -2.47188573807992        2.12453125683802       -2.20387053692026
C           -2.33999893118065        1.04392233464639       -1.35818341996145
C           -1.50143407002469        1.13516044833465       -0.23185320717252
C           -0.54941181763769        2.20397579821355       -0.20451289682477
C           -0.69873572721666        3.27884505371859       -1.10812102745043
C           -1.69301658621540        3.28640440537979       -2.05716818921212
C           -1.50167437724199        0.25818148487934        0.89309368390480
C           -0.33283685980139        0.22238270842323        1.66343738095875
C            0.66465916305762        1.22250576270335        1.48920231883509
N            0.49067864495004        2.23291045897372        0.63715271060284
C           -2.58989899696147       -0.53748392753299        1.36548880920414
C           -2.26801919183234       -1.60831575462173        2.25427659425544
N           -1.04984575638686       -1.77625074367428        2.78386650193168
C           -0.14844455254751       -0.80849148709246        2.62251692639597
C            1.03935693474300       -0.82007187269324        3.38458987000339
C            1.99472229141835        0.18123993193349        3.26734734374077
C            1.80563522019742        1.18266589703679        2.31782169032629
C           -3.95369350201293       -0.28566074401832        1.09613791334268
C           -4.92174164271495       -1.15222581669862        1.56029245297088
C           -4.60126902135796       -2.28412503001211        2.32450791405907
C           -3.28505328579262       -2.50101275049789        2.65252982631524
O           -4.24951175797769        0.89140264131771        0.46927672185329
O           -3.00042315154565       -0.10482847206417       -1.71604942925849
C           -1.91642473832028        4.44998454440343       -3.01262343401743
C           -5.68325265968954       -3.20158721551538        2.87708591550738
C            3.24218048379611        0.20406356190553        4.14181042773544
C           -7.07701261454625       -2.87272433360892        2.33327974309989
C           -5.36139842217896       -4.65613992861461        2.51309100922581
C           -5.70661118641598       -3.03929616653374        4.40391306939672
C            4.46562142745231       -0.12130710031983        3.27388435333597
C            3.41087449026610        1.59787922610467        4.75936862622833
C            3.16696688735239       -0.81844131814831        5.27951766223953
C           -3.38473381659340        4.89085675091267       -2.93960906425046
C           -1.58515797330954        4.00183061108357       -4.44293121082236
C           -1.03729038115422        5.65355459806982       -2.66546818722196
H            0.01327445352759        4.08045779517647       -1.01864206084763
H           -3.17531131860954        2.03075745415861       -3.01723054880219
H            2.52722615090677        1.97334008154010        2.19093012281363
H            1.15657712998956       -1.63161927759271        4.08200082162282
H           -3.00382576550353       -3.31870595980666        3.29355763235435
H           -5.95346789592571       -0.93693325991974        1.35099350636531
C           -5.57140782330160        1.09280704486748        0.03311803892418
C           -2.31223417574528       -1.32725806778533       -1.53863869104159
H           -1.22245692536516        5.98457595268573       -1.64664311440882
H           -1.26165172430962        6.47865639882983       -3.33856780160336
H            0.01657484286473        5.41124598849367       -2.77414364554454
H           -2.22594994382805        3.18367646645793       -4.76026327211735
H           -0.55108403847417        3.67012507195065       -4.50536104184677
H           -1.72370697125385        4.83051918714563       -5.13470166271249
H           -4.05589584797984        4.09396521576951       -3.24711295583199
H           -3.55066852552974        5.74367928578503       -3.59504985173130
H           -3.64063820866760        5.18238465841279       -1.92341213623376
H            4.58163511334285        0.60638812541510        2.47492329241042
H            4.36570327465627       -1.10858845229928        2.82765954029928
H            5.36688438261409       -0.10888050422418        3.88402629850614
H            3.15998940109026       -1.83731335782981        4.89892469367066
H            2.27920332235602       -0.65817897997290        5.88538509631385
H            4.03317235164164       -0.71275032873939        5.92918702073710
H            3.60296491267087        2.35107365615197        4.00112614535004
H            4.25431633762360        1.59221445929606        5.44611371430617
H            2.51582905118408        1.88113003020354        5.30756475203250
H           -5.93767119335443       -2.00927996482213        4.66879259720432
H           -4.74141957634886       -3.28758636063455        4.83615362750695
H           -6.46461287370769       -3.68784016151042        4.84016140685978
H           -5.30519280816991       -4.77207790212422        1.43283882404470
H           -6.13998023395987       -5.31628159553679        2.89019841767232
H           -4.41444458593103       -4.97114426988154        2.94052218883695
H           -7.09849765771277       -2.93988511768906        1.24758945068974
H           -7.39623679282348       -1.87840928125184        2.63803397403863
H           -7.79926334356115       -3.58429427200226        2.72841247467619
H           -2.48878741809024       -1.92709056252720       -2.43529364950213
H           -2.68223242713236       -1.87634484948490       -0.66711596961904
H           -1.23671430011803       -1.16650307467556       -1.42233854744010
H           -5.56760591039418        2.03824855362433       -0.50988271735126
H           -6.27242678137876        1.17047753933370        0.87330036394548
H           -5.88116719705541        0.28411468310033       -0.63872762413446
C           -2.65440335139577        0.67120452518296        4.83792160622442