116
 energy: -22.928061455056 gnorm: 0.329736929581 xtb: 6.6.1 (8d0f1dd)
C           -3.31122850772930        0.79849766164622       -0.92477639677520
C           -2.44380812530352       -0.12270372891954       -0.27661132624697
C           -1.41337090092821        0.39579727573559        0.56335275196199
C           -0.89266158675590        1.65801491088749        0.27377586709581
C           -1.72665675402493        2.51431363229076       -0.49448366572522
C           -2.95444148494349        2.13954154133227       -1.01494489940871
C           -0.74098268209890       -0.43411532818871        1.49825021926784
C            0.56872586496315        0.03782116815119        1.86248088067890
C            1.03782416582094        1.29402317993033        1.50887470833621
N            0.31238977034758        2.07067427098208        0.65193736800696
C           -1.29695700510141       -1.39996043042223        2.41574187746061
C           -0.38243517664656       -2.18060797534842        3.13232615520648
N            0.91308504082021       -1.90366887689689        3.30325166013478
C            1.37712470144904       -0.74872102533751        2.81811050966982
C            2.52149331701875       -0.17739833758153        3.39379298866852
C            2.95849061756259        1.02681208890480        2.95105897606587
C            2.24288949469137        1.78498308775960        2.03503020483770
C           -2.74860936222260       -1.74497937691422        2.38401158947411
C           -3.09416315450955       -2.91614440870436        3.00571134491758
C           -2.16786021984049       -3.77788778654213        3.63251872101904
C           -0.85708937311598       -3.40495313382985        3.68547234358092
O           -3.71994433332149       -0.94984598373544        1.67726658385724
O           -2.55702603277562       -1.47241711578389       -0.57241635275616
C           -3.84297843593025        3.13357444054366       -1.60938954875544
C           -2.68769581069131       -5.03867041417370        4.30484659386931
H           -1.39666850744143        3.51251503834900       -0.76806311868865
H           -4.27662633836220        0.55105838579656       -1.33106614114542
H            2.66329581305412        2.73912661909249        1.72562431984580
H            3.05775395548473       -0.69369546277216        4.16536137542516
H           -0.24710966264510       -4.12034095424229        4.22946223699121
H           -4.11477991332403       -3.04712728052358        3.03244694615357
O           -4.21824883374556        4.03433712717988       -0.87713382485991
O           -4.44510595673734        2.90643496899600       -2.81853501752979
C           -5.44216520282800        3.83300025693726       -3.02488532025093
C            4.23586651889298        1.50004220933226        3.59165660008449
O            5.05927614697201        0.66079890002952        3.91714215179376
O            4.47001334453535        2.86385149488593        3.72605651435371
C            5.79457498613219        3.08584475587818        4.15829123132174
O           -3.82227255313510       -5.27347675879771        4.16636005494405
O           -1.85023202017753       -5.79767454267276        5.06656077253571
C           -2.55119635829503       -6.86252441382958        5.62930343183426
C           -5.07197156564436       -1.42399175670916        1.58830531863830
C           -1.33089900128490       -2.23622472573986       -0.99264499351172
H           -2.54510546830388       -7.76426885143998        4.99136022291012
H           -3.57194749219491       -6.44405511486021        5.74196173723541
H           -2.09133598235598       -7.02043774843818        6.64022264233588
H            5.72707967266424        3.46798026205549        5.10135971236643
H            6.34060091246885        3.78468702308830        3.50069950143490
H            6.17933064298187        2.03010500085905        4.19342358084693
H           -0.91862729772622       -2.57650129080332       -0.01361370304871
H           -0.49769766914251       -1.60651221708571       -1.34094446550576
H           -1.52632419730509       -2.94569707152159       -1.75361447637286
H           -5.11788846557077       -2.41810833635233        1.17520213188926
H           -5.67929807973498       -0.69619639428435        1.04301666067831
H           -5.57598832326623       -1.42383358739762        2.57928294206544
H           -6.13050215934830        3.76035386975488       -2.23272855695873
H           -5.86615610071888        3.45938329385866       -4.02668959924245
H           -5.13479557532099        4.87790991548477       -2.98314551356402
C           -1.38192942069774        3.73616555005018        2.91232598411686
C           -1.84821468128685        2.59982427735607        3.49755545445181
C           -1.05946531454833        2.05730632010638        4.60922730982276
C            0.19893954712228        2.69376791964407        4.86302140881997
C            0.50425395911860        3.94630308659851        4.28768785650746
C           -0.26031777722226        4.46998310053134        3.25072669343212
C           -1.20488993561782        0.74454293276906        5.14851520323437
C           -0.06287609782692        0.02744069315890        5.60930570802864
C            1.19208754369866        0.71421540266195        5.78882868583885
N            1.19428660993148        2.06344359410476        5.62744624321596
C           -2.41361422770794        0.07928500213936        5.25249410304426
C           -2.45851584031083       -1.32662100968547        5.60237876023992
N           -1.29466212405906       -1.98318595734370        5.89916817085159
C           -0.14475655767527       -1.32117560077092        5.98824682881008
C            0.97209270935794       -1.98958449505532        6.53157704134458
C            2.21982707914082       -1.36973967291181        6.68703967237737
C            2.30561929262884       -0.09745313075593        6.26436900324455
C           -3.73018485967715        0.71367583494582        5.25810242262992
C           -4.89964478833448       -0.06184623426677        5.21204641615509
C           -4.82617965800088       -1.39228978090841        5.46901303780036
C           -3.67144193418464       -1.98914944386360        5.67265433266067
O           -3.75568638935321        2.07705011038914        5.52067969627343
O           -2.94192434743730        1.91263938797883        3.01658762327703
C            0.21273512614467        5.50086066357994        2.34765104514621
C           -6.06660304520411       -2.17604633098929        5.80641622556876
H            1.41756699010566        4.38133362238595        4.66974005703471
H           -1.82880610647429        4.11982501512100        2.06992133318584
H            3.26888037378556        0.32655662585251        6.31721410015598
H            0.87146188387207       -3.08471526305024        6.57830423410869
H           -3.67716811065157       -3.05999292755990        5.83019634570050
H           -5.77379677507622        0.43595144608221        4.71017130754348
O            1.34459852619901        5.82615848916894        2.44941456579099
O           -0.74718748219123        6.07961784856304        1.59848183464284
C           -0.21473095568964        7.24015934882472        1.05753806029483
C            3.53228080814219       -2.00967610361154        7.02506769044485
O            3.64093082622715       -3.14437803815732        7.50071391725347
O            4.56565258381079       -1.22937033368332        6.69086985080897
C            5.72579357310716       -1.80692399125161        7.22246151275881
O           -7.04801223588612       -1.95726935745904        5.14194115322235
O           -6.01514389321278       -2.93743591896022        6.94765316328794
C           -7.21292732384718       -3.62681918543340        7.15115816329978
C           -4.95459780685163        2.65960679932188        5.86868674392943
C           -3.68284113682406        2.59129188358641        2.05479246020704
H           -7.43119628931628       -4.22607794725959        6.20622607140901
H           -8.06548455146707       -2.91765848248592        7.29781126410398
H           -7.07314693247270       -4.33087306029711        7.91223421050944
H            6.57332189837178       -1.29353136199234        6.78341268688262
H            5.74663761932316       -2.84282155125561        6.88089468184451
H            5.69426191474290       -1.72781984964892        8.29460302186842
H           -4.10481209541493        3.44288266176275        2.60483747673152
H           -4.49244774344916        1.87419893016926        1.82433103764650
H           -3.18901540870812        2.85154642679373        1.06781919454921
H           -5.55414326821421        2.76698137191684        4.93950725322359
H           -4.78658370641210        3.62090640967288        6.25983200635257
H           -5.43485580473958        1.97242995129449        6.65265772412460
H            0.89164886030839        7.38838561720231        1.13776105146914
H           -0.62894889903848        8.04195665205089        1.64837664327952
H           -0.59282546386754        7.45699159724320        0.03719083132488
116
 energy: -22.506190645404 gnorm: 0.615103971756 xtb: 6.6.1 (8d0f1dd)
C           -3.73767382893344        0.44187461949975       -1.19592536211429
C           -2.69676206558766       -0.43750067576527       -0.85812795792902
C           -1.55557957907312        0.04391197738802       -0.06447256362981
C           -1.14100056805412        1.41441034820005       -0.25408968946602
C           -2.07177764093020        2.29633516479245       -0.90637085298527
C           -3.34371254039812        1.78498013385416       -1.25117176021135
C           -0.59756782792818       -0.91044510708345        0.83666364284550
C            0.49405181026495       -0.23979232853466        1.41494836301063
C            0.77060176476484        1.05726102189230        0.96776649271225
N           -0.04107914315984        1.91409425828288        0.29180819472421
C           -1.17454294181500       -2.09323648824298        1.61499114483132
C           -0.22865296533968       -2.69807881223864        2.45276777368399
N            0.99395272643562       -2.13041092585321        2.77576309094459
C            1.34714076736726       -0.85422080702561        2.34449887534345
C            2.65851460991894       -0.38722929432158        2.69125552309798
C            2.92969848295741        0.84336938346708        2.22771555155708
C            1.91954331535616        1.59872040263244        1.63554078881761
C           -2.52741193518123       -2.57175014493332        1.60446292456488
C           -2.72913550406929       -3.84492021528429        2.07069050318209
C           -1.80699604356216       -4.44440226496265        2.93130205841588
C           -0.56879404700582       -3.88958830206498        3.03275256975961
O           -3.60960956922940       -1.73199838256264        1.27282884418163
O           -2.47117927440710       -1.70870095711430       -1.46167942963192
C           -4.68040411589505        2.75966601365856       -1.32887658693690
C           -2.34732149081833       -5.57026824187016        3.65141155847249
H           -1.71327239798658        3.19981848803130       -1.35942867042874
H           -4.42629748923920        0.01495472725009       -1.83798708857630
H            2.35908791634226        2.45754088913128        1.01575536478044
H            3.43573009955383       -0.75449136645339        3.39024239227468
H            0.15497240302115       -4.36141089670582        3.85295911262599
H           -3.68555356642345       -4.23292704633170        1.68364032303987
O           -4.53582721311350        3.59798244679345       -0.49799071161740
O           -5.85740740774819        2.46641548351189       -2.03325383289632
C           -6.67517355062918        3.50726588627816       -1.65319418533843
C            4.38544036707232        1.24239023472952        2.55103477941333
O            5.33955783147465        0.56219202378120        2.61410057075092
O            4.35338862879209        2.64813090806625        2.86643447173750
C            5.67761192900881        3.12096893027003        3.16646927695685
O           -3.54254626023980       -5.99396912156543        3.66295010573105
O           -1.36875218228637       -6.38034800977543        4.39344295607600
C           -2.03490680698715       -6.60613564331841        5.74460221175938
C           -4.63006006888949       -2.15758086159028        1.94992644425516
C           -3.59405254900263       -2.31639075243000       -2.02736616447846
H           -3.10353467496002       -6.28642332779061        5.66693195606355
H           -1.64621044240784       -6.19650830882184        6.58940789359558
H           -2.12890400514382       -7.66241880026077        5.66463467023565
H            6.27150108157659        2.18943648505561        3.06858838461916
H            5.95365916489552        3.53246766583637        4.20860224215161
H            6.07667769919587        3.92439201769431        2.43701501089111
H           -3.48120959059271       -3.38555039395782       -2.04745188800731
H           -3.95343476231189       -1.73300601285483       -2.88925906507699
H           -4.60193722719330       -2.29387515462588       -1.81371290504876
H           -5.27467783772694       -1.23752321464393        2.22600874548568
H           -4.27504017524291       -2.76142063619264        2.70146708143644
H           -5.54323375372596       -2.55639381331394        1.44611788742682
H           -7.67664802209855        3.11537961904311       -1.79442956968623
H           -6.17846577228286        4.44449751695341       -2.00441647627479
H           -6.68683965629943        3.62049930542213       -0.52907505714956
C           -0.96339514206127        3.72571231673709        3.08387290865680
C           -1.63892569017649        3.08173633267374        4.18792840765743
C           -0.80107383230726        2.54490433766041        5.19780799275495
C            0.63446212150999        2.83781859705337        5.17544269534729
C            1.00842575358012        3.87823034180627        4.26923622180201
C            0.30233887535535        4.26120555113857        3.14161085451130
C           -1.05719654800007        1.32935252037259        5.92832032405574
C            0.17491839224447        0.60286915958737        6.19365683617800
C            1.32074981665583        1.36408097028110        6.61844689456373
N            1.50941373131328        2.54702922417331        6.11488502259549
C           -2.26401831352885        0.63286065105407        6.08558014555608
C           -2.23659531140077       -0.77890377095336        5.83921544995210
N           -1.09696790119496       -1.48252032752018        5.85510433449660
C           -0.09875615269474       -0.76056601794841        6.47814251925453
C            0.86330866926510       -1.28222382651038        7.32784334921227
C            2.07812018535381       -0.62119166720677        7.71110888757572
C            2.27203957361315        0.87601232458346        7.49291624863504
C           -3.34895269963719        1.32116917857118        6.58402541767855
C           -4.64758606667144        0.64289739598784        6.31945932241378
C           -4.68312660221694       -0.54896291498203        5.54889515270622
C           -3.50822133807390       -1.36949291119755        5.39610505122284
O           -3.22637272107321        2.23353803933306        7.61035067448109
O           -2.92391234227436        2.60734149042967        3.88917194120812
C            0.90533048871037        5.01580765635302        1.95207233218210
C           -5.95726699304128       -1.18231677056692        4.87268508102366
H            1.96893983973139        4.19339634055865        4.60261606901029
H           -1.55106032766869        3.98601709466219        2.35372878325582
H            3.15320931977500        1.31505716462156        7.88204549413639
H            0.62752670562999       -2.35597678698195        7.46711524697550
H           -3.61750520532169       -2.29623765263240        4.97378105039232
H           -5.68086481097777        0.98436277078584        6.54366302870588
O            1.97671385686466        5.57248678715725        2.07420312199178
O            0.18239340259428        4.93563734456767        0.78022651824137
C            0.88934119358669        5.52664928724238       -0.06859691603528
C            3.10164426960786       -1.40428358615640        8.43905632034941
O            2.94706660930321       -2.48194925347725        8.76357826457012
O            4.14813601929666       -0.68069654996332        8.92209239949329
C            5.01161710107007       -1.52497104843889        9.54646258551475
O           -6.51854206179169       -0.38545560359645        4.15551018980900
O           -6.28469754992409       -2.49057832824187        5.19747483710814
C           -7.41562290144426       -2.86824491122623        4.57374323499723
C           -4.57972477424999        2.49108848524926        8.11729628660729
C           -3.77748122019473        3.46923942740081        3.10085410216026
H           -7.33881870575014       -2.52800896783875        3.54678798519421
H           -8.46461129394901       -2.63728027624052        5.19934101937584
H           -7.57863018685663       -3.89454566684135        4.43547091545480
H            4.76473631830041       -2.58495869326764        9.06943007810546
H            4.75365377417588       -1.58454934061213       10.66873839036117
H            6.08698945159867       -1.01077458416855        9.46288804519091
H           -4.67819681303825        3.08602472301345        3.41497749966987
H           -3.58060581207916        3.27917000398344        2.07649142540895
H           -3.86584502007374        4.31144681390854        3.73799893268092
H           -5.08968483079517        1.58993092869534        8.54885658886323
H           -5.07920595562504        2.83658006647836        7.28069547163614
H           -4.35155653732811        3.33044962952671        8.65977396498914
H            1.19219110964568        6.52433003660876        0.17875059462625
H            0.31006898022228        5.35226374709986       -1.02042488616792
H            2.08474174734982        5.24598711728443       -0.15235431901415
116
 energy: -22.544616050525 gnorm: 0.589568967232 xtb: 6.6.1 (8d0f1dd)
C           -4.03652779688091        0.49148611306133       -0.96574683985550
C           -3.09268275178376       -0.29052274523877       -0.22439232478868
C           -1.77830465625421        0.11925185991947        0.24227202767256
C           -1.20427037263680        1.03045592819002       -0.55462342572396
C           -2.08150826965253        1.97273198871070       -1.24554168547596
C           -3.44990167358015        1.63663855410687       -1.55994778756224
C           -0.99949096925891       -0.48665528526972        1.25162188950014
C            0.30678282483032       -0.08904485388432        1.35371295703199
C            0.86496212654391        0.87806738408765        0.43988556282341
N            0.13043800963396        1.33974935076958       -0.56720582729195
C           -1.40499789780537       -1.47741480832098        2.24554193140047
C           -0.42111551433648       -2.09233977068570        3.09212410452195
N            0.82903746279144       -1.63658053088408        3.26451547934719
C            1.06133918705214       -0.48174400672369        2.44024513248851
C            2.20772408605648        0.24686799273309        2.69615951359165
C            2.83188899783738        1.05886250228532        1.80181115751128
C            2.24736226758641        1.22905238479442        0.56030392251662
C           -2.75663177101490       -1.74093464405569        2.59093421422060
C           -2.90250277594521       -3.06811427998964        3.00068281683211
C           -1.92063860607546       -3.86859751380128        3.59584952342337
C           -0.59802942511853       -3.40189186667278        3.68983337584239
O           -3.73710925537220       -0.81909072418642        2.62037399579327
O           -3.59137592906201       -1.60328976280164        0.04120941666294
C           -4.55511324824449        2.65640339267808       -1.98721280929338
C           -2.04556384372119       -5.25755637184095        4.07109558793521
H           -1.60774831770021        3.03323018689559       -1.20347129701135
H           -5.09210890588050        0.13355727642694       -1.19600119940633
H            2.50295354954047        1.94352158274060       -0.25215869944671
H            2.90833851615229       -0.15616994259688        3.51496401336203
H            0.14191021492641       -3.76434369892480        4.52291768820486
H           -3.62431865078576       -3.86842144067357        2.90469693280098
O           -4.19138265469769        3.75348952549480       -2.33765759185918
O           -5.75538289302218        2.17823127451239       -2.20803944129437
C           -6.20338300601615        3.08822301430515       -3.06467423957510
C            4.14291182928857        1.60980736837726        2.12469363578784
O            5.02426724138369        1.70550077394662        1.31731650829708
O            4.39323870914704        1.96197941358691        3.44162546991632
C            5.52667808872113        2.79028006981341        3.37181487171851
O           -2.85976223881928       -5.58512981751852        4.98453654073175
O           -1.38114524544013       -6.17525806377614        3.27200533415497
C           -1.42605601464321       -7.25012372766313        3.87536168399597
C           -5.14090335076814       -1.33882523846698        2.61921071798561
C           -4.57257319594484       -2.42351731230413       -0.84085442199974
H           -1.52125034835759       -7.11286311986096        5.02733375464452
H           -0.45448516020164       -7.91490597268162        3.84448774161110
H           -2.48581748028662       -7.61371730832259        3.63881494118055
H            5.54669433852836        2.95112856170486        2.33931264006335
H            6.48326245628441        2.12641467477822        3.50111856862108
H            5.51420749501881        3.64301137307896        3.98103839944885
H           -3.91762974941721       -3.23273697480265       -1.08606665610966
H           -4.68092045930238       -1.86587864503756       -1.89806756884764
H           -5.57604620230380       -2.87852758022290       -0.53797709199181
H           -5.87951758344898       -0.50547447619449        2.45723762936882
H           -5.36729964908460       -1.82439267790648        3.56426016052093
H           -5.27219775211380       -2.02656972327873        1.78913350534733
H           -6.99904749838620        3.78288215174229       -2.67698886792258
H           -6.76824546363406        2.77869457876953       -4.05641678549697
H           -5.31063276388290        3.63474940180201       -3.54404118893895
C           -0.71722331033604        3.42947610521531        2.57289480584513
C           -1.19642684634651        2.32395155161113        3.38361444712797
C           -0.45563014634159        1.98640012405498        4.46922380616463
C            0.81862070822859        2.39221823448376        4.70520251724302
C            1.31611393114468        3.44177142981067        3.83943044526519
C            0.53020723714226        3.94876321398513        2.93819057984705
C           -0.89990848301472        0.77094546044343        5.16705763521584
C            0.07257319982461        0.18277038503248        5.97822722007972
C            1.36353764509228        0.77775728036497        6.19100698219569
N            1.59966774487304        1.99285563134415        5.74404054919944
C           -2.33297984540603        0.29903229464801        5.41126066518158
C           -2.42070949382715       -1.09757161790002        5.62118820769794
N           -1.38805463784611       -1.70712245585639        6.38338503346753
C           -0.30679623908166       -1.01650681998047        6.77554027806491
C            0.79386846087647       -1.57841364115717        7.46902171779805
C            2.07523089039762       -0.94923201005242        7.52903943707745
C            2.32968691932097        0.31913077008189        7.04083046600365
C           -3.45800724146327        1.16293364268530        5.70436147734659
C           -4.71579436706160        0.50788910540104        5.71614011477020
C           -4.86275665939733       -0.88429822811675        5.64488205030694
C           -3.68022115175334       -1.64666672447785        5.82023680125512
O           -3.51740903401586        2.46128524177585        5.72435726682655
O           -2.42568612975133        1.83518500017207        3.11761941335007
C            1.14926534408078        5.25797597860060        2.56015670911497
C           -6.26176764845750       -1.44295424409316        5.74176520590318
H            2.32674697203565        3.66609072280050        4.04068267270141
H           -1.05114887227700        3.63689524360343        1.65606472660904
H            2.98684590050198        1.08792426310219        7.53212507949441
H            0.77118932373683       -2.43018212377324        8.21925384677535
H           -3.98157484690027       -2.71925918680325        5.95845116642722
H           -5.60791175353026        1.13171891159236        5.61446907597595
O            2.31716704100765        5.37493810910472        2.16268376056741
O            0.30105632164599        6.26130991937663        2.53519205815454
C            0.83711702045206        7.56813526902225        2.18156292971574
C            3.09270075735553       -1.43019800010454        8.57597633414875
O            2.80664227798364       -2.63809028879659        8.77160269291448
O            4.11839455819347       -0.70793683576270        9.20247453610983
C            4.40997484988838       -1.42569848751838       10.30696816551975
O           -7.02426559162981       -0.53829839950903        5.50169901473673
O           -6.27668212576032       -2.71091640108909        6.09438809047790
C           -7.77711159828210       -3.25522305691883        6.00300213490342
C           -2.41713815717535        3.21190870799329        6.27407940118727
C           -3.15082460584095        2.15682480422721        1.86523762522564
H           -8.45161595928280       -2.78856463700280        5.09314175944471
H           -8.44460823252575       -3.19331043351836        6.77613994773152
H           -7.63903506771286       -4.36191339215893        5.96802672452249
H            5.01748500192118       -2.27254758078993        9.98352507483710
H            3.31802070932709       -1.58363874774613       10.60780558833436
H            5.10357273533965       -0.91944714448838       11.10929984679365
H           -3.80014177401069        1.39613195359352        1.66120971379789
H           -2.55877045328656        2.26148029241541        1.01117244694191
H           -3.82484860399429        2.81602013861641        2.36522316924627
H           -1.52317942043354        2.74548807639456        6.40447302849529
H           -2.86099204566274        3.38024019891751        7.25275357967467
H           -2.45001169372975        4.14530961257857        5.67049005116915
H            0.99329600180271        7.72127176351974        3.27482435517904
H            0.11713060828598        8.20371455413650        1.66789385654139
H            1.94625613893296        7.46603687966241        1.79731793385418
116
 energy: -22.568036529448 gnorm: 0.584180429087 xtb: 6.6.1 (8d0f1dd)
C           -3.54264405486741        0.05750870001443       -2.15424822187939
C           -2.74955463086735       -0.60204183202380       -1.12436021323257
C           -1.95653208073355        0.31268954037245       -0.31825267233716
C           -1.60959562764707        1.56991875456101       -0.89381157098679
C           -2.41581121218265        2.21364658965221       -1.88095193911360
C           -3.43331044018491        1.35655000193627       -2.57582427068509
C           -1.20450975097461       -0.17992928120832        0.79689614418895
C            0.08896044442603        0.44578290957445        1.15006399257036
C            0.46545401513921        1.68659619425371        0.54058856013481
N           -0.61062163236894        2.17699770459121       -0.31666560411087
C           -1.58639299198863       -1.24592408682420        1.75377908454370
C           -0.65287703107346       -1.65705079057760        2.77306676668235
N            0.58436137471111       -1.22923413535550        2.86110441730829
C            0.88874269405162       -0.13800177236734        2.16373472236404
C            2.10772177465123        0.39372517879942        2.47927607768408
C            2.32640292603828        1.70117254619506        1.98524734959181
C            1.56667579891274        2.32696028984059        1.08518325316956
C           -2.95428293400799       -1.46662008886750        2.11997870402574
C           -3.29240069462018       -2.50886885232732        2.99115412323133
C           -2.31499032570846       -3.29344792822550        3.66746387838240
C           -1.10609487354225       -2.78159523204120        3.56761549562329
O           -3.94434323622734       -0.56783408476564        1.55268986775099
O           -2.92221328288981       -2.03480091809210       -0.90203659656918
C           -4.25027826156385        1.81915757703511       -3.66850699279986
C           -2.71433190695334       -4.37987080584212        4.57267965660612
H           -1.89626469644958        3.18860384223258       -2.03500115419639
H           -4.04051830445748       -0.52596921785985       -2.90515565526150
H            1.93322886574477        3.23291024645352        0.67675208003760
H            2.80643386834173       -0.10610551006502        3.32062576183811
H           -0.28335996994102       -3.22278611726560        4.19537775578221
H           -4.27220281742295       -2.81993860925014        2.97415702378218
O           -3.95573619346598        2.87921644824686       -4.35753350631585