116
 energy: -22.928061455056 gnorm: 0.329736929581 xtb: 6.6.1 (8d0f1dd)
C           -3.31122850772930        0.79849766164622       -0.92477639677520
C           -2.44380812530352       -0.12270372891954       -0.27661132624697
C           -1.41337090092821        0.39579727573559        0.56335275196199
C           -0.89266158675590        1.65801491088749        0.27377586709581
C           -1.72665675402493        2.51431363229076       -0.49448366572522
C           -2.95444148494349        2.13954154133227       -1.01494489940871
C           -0.74098268209890       -0.43411532818871        1.49825021926784
C            0.56872586496315        0.03782116815119        1.86248088067890
C            1.03782416582094        1.29402317993033        1.50887470833621
N            0.31238977034758        2.07067427098208        0.65193736800696
C           -1.29695700510141       -1.39996043042223        2.41574187746061
C           -0.38243517664656       -2.18060797534842        3.13232615520648
N            0.91308504082021       -1.90366887689689        3.30325166013478
C            1.37712470144904       -0.74872102533751        2.81811050966982
C            2.52149331701875       -0.17739833758153        3.39379298866852
C            2.95849061756259        1.02681208890480        2.95105897606587
C            2.24288949469137        1.78498308775960        2.03503020483770
C           -2.74860936222260       -1.74497937691422        2.38401158947411
C           -3.09416315450955       -2.91614440870436        3.00571134491758
C           -2.16786021984049       -3.77788778654213        3.63251872101904
C           -0.85708937311598       -3.40495313382985        3.68547234358092
O           -3.71994433332149       -0.94984598373544        1.67726658385724
O           -2.55702603277562       -1.47241711578389       -0.57241635275616
C           -3.84297843593025        3.13357444054366       -1.60938954875544
C           -2.68769581069131       -5.03867041417370        4.30484659386931
H           -1.39666850744143        3.51251503834900       -0.76806311868865
H           -4.27662633836220        0.55105838579656       -1.33106614114542
H            2.66329581305412        2.73912661909249        1.72562431984580
H            3.05775395548473       -0.69369546277216        4.16536137542516
H           -0.24710966264510       -4.12034095424229        4.22946223699121
H           -4.11477991332403       -3.04712728052358        3.03244694615357
O           -4.21824883374556        4.03433712717988       -0.87713382485991
O           -4.44510595673734        2.90643496899600       -2.81853501752979
C           -5.44216520282800        3.83300025693726       -3.02488532025093
C            4.23586651889298        1.50004220933226        3.59165660008449
O            5.05927614697201        0.66079890002952        3.91714215179376
O            4.47001334453535        2.86385149488593        3.72605651435371
C            5.79457498613219        3.08584475587818        4.15829123132174
O           -3.82227255313510       -5.27347675879771        4.16636005494405
O           -1.85023202017753       -5.79767454267276        5.06656077253571
C           -2.55119635829503       -6.86252441382958        5.62930343183426
C           -5.07197156564436       -1.42399175670916        1.58830531863830
C           -1.33089900128490       -2.23622472573986       -0.99264499351172
H           -2.54510546830388       -7.76426885143998        4.99136022291012
H           -3.57194749219491       -6.44405511486021        5.74196173723541
H           -2.09133598235598       -7.02043774843818        6.64022264233588
H            5.72707967266424        3.46798026205549        5.10135971236643
H            6.34060091246885        3.78468702308830        3.50069950143490
H            6.17933064298187        2.03010500085905        4.19342358084693
H           -0.91862729772622       -2.57650129080332       -0.01361370304871
H           -0.49769766914251       -1.60651221708571       -1.34094446550576
H           -1.52632419730509       -2.94569707152159       -1.75361447637286
H           -5.11788846557077       -2.41810833635233        1.17520213188926
H           -5.67929807973498       -0.69619639428435        1.04301666067831
H           -5.57598832326623       -1.42383358739762        2.57928294206544
H           -6.13050215934830        3.76035386975488       -2.23272855695873
H           -5.86615610071888        3.45938329385866       -4.02668959924245
H           -5.13479557532099        4.87790991548477       -2.98314551356402
C           -1.38192942069774        3.73616555005018        2.91232598411686
C           -1.84821468128685        2.59982427735607        3.49755545445181
C           -1.05946531454833        2.05730632010638        4.60922730982276
C            0.19893954712228        2.69376791964407        4.86302140881997
C            0.50425395911860        3.94630308659851        4.28768785650746
C           -0.26031777722226        4.46998310053134        3.25072669343212
C           -1.20488993561782        0.74454293276906        5.14851520323437
C           -0.06287609782692        0.02744069315890        5.60930570802864
C            1.19208754369866        0.71421540266195        5.78882868583885
N            1.19428660993148        2.06344359410476        5.62744624321596
C           -2.41361422770794        0.07928500213936        5.25249410304426
C           -2.45851584031083       -1.32662100968547        5.60237876023992
N           -1.29466212405906       -1.98318595734370        5.89916817085159
C           -0.14475655767527       -1.32117560077092        5.98824682881008
C            0.97209270935794       -1.98958449505532        6.53157704134458
C            2.21982707914082       -1.36973967291181        6.68703967237737
C            2.30561929262884       -0.09745313075593        6.26436900324455
C           -3.73018485967715        0.71367583494582        5.25810242262992
C           -4.89964478833448       -0.06184623426677        5.21204641615509
C           -4.82617965800088       -1.39228978090841        5.46901303780036
C           -3.67144193418464       -1.98914944386360        5.67265433266067
O           -3.75568638935321        2.07705011038914        5.52067969627343
O           -2.94192434743730        1.91263938797883        3.01658762327703
C            0.21273512614467        5.50086066357994        2.34765104514621
C           -6.06660304520411       -2.17604633098929        5.80641622556876
H            1.41756699010566        4.38133362238595        4.66974005703471
H           -1.82880610647429        4.11982501512100        2.06992133318584
H            3.26888037378556        0.32655662585251        6.31721410015598
H            0.87146188387207       -3.08471526305024        6.57830423410869
H           -3.67716811065157       -3.05999292755990        5.83019634570050
H           -5.77379677507622        0.43595144608221        4.71017130754348
O            1.34459852619901        5.82615848916894        2.44941456579099
O           -0.74718748219123        6.07961784856304        1.59848183464284
C           -0.21473095568964        7.24015934882472        1.05753806029483
C            3.53228080814219       -2.00967610361154        7.02506769044485
O            3.64093082622715       -3.14437803815732        7.50071391725347
O            4.56565258381079       -1.22937033368332        6.69086985080897
C            5.72579357310716       -1.80692399125161        7.22246151275881
O           -7.04801223588612       -1.95726935745904        5.14194115322235
O           -6.01514389321278       -2.93743591896022        6.94765316328794
C           -7.21292732384718       -3.62681918543340        7.15115816329978
C           -4.95459780685163        2.65960679932188        5.86868674392943
C           -3.68284113682406        2.59129188358641        2.05479246020704
H           -7.43119628931628       -4.22607794725959        6.20622607140901
H           -8.06548455146707       -2.91765848248592        7.29781126410398
H           -7.07314693247270       -4.33087306029711        7.91223421050944
H            6.57332189837178       -1.29353136199234        6.78341268688262
H            5.74663761932316       -2.84282155125561        6.88089468184451
H            5.69426191474290       -1.72781984964892        8.29460302186842
H           -4.10481209541493        3.44288266176275        2.60483747673152
H           -4.49244774344916        1.87419893016926        1.82433103764650
H           -3.18901540870812        2.85154642679373        1.06781919454921
H           -5.55414326821421        2.76698137191684        4.93950725322359
H           -4.78658370641210        3.62090640967288        6.25983200635257
H           -5.43485580473958        1.97242995129449        6.65265772412460
H            0.89164886030839        7.38838561720231        1.13776105146914
H           -0.62894889903848        8.04195665205089        1.64837664327952
H           -0.59282546386754        7.45699159724320        0.03719083132488
116
 energy: -22.689311910292 gnorm: 0.526536011405 xtb: 6.6.1 (8d0f1dd)
C           -3.40945239330900        0.57630668715512       -0.59543432965650
C           -2.51013918946166       -0.41084531788463       -0.08798185772113
C           -1.43004764775252        0.02416834719638        0.70286529351083
C           -1.08691037121758        1.37367341026672        0.66340603202639
C           -1.97847144504064        2.34663932712081        0.18114304459459
C           -3.21884478098486        1.95452871383445       -0.39411920532283
C           -0.50544980101838       -0.88362499536415        1.34011787422894
C            0.72858298454435       -0.22492091957887        1.74758976259347
C            0.88221373431666        1.16678858581377        1.62341536807173
N           -0.03195801482901        2.00649382243142        1.24217684144884
C           -0.81175435720786       -2.04193134169529        2.08747157583327
C            0.22415130587350       -2.80251312149564        2.71209490812359
N            1.51263814475426       -2.33122504238465        2.71370825571456
C            1.70188106172305       -1.01521838935758        2.50368418631326
C            2.87548199867865       -0.47515268642079        3.03335186859555
C            3.08342108453093        0.90646860384055        2.93394872017933
C            2.06337423464686        1.70497381890728        2.28163927144790
C           -2.17813826098842       -2.37001776645516        2.45338215144002
C           -2.37487119496312       -3.71057224620905        2.65339308362637
C           -1.41841381694551       -4.61620402952909        2.88059065880578
C           -0.10132020811646       -4.07217799825953        3.07419163657912
O           -3.23049474548942       -1.35432672688263        2.36423730945630
O           -2.30459176332028       -1.71548323883961       -0.54463840589131
C           -4.03708613554410        3.05376577396817       -1.00789857329836
C           -1.84076311163932       -6.03648724167646        3.11508552873858
H           -1.55291108312977        3.31247289859101        0.26139601683952
H           -4.34350262273125       -0.00571986198662       -0.73553363249759
H            2.39721248290271        2.72731420599070        2.28383261416015
H            3.60498160610743       -1.19564866338817        3.66555985724323
H            0.55475598500528       -4.70543503311170        3.45315819811492
H           -3.38929519101515       -4.03248964288087        2.69937127223920
O           -4.26898710672650        4.09901220064744       -0.43162366697667
O           -4.27090476066303        2.84942329916657       -2.28680745621117
C           -4.56732977835477        3.98278058396032       -3.22496272671158
C            4.27637726895045        1.50185673695044        3.46778489010730
O            4.62909294142990        2.61773292693157        3.10524420357042
O            5.01954637500201        0.72174405747626        4.45905661459969
C            5.74265945497994        1.62155171412203        5.27274431940971
O           -3.09554432095569       -6.14541106636197        3.17794264930749
O           -0.88716681594714       -6.91129853538752        3.25151680767208
C           -1.45373853137016       -8.20221973870377        3.64484043987501
C           -4.47534006270599       -1.73228384098207        3.06942990825041
C           -1.67374044319208       -1.70919259030315       -1.77645408177221
H           -2.30051787742768       -8.40583347378405        3.04506913722763
H           -1.90008854762001       -8.07663262395059        4.65706327810435
H           -0.76802729497826       -9.08822858415669        3.51064373151767
H            6.12972349011656        0.89205223209247        6.08431766343348
H            5.44495607334693        2.64798209031410        5.49894198566066
H            6.53540470763257        1.88754054781262        4.72995854602396
H           -1.89957945490336       -0.70180267053987       -2.31148221224667
H           -2.22587556291566       -2.37752644943942       -2.50728716517322
H           -0.66235877140579       -1.83792973473352       -1.55737499768826
H           -4.94513737759821       -2.37407453342387        2.44494155605001
H           -5.07391084733066       -0.74278591204037        3.16033183385268
H           -4.22927736710129       -2.53350518995439        3.73113371722033
H           -5.66111164326952        3.85837412421316       -3.43981992844318
H           -4.09089779243924        3.76913718635038       -4.11720642009576
H           -4.25532515857759        4.85882484301648       -2.93926603640663
C           -1.89500766197570        3.88993425854657        3.02467912574278
C           -2.24766423875379        2.88231053631016        3.90182830980117
C           -1.15168439464888        2.34376306190562        4.56325957856595
C            0.26623066265599        2.75145122534154        4.42681071169882
C            0.50528192509998        3.86127659408210        3.58836358603687
C           -0.60065107038219        4.46927006140053        2.86065555326392
C           -1.38183070992236        1.26398590465286        5.41634251530390
C           -0.23324737961139        0.43120300143208        5.57215721192652
C            1.03362511908866        0.95142791652847        5.38469426037277
N            1.39743700284825        2.13322532206181        4.88116850543169
C           -2.66444993855649        0.68639983791147        5.82295657683912
C           -2.69855125103031       -0.62706547732941        6.02271044537502
N           -1.62090973022089       -1.38273466387832        6.16866546931300
C           -0.42877447692434       -0.82543812056105        6.15575535698652
C            0.74651847803242       -1.47487608268031        6.68674624402863
C            1.94483587623547       -0.85649656711253        6.68901689599502
C            2.14226646751589        0.24285296354082        5.92286322651840
C           -3.74805475785144        1.58831088205121        6.34401239684340
C           -5.00732960629232        0.96238665488400        6.38506905095458
C           -5.12448999986272       -0.42343189012415        6.30412399211086
C           -4.00775564564606       -1.19681309800529        6.14257601695975
O           -3.57272167563694        2.88721866945733        6.69533433386254
O           -3.48902021976871        2.21079263673451        3.95672033318341
C           -0.29274995635966        5.39415035375500        1.70712004343111
C           -6.36852330529799       -1.13855507825820        6.46363221227725
H            1.31940865144925        4.41720013430196        3.57724421097637
H           -2.70272893549120        4.07815283515305        2.30808267028959
H            3.01686477058283        0.93975101903142        6.25651607203109
H            0.75936562205514       -2.45942996135224        7.17380750294917
H           -4.11233073053633       -2.22402009458009        6.09712040835746
H           -5.79659356822909        1.56523231307632        6.68203088864251
O            0.52730991463783        6.28068474658621        1.86266713326534
O           -0.87912464425366        5.05206894091531        0.52192738824991
C           -0.33506612866822        5.90829901511130       -0.41112728339312
C            2.99580820509983       -1.26300422423786        7.55375213945963
O            2.85671100775302       -2.13378695929794        8.40465457918314
O            4.20843441074195       -0.76822337188333        7.08944122316640
C            5.15038372138424       -1.83328807865051        7.13056417270622
O           -7.15043974407135       -0.96419533036273        7.31955817631143
O           -6.56348356488485       -1.91185391550911        5.27565045456933
C           -7.51812346426759       -2.96564516724493        5.46937646922452
C           -4.65727841821832        3.71947040954742        6.49051418269213
C           -4.57987451543766        2.81379909656929        3.20538224489868
H           -7.69294873524495       -2.81689214907031        6.57098823547465
H           -6.99338026498492       -3.97512470929064        5.44206059106497
H           -8.50040982219407       -3.01478218684528        5.01918898769138
H            4.51716577459514       -2.69527122151313        6.81669486409883
H            5.23681910452492       -1.85404662625569        8.21245797821335
H            6.16254923340839       -1.80524108594590        6.72734850356380
H           -4.55021826430516        3.85916651102814        3.14438663622734
H           -5.60205543644215        2.60836948796872        3.69377781039547
H           -4.52343843905136        2.47533592050214        2.19352215663805
H           -4.92161883439958        3.81133637074166        5.45352570282538
H           -4.49086769269958        4.75277094843495        6.81953638897432
H           -5.46379378515340        3.11027726990538        7.10820537652107
H            0.57022750470341        5.62417204442661       -0.84267070328242
H           -0.23350854368958        6.93536259132233       -0.09244808632507
H           -0.90578647085256        5.60372494165865       -1.37406956004236
116
 energy: -22.693423916839 gnorm: 0.553590199821 xtb: 6.6.1 (8d0f1dd)
C           -2.84748762766820       -0.11190642689187       -0.45835356984535
C           -2.05704725696114       -1.00607722466262        0.24784534454701
C           -0.98437786144347       -0.48203736362951        1.10367819516146
C           -0.81114389737296        0.87742086234606        1.10605505301520
C           -1.66470641133698        1.79549994842013        0.47641837061144
C           -2.74605293630260        1.24381675837503       -0.17884035749905
C           -0.12432835657555       -1.23978629343722        1.85960724417661
C            1.00407028361802       -0.49987434951298        2.47403881834020
C            1.15401555554457        0.78935882307328        2.27342366434538
N            0.19536572516259        1.52436321392624        1.74155484855299
C           -0.44711973173671       -2.42432300542391        2.35704956442408
C            0.67138809960184       -3.19513263871936        2.96931765061904
N            1.90793110526707       -2.64255122454294        3.30597082079248
C            2.05272941091068       -1.37372588966655        3.02018975320244
C            3.24102227075482       -0.61291012881347        3.35919374664197
C            3.41440806173330        0.70656440692969        3.15767676513010
C            2.42482589139603        1.37544630591707        2.46918609439244
C           -1.75964528358131       -2.88010958658557        2.60642499847287
C           -1.90835542625465       -4.25328425512481        2.75481444434021
C           -0.81269263598809       -5.08453965046185        2.90391064154634
C            0.38290062141256       -4.51822816100245        3.37926581757800
O           -2.93392801139437       -2.10356063899745        2.68366934746905
O           -2.17710025704755       -2.42524046205908        0.08062872402535
C           -3.36473812128722        2.37086709745621       -1.04949798224618
C           -1.12957273785221       -6.53184845403856        2.74306181954689
H           -1.45582724210862        2.76524306345677        0.38319908818689
H           -3.72708379534407       -0.34033896401883       -1.14037350045800
H            2.66674107257310        2.38747741878784        2.16325617472071
H            4.04087762566844       -1.16035031469368        4.00713145565048
H            1.17252983749526       -5.12742814611125        3.60720665397195
H           -2.83354053890524       -4.74332276118315        2.49855223578157
O           -2.92691758661495        3.46430345892143       -0.94787002772922
O           -4.13888714774873        1.99463490268387       -2.23726179637040
C           -4.52259037329360        3.20767682803633       -2.86843686000508
C            4.86809699458738        1.15913380344254        3.25429138149177
O            5.17743157849156        2.33316712848031        3.03323206346495
O            5.75354127932986        0.19645573485092        3.11264542833022
C            7.01712112674297        0.61648727806281        2.84054433965997
O           -2.27544172871354       -6.81905805127537        2.58152866035503
O           -0.11931019994526       -7.49170129162777        3.04926173072757
C           -0.77155630892420       -8.68731722198252        2.91552333445350
C           -4.15745641965519       -2.89746776809186        2.75298656157063
C           -2.69687978039408       -2.80618157306368       -1.04296288875801
H           -1.56560112938007       -8.94790678196346        3.62001736719608
H            0.10272013709561       -9.43857426480558        2.74519540150140
H           -1.28291556357630       -8.82035173414987        1.92772171773113
H            7.52531413070986       -0.21108890236821        2.46479924666697
H            7.67810421272565        0.56994946618674        3.76139670258419
H            6.93883709830965        1.46301902713253        2.12091095201041
H           -2.36939791691694       -3.84613754562529       -1.15915191408170
H           -2.13208267393457       -2.41999523223890       -2.00464559503358
H           -3.83011746119278       -2.85368534548610       -1.02895814295713
H           -4.41593004770853       -3.45658302108410        1.91283299796235
H           -4.82995986184874       -2.16842283622178        2.83039766397918
H           -4.20881918412154       -3.31297768206797        3.82091969707719
H           -4.77379508788955        2.83584275822002       -3.98346497973298
H           -3.79070687791964        3.91499737020721       -2.92238401686443
H           -5.41130927939963        3.45753205309459       -2.27140025964268
C           -2.03332357216069        4.67443565546068        2.94677828091664
C           -2.32425673672275        3.56780122381860        3.69414910527622
C           -1.43383772218911        2.93320428174194        4.64549022295480
C           -0.12781747729054        3.39344701894103        4.57209795823757
C            0.22357741046245        4.54428104002219        3.86459907066874
C           -0.70263420888423        5.14034990124118        2.99102490337141
C           -1.83863732639181        1.88886298652821        5.52431797944422
C           -0.80813909016968        1.00945083045051        5.92192539703588
C            0.54681873570148        1.38357669684924        5.71964868580372
N            0.85087141546754        2.57006655219717        5.17906257441745
C           -3.13360967517499        1.38792516391200        5.79114603754296
C           -3.28054245830591       -0.03983583357937        6.09720548860745
N           -2.29353734639016       -0.90017295661492        6.37846357185817
C           -1.04548471271153       -0.40232636956745        6.16382517291774
C            0.01300849439707       -1.27293780829691        6.26284746498834
C            1.26880304783701       -0.73706918166628        6.29878761260931
C            1.53233971744331        0.53170870938875        6.08999088321217
C           -4.35081317131358        2.10500202970618        5.73332070294529
C           -5.63267199579182        1.49082065677245        5.53888769905626
C           -5.68742522464683        0.13542408823674        5.96259371414036
C           -4.56738796648904       -0.50578942624061        6.49078526547756
O           -4.25335543736077        3.47544139416554        6.08649597423988
O           -3.48586228467257        2.84082406934574        3.31706357067883
C           -0.36292036394780        6.42199596674478        2.42235567175282
C           -7.06831165728705       -0.64072255202556        5.92202653471643
H            1.21486501694637        4.79443042112674        3.85218327930092
H           -2.77554888521136        5.41172325542333        2.61160778054079
H            2.59917974724348        0.97814466277969        5.97838523769082
H           -0.05372047368824       -2.34255554557310        6.65135296953109
H           -4.78872271152225       -1.30358383468166        7.14792800050803
H           -6.55750337304494        1.99746170652624        5.36045010573693
O            0.77626606502432        6.90815212707666        2.27475175965514
O           -1.44961308234241        7.10535018487635        1.86575076875125
C           -0.74386504468476        8.21846443419846        1.09846935865042
C            2.52158013247771       -1.58247247894843        6.59931495646974
O            2.40106803547131       -2.80011532434010        6.58828423508039
O            3.51808058978941       -0.74079347659054        6.84985710070344
C            4.71695045533519       -1.42311070294889        7.04212702001770
O           -8.14178307663212        0.04883224045703        5.79924057117533
O           -7.25761931158492       -1.98036896528802        6.12400042366500
C           -8.64235188695963       -2.29291474346153        5.81907253481256
C           -4.16328150645642        3.72979636886290        7.44422002753360
C           -4.60617872818596        3.47822331202259        2.82213279716824
H           -9.08068817822111       -1.35933978208212        6.12296671032246
H           -9.10361863415329       -2.99505315911009        6.54955607530797
H           -8.56778439311406       -2.63558417266588        4.72300366217457
H            5.48182660762020       -0.58791783898782        6.78619290194084
H            4.66196325108862       -2.28245555072371        6.37140048121272
H            5.08374398779773       -1.86864755545872        8.06292586094174
H           -5.01307420025328        4.17019221790302        3.53922453013928
H           -5.40686506377675        2.78272302370901        2.83527158519871
H           -4.53553775074594        3.79031283159776        1.77680973312411
H           -4.65383446966885        2.89720673393643        8.03523478269523
H           -4.50685417748315        4.77857634051965        7.70024214136320
H           -3.04662557481471        3.74306830044208        7.83552721723552
H            0.10477821934360        7.70675225147175        0.47798614414973
H           -0.46306429012073        9.15503492948247        1.70782114740639
H           -1.32263112450618        8.59357003066865        0.17411101306355
116
 energy: -22.664153688400 gnorm: 0.505623979925 xtb: 6.6.1 (8d0f1dd)
C           -2.50357889708492        0.03680406850377       -0.86812680705725
C           -1.89261487963658       -0.92322404759598       -0.04463187847465
C           -0.74683004025623       -0.51902247942422        0.77907219779776
C           -0.37941731460215        0.88353725426966        0.79889910440445
C           -1.05500200254898        1.78757834525737       -0.02214684823269
C           -2.28848293618293        1.41815305848012       -0.74487890841394
C            0.07884879193352       -1.48348959715347        1.53118582529589
C            1.38517068861289       -0.92567676825078        1.98402264664520
C            1.71416864458935        0.37973981519629        1.93678517452207
N            0.72546768016699        1.22550969619472        1.47672447043517
C           -0.22322636776979       -2.72263617374586        1.99260406377070
C            0.89080316387696       -3.58964592271299        2.48294890126880
N            2.17261256317963       -3.14960456234402        2.60153700528712
C            2.38085883431005       -1.84268789268960        2.38835436410890
C            3.74642630624021       -1.29721377220060        2.32652399565604
C            4.07467219293342        0.04085679576975        2.21422711476316
C            3.08933780324619        0.93419186297449        1.95581274649328
C           -1.57320384463042       -3.35327550228034        2.32039587065859
C           -1.58246631649370       -4.74612949405373        2.68941773295085
C           -0.51268881724531       -5.41691076944755        3.18038813037054
C            0.76855789096779       -4.83728789094527        3.16395558942346
O           -2.68078821638053       -2.65662478386390        2.54351066638957
O           -2.32461314135878       -2.23399372022558        0.01725177792471
C           -3.04476970626698        2.28880145879109       -1.52411627502555
C           -0.69466724331597       -6.78815061886523        3.78048358317035
H           -0.95580170001962        2.82380097323492       -0.09844297556641
H           -3.37367710519701       -0.30173768213824       -1.44535451291139
H            3.21111778284613        1.95332116019621        1.79854489998384
H            4.51436007786144       -2.00009666047474        2.77539886762728
H            1.66832983962363       -5.27193506074475        3.65286428242112
H           -2.44749980254073       -5.33352595511635        2.84117431152467
O           -2.85134738691773        3.50756281550720       -1.41246820070942