116
 energy: -23.049977905037 gnorm: 0.141097059011 xtb: 6.6.1 (8d0f1dd)
C           -2.24650000000000        2.62960000000000       -2.20080000000000
C           -2.09440000000000        1.45720000000000       -1.49490000000000
C           -1.25180000000000        1.42170000000000       -0.35900000000000
C           -0.34530000000000        2.51630000000000       -0.16350000000000
C           -0.53010000000000        3.70660000000000       -0.90090000000000
C           -1.50800000000000        3.77850000000000       -1.86260000000000
C           -1.16430000000000        0.34350000000000        0.57620000000000
C            0.02140000000000        0.24780000000000        1.31960000000000
C            0.95280000000000        1.32870000000000        1.31420000000000
N            0.70380000000000        2.45650000000000        0.65610000000000
C           -2.15030000000000       -0.66490000000000        0.80380000000000
C           -1.69720000000000       -1.87800000000000        1.41120000000000
N           -0.50870000000000       -1.99460000000000        2.00930000000000
C            0.29570000000000       -0.93570000000000        2.06670000000000
C            1.49870000000000       -1.00990000000000        2.79670000000000
C            2.40280000000000        0.04450000000000        2.77610000000000
C            2.14190000000000        1.20630000000000        2.06190000000000
C           -3.53490000000000       -0.52530000000000        0.51810000000000
C           -4.33950000000000       -1.64650000000000        0.54650000000000
C           -3.83060000000000       -2.89300000000000        0.95160000000000
C           -2.54590000000000       -3.00700000000000        1.42270000000000
O           -3.98440000000000        0.72910000000000        0.31350000000000
O           -2.76640000000000        0.34440000000000       -1.95770000000000
C           -1.71780000000000        5.05930000000000       -2.58480000000000
C           -4.76400000000000       -4.04750000000000        0.91650000000000
H            0.11260000000000        4.54740000000000       -0.69640000000000
H           -2.92420000000000        2.65150000000000       -3.03950000000000
H            2.83510000000000        2.03000000000000        2.06700000000000
H            1.72620000000000       -1.90400000000000        3.35610000000000
H           -2.16690000000000       -3.93060000000000        1.82660000000000
H           -5.38090000000000       -1.60810000000000        0.27170000000000
O           -0.96070000000000        5.99500000000000       -2.55920000000000
O           -2.87470000000000        5.06760000000000       -3.26820000000000
C           -3.16000000000000        6.26170000000000       -3.98130000000000
C            3.67660000000000       -0.12790000000000        3.52740000000000
O            3.89400000000000       -1.03660000000000        4.29170000000000
O            4.56620000000000        0.82270000000000        3.23720000000000
C            5.82820000000000        0.71810000000000        3.88210000000000
O           -5.89460000000000       -3.99300000000000        0.49720000000000
O           -4.21470000000000       -5.16700000000000        1.40440000000000
C           -5.04530000000000       -6.31820000000000        1.39940000000000
C           -5.34020000000000        0.91670000000000       -0.01520000000000
C           -1.94200000000000       -0.70050000000000       -2.43000000000000
H           -4.45650000000000       -7.11930000000000        1.83830000000000
H           -5.33750000000000       -6.57110000000000        0.37810000000000
H           -5.94810000000000       -6.13770000000000        1.98680000000000
H            6.40490000000000        1.58040000000000        3.55710000000000
H            6.32600000000000       -0.20840000000000        3.58780000000000
H            5.70080000000000        0.72090000000000        4.96560000000000
H           -2.61560000000000       -1.50550000000000       -2.71840000000000
H           -1.25130000000000       -1.06730000000000       -1.66480000000000
H           -1.36560000000000       -0.37520000000000       -3.30330000000000
H           -5.46940000000000        1.99280000000000       -0.11230000000000
H           -5.99920000000000        0.54130000000000        0.77380000000000
H           -5.58540000000000        0.43120000000000       -0.96370000000000
H           -4.13980000000000        6.12170000000000       -4.43060000000000
H           -2.40530000000000        6.43300000000000       -4.75160000000000
H           -3.16590000000000        7.11640000000000       -3.30190000000000
C           -2.57080000000000        1.49200000000000        3.26060000000000
C           -2.24110000000000        0.50240000000000        4.17420000000000
C           -1.10540000000000        0.67860000000000        4.99890000000000
C           -0.13650000000000        1.66530000000000        4.60180000000000
C           -0.50070000000000        2.64790000000000        3.65960000000000
C           -1.73670000000000        2.59810000000000        3.05460000000000
C           -0.81790000000000       -0.00390000000000        6.22310000000000
C            0.52870000000000       -0.05380000000000        6.61880000000000
C            1.48160000000000        0.80200000000000        5.99220000000000
N            1.10400000000000        1.70670000000000        5.09170000000000
C           -1.76250000000000       -0.55190000000000        7.14510000000000
C           -1.25730000000000       -1.46870000000000        8.12350000000000
N            0.04440000000000       -1.68720000000000        8.31900000000000
C            0.92410000000000       -0.92290000000000        7.67720000000000
C            2.28940000000000       -0.98200000000000        8.02140000000000
C            3.20940000000000       -0.13560000000000        7.41550000000000
C            2.81930000000000        0.76780000000000        6.43400000000000
C           -3.13120000000000       -0.16600000000000        7.21670000000000
C           -3.97670000000000       -0.82670000000000        8.08180000000000
C           -3.49810000000000       -1.84750000000000        8.92390000000000
C           -2.16140000000000       -2.15380000000000        8.96620000000000
O           -3.50030000000000        0.88510000000000        6.44970000000000
O           -3.05600000000000       -0.58550000000000        4.16220000000000
C           -2.11930000000000        3.70170000000000        2.13720000000000
C           -4.49530000000000       -2.52210000000000        9.79380000000000
H            0.19880000000000        3.43190000000000        3.42010000000000
H           -3.47940000000000        1.39230000000000        2.69140000000000
H            3.51840000000000        1.46640000000000        6.00570000000000
H            2.61170000000000       -1.66790000000000        8.78860000000000
H           -1.76550000000000       -2.87320000000000        9.66220000000000
H           -5.02480000000000       -0.58500000000000        8.15010000000000
O           -1.45730000000000        4.69420000000000        1.96760000000000
O           -3.29780000000000        3.48070000000000        1.53630000000000
C           -3.77760000000000        4.48020000000000        0.64950000000000
C            4.61890000000000       -0.22320000000000        7.88320000000000
O            5.00150000000000       -0.97350000000000        8.74420000000000
O            5.43270000000000        0.63860000000000        7.25350000000000
C            6.79310000000000        0.60550000000000        7.66340000000000
O           -5.67280000000000       -2.25450000000000        9.80620000000000
O           -3.94890000000000       -3.46750000000000       10.56620000000000
C           -4.84170000000000       -4.15520000000000       11.42910000000000
C           -4.84100000000000        1.31390000000000        6.47690000000000
C           -2.57610000000000       -1.85170000000000        4.56430000000000
H           -4.24070000000000       -4.87840000000000       11.97400000000000
H           -5.61810000000000       -4.65900000000000       10.84930000000000
H           -5.31900000000000       -3.45510000000000       12.11800000000000
H            7.28570000000000        1.43440000000000        7.16110000000000
H            7.25040000000000       -0.34370000000000        7.37670000000000
H            6.86290000000000        0.71460000000000        8.74730000000000
H           -3.09950000000000       -2.57670000000000        3.93960000000000
H           -2.80170000000000       -2.06010000000000        5.61310000000000
H           -1.50090000000000       -1.94990000000000        4.39900000000000
H           -4.88670000000000        2.15630000000000        5.78860000000000
H           -5.13650000000000        1.64180000000000        7.47790000000000
H           -5.51700000000000        0.52600000000000        6.13300000000000
H           -3.92490000000000        4.02630000000000       -0.33070000000000
H           -3.05240000000000        5.29350000000000        0.57900000000000
H           -4.72570000000000        4.85720000000000        1.03630000000000
116
 energy: -22.898682859505 gnorm: 0.319604609811 xtb: 6.6.1 (8d0f1dd)
C           -1.75092285894104        2.55305868270400       -2.25754847434232
C           -1.57880302146731        1.26904226592873       -1.67390337787485
C           -0.82683409530081        1.18516423966565       -0.46469906811349
C           -0.07649572813272        2.26590718720997       -0.02964224444242
C           -0.50032729918270        3.54393199930909       -0.39735728904314
C           -1.35600242826372        3.67503208353722       -1.47569462089081
C           -0.65825685497912       -0.03921934254275        0.28352246228833
C            0.52925373120867       -0.18343296969778        0.96214638650917
C            1.33910487256306        0.94670328921949        1.14742638537656
N            0.96505498358405        2.16887473605793        0.84922024466512
C           -1.54753270850419       -1.10361447126852        0.41218049841785
C           -1.10931119926202       -2.34425814579814        1.06019986364313
N            0.10068592441640       -2.57618567090635        1.52702494977718
C            0.85115003945582       -1.44561362183006        1.60628007417999
C            2.03521450964819       -1.46755168891862        2.39568015063430
C            2.81541398337732       -0.38381110014726        2.47430090513468
C            2.45747622746424        0.84320196939725        2.05664453841768
C           -2.95928843820584       -0.92892864962062        0.25188012840953
C           -3.84389357955594       -1.97107785419457        0.43558414584143
C           -3.36737478898532       -3.22163991776918        0.87074681965541
C           -2.04192228635742       -3.34700686889548        1.24293949488674
O           -3.39430768456246        0.37740863918673        0.07883125758070
O           -2.02332089923412        0.03105705822672       -2.08667682986894
C           -1.69494055248776        5.07771477810674       -1.76611870201210
C           -4.41803049080405       -4.14003793024172        1.29143153909076
H           -0.13610553138892        4.34996187381073        0.22561415560740
H           -2.22303247455036        2.66660033222931       -3.21571784990404
H            3.11633490140287        1.67801339775680        2.19561044273614
H            2.28849340321026       -2.37626066367327        2.91337221753757
H           -1.75016389703883       -4.20492923804306        1.80891376670885
H           -4.90887857981061       -1.93115934969163        0.27741027302687
O           -0.81811367268095        5.89070414967643       -1.66128338547921
O           -2.99723285506644        5.43096010711476       -2.09459621393316
C           -3.21486791096959        6.71105268468292       -2.54433353672528
C            4.14878480236994       -0.52066239230126        3.08342103146422
O            4.69901456164170       -1.56801294169461        3.33191638278689
O            4.79239251314894        0.67014390855513        3.23768124689800
C            6.05757536574416        0.43666224687844        3.91994391280054
O           -5.53625001936089       -3.87841162649392        0.92256020037083
O           -4.14999977063929       -5.33291030583657        1.96724521792783
C           -5.19197134953474       -6.28208768815297        1.92892266607642
C           -4.73411440426549        0.69205265902611        0.37212933173917
C           -2.84711965381052        0.22310064204248       -3.21327094141040
H           -6.08594230290311       -5.89680217151449        2.43362826331355
H           -4.81791298058299       -7.08938340989182        2.54753346240043
H           -5.53599063934982       -6.76976735154195        0.97205290062589
H            6.80900085587100        0.67480761886056        3.13779845922972
H            6.15001284871115       -0.59007856742740        4.06378525435924
H            6.10921554590507        0.92582786475384        4.83501348038609
H           -3.63543097049630        1.03368951001535       -2.99507023199685
H           -3.32574143949283       -0.80938519141135       -3.45657529315458
H           -2.17950186937003        0.61824720531538       -4.06761999179251
H           -4.94855868264150        0.70949148422311        1.44541634175092
H           -5.45196494372352        0.06189980997389       -0.17756267767439
H           -4.91117516776553        1.79017590911006       -0.00476577596848
H           -4.32652207936582        7.00836140913970       -2.51129285881275
H           -3.09772079111480        6.63486258727461       -3.66423140726932
H           -2.48710540664726        7.37082083751825       -2.07098147355350
C           -3.12442078086117        1.65014718883854        3.23152307691749
C           -2.82889407256399        0.74278728995701        4.25480995220929
C           -1.56132134290148        0.87166621362225        4.98671631527908
C           -0.52052422445720        1.56941466428504        4.30462322609256
C           -0.87179236896272        2.47802073374755        3.26521908324314
C           -2.21291190253513        2.66224527866204        2.89764959943759
C           -1.18221508718217        0.26098748560963        6.23226077061502
C            0.18722388121685        0.12718366365732        6.53808213959817
C            1.17426636887701        0.84812559951503        5.74193993822228
N            0.77202541524999        1.55350584215382        4.68183223071148
C           -2.04295257012523       -0.32060882684705        7.22801416481642
C           -1.46165002864253       -1.06170534037293        8.30195757443357
N           -0.17411344785039       -1.37622958488165        8.42813190301601
C            0.64154542781344       -0.70655455576801        7.58942802657862
C            2.02559205997756       -0.66740183772201        7.93631298523021
C            3.04382129013070       -0.01087098025223        7.19028425179810
C            2.55840573969509        0.86705076617991        6.21490003469284
C           -3.45309195377081        0.01482309647766        7.31661500050779
C           -4.30509402554162       -0.71339384509399        8.11993645642005
C           -3.74012995036068       -1.53812831918155        9.04548710082166
C           -2.35426666266986       -1.64951513647422        9.22240153326728
O           -3.89036338541962        1.14015617839341        6.69409898271643
O           -3.61989296984509       -0.48283138475191        4.37440738350298
C           -2.64815005610561        3.81916933359165        2.10047043284877
C           -4.51424601169713       -2.35684934883836       10.01164810908715
H            0.00944608938761        3.01903707649071        2.94277992547894
H           -3.97572620236108        1.50725040073653        2.60713666430967
H            3.17630025722777        1.50573338574859        5.59260365327445
H            2.37179532645303       -1.29614246881144        8.77827811977970
H           -1.99796371085904       -2.14465545073858       10.05930369418148
H           -5.44789004590957       -0.72807523379294        8.05384475784738
O           -2.12151435613486        4.88841051144758        2.15788372851930
O           -3.81840650052014        3.55710333767277        1.32440194825711
C           -3.97917442674650        4.63390232161777        0.37619249146895
C            4.49916186511012       -0.11411892316022        7.50226026553076
O            4.97930967725815       -0.71442145775446        8.44254360043398
O            5.19270060214008        0.74105095380817        6.70610476412204
C            6.48198149531524        0.83351569982269        7.23895208404015
O           -5.72362183142552       -2.29116220239027       10.09366656085258
O           -3.87240239423802       -3.21640914979138       10.85063987994068
C           -4.75783496280800       -4.07051384920419       11.58435084021188
C           -5.16860394566941        1.53291261645787        6.99424051463201
C           -2.91734286894833       -1.56405584049817        3.76661927750948
H           -4.14665103705377       -4.43964388165411       12.49850282746860
H           -5.05340167483400       -4.77531274488580       10.78282093702447
H           -5.64767908805619       -3.54605447508591       11.83656739474114
H            6.38666249678875        1.40960716560902        8.16660046080742
H            7.17987422226912        1.45595565955593        6.64023678414634
H            6.89224559989510       -0.20706876650618        7.35553564493569
H           -1.84217010066562       -1.47923981255248        4.11437487881860
H           -3.09270577908683       -1.57002496208373        2.71400576659715
H           -3.40997488013415       -2.48724187665614        4.16143570026146
H           -5.41316407134967        2.35817909142291        6.45205969041743
H           -5.42006930027350        1.69025448460765        8.11239283958033
H           -5.81950437712852        0.83225715499476        6.47094707808655
H           -3.67246723331271        4.23305592187451       -0.67280328749268
H           -3.30543200236681        5.44283856759202        0.78129572453962
H           -4.95928982119170        5.08121446247498        0.62489107387595
116
 energy: -22.925353429978 gnorm: 0.304276142724 xtb: 6.6.1 (8d0f1dd)
C           -1.96802565915473        2.35542374613111       -1.99407994493195
C           -1.73525809936657        1.12941486854134       -1.36492317270906
C           -0.94017633167568        1.05150497920190       -0.22689098591644
C           -0.15400836433300        2.20585699595661        0.17389493298274
C           -0.41869323487580        3.38857947985739       -0.42232025131953
C           -1.37429561968266        3.49402425695827       -1.42796516164251
C           -0.84057156609229       -0.08156711456568        0.64473432353568
C            0.28484263883169       -0.11741986169700        1.43239785549586
C            1.22634542102863        0.99955221831725        1.47226231136699
N            0.87066483245787        2.21121723237606        1.00380576520927
C           -1.83620958675373       -1.14451093617389        0.84917763249704
C           -1.36294389624233       -2.38649468462223        1.37581420658991
N           -0.17615446230995       -2.49450814283721        1.99241551746596
C            0.57332200992776       -1.38331602207377        2.12420869629245
C            1.74146708456452       -1.38209680533155        2.80313691184930
C            2.73793682010902       -0.37240534400869        2.68575660449742
C            2.44861592911620        0.85226693877260        2.11160289806337
C           -3.25065336440698       -0.88294275648215        0.76774587225921
C           -4.04027534580051       -2.03455898313324        0.85040134532633
C           -3.52046397786679       -3.30969854078187        1.01295341683349
C           -2.21650776913366       -3.49032125763585        1.32074828994256
O           -3.69309641100977        0.48024055155800        0.70177718256182
O           -2.42245125377155        0.05566250623823       -1.89267391660892
C           -1.54817255201477        4.87512143405281       -2.01296143188100
C           -4.39934380960982       -4.51244506754099        0.99438936303089
H            0.26691420962288        4.19669033199627       -0.18240828452644
H           -2.70023235273179        2.49414409646016       -2.77171528821921
H            3.19016531061120        1.59020431630299        2.05303409727481
H            2.01508061567494       -2.30303111499904        3.28954688777769
H           -1.88251927563660       -4.40674781495261        1.67706089917473
H           -5.15073370034220       -2.00484768614599        0.79990881384555
O           -0.58235556584874        5.65645935939248       -1.97571092140507
O           -2.78517199801705        5.19075105128371       -2.58133697506089
C           -2.80911367553379        6.48084030684139       -3.21392758580800
C            4.04390208479389       -0.67282090654305        3.37297827098730
O            4.12145518519245       -1.53951292401994        4.22860763131800
O            5.06067729497236        0.14797108803031        2.90855754363887
C            6.27223394457085        0.09099757981510        3.63552572150122
O           -5.59838760281652       -4.43409277968038        0.86566815121580
O           -3.77359309500825       -5.72360882707140        1.20148084066183
C           -4.58580473562948       -6.86819006548717        1.06415254776661
C           -5.03570801039955        0.75473472552265        0.86521246139102
C           -3.41428118851765        0.27692931029837       -2.89254924595659
H           -5.21491126604474       -6.91953489621748        1.94878270796715
H           -3.96758920037877       -7.77084186454069        1.09780017293786
H           -5.02876258599860       -6.89679533117431        0.05876524141610
H            6.81771932414766       -0.90713983374213        3.44077933540698
H            6.07410309517379        0.15531564442083        4.74140562610597
H            6.91598060744694        0.89833182198325        3.20707412295563
H           -4.34959749267336        0.85799810457824       -2.46586160009633
H           -3.66103345058739       -0.73494943235770       -3.30848607675310
H           -3.01392732620333        0.90214751368426       -3.80190570227949
H           -5.51802603996850        0.04174351417754        1.60076598417966
H           -5.59139250732419        0.60513658200349       -0.06686623043481
H           -5.24625951402198        1.84635170600189        1.17825385134497
H           -3.82451416621055        6.77974679608825       -3.63267980138640
H           -2.19491291927337        6.32818271293040       -4.05630517691429
H           -2.25858273140909        7.16502324790585       -2.57363146798942
C           -3.03794177988065        1.88285232347326        3.37685735104156
C           -2.59028044159125        0.81658878713354        4.17533548222587
C           -1.40970633058320        0.95061592855230        4.92679728633167
C           -0.51752025093764        1.93903857275602        4.51517075410228
C           -0.92251540422434        2.90061473561413        3.60774402930511
C           -2.24488202481546        3.01741723194383        3.14709928798941
C           -1.03432616017952        0.18610701970989        6.07381149676103
C            0.33088327613008        0.02332012498097        6.21732354295043
C            1.22129454154112        0.96194446089840        5.63251069711625
N            0.81124014992333        1.90026139386054        4.76477884032250
C           -1.94152329390090       -0.32121387651371        7.03091874230326
C           -1.41712645170131       -1.29511938487240        7.91586414474880
N           -0.06325530058386       -1.48221326848566        8.05670908224231
C            0.82354864074154       -0.84277336025928        7.20688828426712
C            2.21264994720837       -0.81165935544406        7.46185057654426
C            3.06211025271155        0.03654794500932        6.83022769105542
C            2.55244771640256        0.97416434284970        5.98252945185083
C           -3.33483384528387        0.11487224885184        7.22126506265891
C           -4.15909252201534       -0.63276961073035        8.07454824189329
C           -3.65920894233914       -1.69969767470849        8.76467690957867
C           -2.28804593171156       -2.04084854917372        8.75737282557166
O           -3.83807275174995        1.29252815637373        6.73088153578784
O           -3.41548716209871       -0.30950579067602        4.19262680440088
C           -2.58687543202690        4.12930474658644        2.26061834293178
C           -4.48160021447616       -2.31992546877873        9.76752497635321
H           -0.23026806551523        3.63280254753406        3.26966044034600
H           -4.04171442254892        1.77292167077454        3.04151168577697
H            3.23705947707610        1.65282226823419        5.44579111421554
H            2.64627731967678       -1.37764772872257        8.31549286735101
H           -2.11176652077600       -3.00549339009084        9.19596590524108
H           -5.21659705412685       -0.36228875600557        8.23199681977898
O           -1.81176140912773        5.07525882785691        2.15556721780639
O           -3.69440688221859        4.10068129570687        1.49098469527626
C           -3.77289603053169        5.21221393166566        0.62641708183064
C            4.52092394624243        0.13342073111643        7.16645626140014
O            5.15982584353867       -0.78197760085967        7.71015002859564
O            5.04727068935977        1.35118623290800        6.89765272501495
C            6.17277893023611        1.44474739706641        7.65860730745098
O           -5.56954489931952       -2.00624746807107       10.17470073316605
O           -3.87286800751376       -3.46853232289153       10.11903560118848
C           -4.66667873169508       -4.16378757782894       10.98766341769546
C           -5.24362132503252        1.48548893038688        6.86446408722980
C           -2.75156297255418       -1.53222289685135        4.40052254576149
H           -4.17674242903174       -5.03366891828917       11.35646334788030
H           -5.67367871278418       -4.27480720649718       10.47977557484945
H           -4.78930481780411       -3.35602615505475       11.77662282299738
H            6.11076439520408        0.77277207900646        8.47397049272457
H            6.09602778371227        2.43344827352806        8.19878685793706
H            7.09473288769942        1.36343427560117        6.97608189163777
H           -3.28049741182742       -1.86234968807730        5.35325040185350
H           -1.71178651769066       -1.37747736300787        4.48352564599543
H           -2.98064513423543       -2.25109236972894        3.58796683663367
H           -5.51258485559807        2.48419667445828        6.44003585555352
H           -5.36344751935886        1.70721590750417        7.94158537834675
H           -5.97267887606268        0.78832878538775        6.56986486104492
H           -3.22791534313616        6.08094898942686        1.01127071513722
H           -4.78770275091932        5.53026669808502        0.75632993951465
H           -3.77417992492010        4.77587400675819       -0.35381140621330
116
 energy: -22.935257242796 gnorm: 0.308967920544 xtb: 6.6.1 (8d0f1dd)
C           -2.30778118004400        2.30175859558002       -2.14149668930819
C           -2.21385427559844        1.03057426169701       -1.54943117528762
C           -1.45933916741021        0.96314718625447       -0.32022352597029
C           -0.57647254430382        2.01807727468884       -0.05295051452957
C           -0.77682245548122        3.27139755926247       -0.69093019665314
C           -1.64816447607972        3.46147291946394       -1.71267678086871
C           -1.40322059508365       -0.17429849618040        0.52451963774251
C           -0.23980742380033       -0.28937831793965        1.32821582959902
C            0.61758463481590        0.82447957870600        1.43395626027423
N            0.48147549042628        1.95426510881323        0.77841821500797
C           -2.37671934927455       -1.21543701133196        0.69790027116293
C           -1.84952634894409       -2.50486166916828        1.15613689274850
N           -0.68716802409690       -2.63472428868196        1.84310908981221
C           -0.04773576585597       -1.46360820362269        2.06472344348963
C            1.14014661176242       -1.49494774787818        2.87623999373305
C            2.00938981745410       -0.46890740647052        2.95351080769953
C            1.74630185557141        0.68701851877680        2.24070244816392
C           -3.83229177292491       -1.03484962819454        0.51880257817411
C           -4.57878852180185       -2.19703565623630        0.35455382244742
C           -3.98611507205782       -3.40587896392999        0.51795148916196
C           -2.70568619884858       -3.56469517513676        0.98929029204151
O           -4.30401662468504        0.21681561775902        0.56650384150247
O           -2.59820127737764       -0.18373725623280       -2.02626171211611
C           -1.91156784231898        4.80729213448702       -2.28669118151655
C           -4.82275029765522       -4.65762585886618        0.38448472632036
H           -0.52154127431757        4.21732156379535       -0.24999518988325
H           -3.13003492639820        2.46922423854507       -2.80141222965598
H            2.31884958574940        1.58428593779329        2.34470641681041
H            1.41050382129822       -2.39745959506838        3.40881096608911
H           -2.40345597229708       -4.58390919158945        1.21499710842832
H           -5.64661035279796       -2.25150669105895        0.10126897713292
O           -1.10744474709681        5.67152955539965       -2.11976455301963