116
 energy: -22.675264251221 gnorm: 0.517520149085 xtb: 6.6.1 (8d0f1dd)
C           -3.80049061107760        5.75633584932946        1.83832399480558
C           -2.98604370311557        4.75698424172458        2.39419313777528
C           -3.39518755900358        3.38676696075463        2.48935566823610
C           -4.76365926045252        3.13108641268598        2.07775340989097
C           -5.42287795637134        4.05468252140439        1.36678459423935
C           -4.94173119801747        5.32735965628591        1.19793211841276
C           -2.61273452410040        2.35701110283383        2.95802529216305
C           -3.42642699586751        1.47195786210007        3.61069007786673
C           -4.86534552994825        1.26656006814492        3.28414855086096
N           -5.45962049188001        2.08367725537038        2.39897563936436
C           -1.24401402987732        2.26341661586808        3.26242653143055
C           -0.71703700216416        1.39875329776380        4.22888948754887
N           -1.37688768085608        0.53666915624692        4.84639817485618
C           -2.73761320629330        0.42558621728098        4.47811247780950
C           -3.60852862114703       -0.59758877018906        4.95169219865124
C           -4.95943628842860       -0.56493942228451        4.67443196611173
C           -5.62394046302366        0.20959896148268        3.72553225317031
C           -0.38313197716861        3.03484323390244        2.46588529835905
C            0.86817036953552        3.34222802463846        2.94001563609865
C            1.43045751888819        2.59729595880157        3.98201777395902
C            0.60808150256158        1.67632203952529        4.67858014357206
O           -0.86241241682547        3.37356550600253        1.16214241681625
O           -1.78200123330895        5.11788772011712        2.92425603617317
C           -5.94443845960593        6.22007303671679        0.67234976177282
C            2.78048455175568        2.71575606521152        4.53531650924745
H           -6.43686116606519        3.88107018498362        1.03499212108375
H           -3.45478657408428        6.80693625222037        1.85200736915634
H           -6.48691634992086       -0.03413388873629        3.29472647382658
H           -3.38366250967669       -1.25964336629420        5.73052211235715
H            0.97408219258764        1.11565822688681        5.50565138705019
H            1.48559357840975        4.12635254930207        2.46703669109109
O           -6.73773534143234        5.79639611493446       -0.21022465542405
O           -5.77369719726714        7.65588589176872        0.57191218877794
C           -6.93725937757299        8.29214941865604       -0.16360044649936
C           -5.73273583210828       -1.64902431730480        5.22243747981691
O           -5.20465498931091       -2.38134878343896        6.07016642720187
O           -6.91277299262274       -1.97608297467613        4.66304775946963
C           -7.16462896260589       -3.33877338735988        4.97617281232318
O            2.78645839801639        2.57978364709251        5.82141084732411
O            3.82544469305635        2.76696999379978        3.72948786006691
C            4.99276891178750        2.94033750823049        4.40025606994251
C            0.24649459286710        3.94680875519728        0.37011739203064
C           -1.78558252026784        5.43811321339225        4.27035804928249
H            4.98444142908914        3.70316523883260        5.12001318565026
H            5.59886701252445        3.24806084845241        3.51119912922655
H            5.33521812669908        1.94643787705996        4.82157552670715
H           -7.55166341677574       -3.45203905806419        6.03207133448588
H           -6.14590248192350       -3.82400092095582        4.84181298037737
H           -7.90164846480361       -3.73933474691558        4.33921192164639
H           -0.78943777840448        5.56528911715040        4.64782067391590
H           -2.18484512140611        4.60113454036732        4.86965594653403
H           -2.32667293116485        6.31064183028424        4.57435496480199
H           -0.15126505841351        3.64859114052768       -0.64615462843953
H            1.00213832722841        3.30368968603241        0.67350462270871
H            0.36402730415377        5.02973413315237        0.41525304245330
H           -7.41497270841313        8.90004188047316        0.58464448439298
H           -7.62190934450943        7.48375491857202       -0.40628943039813
H           -6.26150651915491        8.61007851367274       -1.02315429648278
C            1.64044304252742       -0.96354594673002        0.47527249766647
C            1.00668015352715       -1.80897423465436        1.37247997408537
C            1.03460134567569       -1.45042594276957        2.72855529746542
C            2.26445825977803       -0.81976623280852        3.19944290662676
C            2.70676927848125        0.15174529240988        2.30605985193238
C            2.25150845133200        0.15084169179121        1.00575729432405
C            0.31766988997211       -2.26455004378513        3.71143995899298
C            0.94339244514682       -2.41527569004275        4.94866256948271
C            2.33021385245743       -1.87861676922188        5.20280066214327
N            2.99472936850427       -1.05401031087335        4.31393847319320
C           -0.98548865125172       -2.67740706233764        3.51042662960915
C           -1.56152167837398       -3.43140155406784        4.65647409863562
N           -1.00440417527149       -3.61484912667568        5.89262654023479
C            0.28099922828785       -3.14394584947608        6.06191377005980
C            0.93120595780214       -3.05370866888681        7.29346317605059
C            2.20891146311050       -2.41907913998295        7.56396833309323
C            2.95412097866769       -1.81864428431555        6.55153654725335
C           -1.90790634829841       -2.15830656331644        2.51816996884760
C           -3.00643933383954       -2.93043223206084        2.06527081369126
C           -3.29096843333799       -3.86895842365252        3.05717050110521
C           -2.70276286064749       -4.10111659333538        4.27260653735869
O           -1.60663003008904       -1.05811818088497        1.74440964093581
O            0.63032093679961       -3.13055228307211        1.04530121656680
C            3.00871030570424        0.99326638251952        0.03385733199419
C           -4.30251479005874       -4.97210626654457        2.77560638650298
H            3.51221230693282        0.80279777636433        2.70205609322406
H            1.65738708552697       -1.03844241234962       -0.64291434326471
H            3.92708435757661       -1.25083765047543        6.55147062114600
H            0.46390367889544       -3.58575187704156        8.18044458526917
H           -3.04016569707976       -4.81247266684217        4.98064631170579
H           -3.77733349369573       -2.53797952244693        1.35177029932894
O            2.72615550253956        0.80725360777779       -1.07421644324383
O            3.96848724946003        1.74527099275003        0.52407729836625
C            4.91652923235718        2.33809773096724       -0.27366143887078
C            2.68132441017070       -2.78582130157783        9.00769028638226
O            2.97416184205266       -3.94523734218339        9.25791890147911
O            2.40691535691553       -1.88969571021881       10.09355010939636
C            2.46576090784700       -2.51349130070923       11.44551390323541
O           -5.13031796583962       -5.47787765819373        3.54879316972652
O           -4.58676774697000       -5.20135524325382        1.33407297494770
C           -5.48395299825398       -6.28827709042426        1.31729567919850
C           -2.64595309222137       -0.57334427144429        0.91779265794350
C            1.44053519929803       -4.17139650139608        1.20402551691456
H           -6.49830066738749       -5.94853222921111        1.72420739991293
H           -5.03371343711524       -7.19212294111823        1.91400684002831
H           -5.66058508753564       -6.84890580332720        0.41155994700736
H            3.45527337315321       -2.68570590568413       11.83565258437514
H            1.91275419249202       -3.42506591160301       11.53916024154313
H            2.16847311983870       -1.79975223820379       12.03856934660399
H            1.60842861792285       -4.39095779652204        2.22689031991771
H            2.45455231499759       -3.78782530853095        1.04465181043956
H            1.13384201756298       -5.03455621752744        0.56038988040377
H           -3.29866302658550        0.10034285083518        1.51384735082301
H           -3.51319996686708       -1.31968995768765        0.58046280497861
H           -2.15163363885601        0.05624948645659        0.22355456011066
H            4.33519133211882        2.68592453765793       -1.04235763491451
H            5.60680105930430        1.46308355250291       -0.59091376724944
H            5.58368444020312        3.22061108271652       -0.04458661530104
116
 energy: -22.495629212211 gnorm: 0.613865370154 xtb: 6.6.1 (8d0f1dd)
C           -4.28237640639917        6.00565318208909        1.79835696571736
C           -3.42555385399380        5.18632338563552        2.51608578400858
C           -3.84886724091292        3.91932100084998        2.93801122578365
C           -5.17613914052505        3.41816601540913        2.91533914251576
C           -6.05649842169850        4.45204278152721        2.50303373925237
C           -5.64191364809959        5.54414919509902        1.81975327465035
C           -2.96342985746709        2.85252799061444        3.37222585620098
C           -3.47666267715233        1.66000043680997        3.99439430419598
C           -4.89851619568357        1.39522153928390        3.94420254802555
N           -5.67460445715897        2.20852241980190        3.20176805536301
C           -1.49167523654718        2.88358419864102        3.32278896047409
C           -0.91475359692406        2.17736251608947        4.41754694901314
N           -1.60595575525995        1.37630071667425        5.27394472799860
C           -2.76780148062019        0.94969143990056        4.82561864633171
C           -3.05081516183838       -0.36263523128737        5.16961653126271
C           -4.43041187435100       -0.71383267962301        5.06520654469641
C           -5.37234826489521        0.11057555721963        4.33204726348478
C           -0.49858292230829        3.79539592461347        2.59890964195937
C            0.87992059804195        3.75507087577773        3.09666953506072
C            1.21543901952132        3.05115748962117        4.17324854432925
C            0.33375878275558        2.28328772386283        4.80995592650031
O           -0.76484759295814        4.26416256890437        1.16445507069250
O           -2.11879893163948        5.64528957339506        2.80137295745078
C           -6.52029489405370        6.57330209507224        1.16093214106752
C            2.67070092410220        3.15476274258904        4.45311217132283
H           -6.91658663024905        4.04813659299611        2.20331523128953
H           -4.25755594875199        7.03797706038787        1.44892416631934
H           -6.28339794007269       -0.16253617849602        4.37752919200639
H           -2.36449987440082       -0.89266891376810        5.80498207798876
H            0.97876820529707        1.57711077085026        5.52863961602297
H            1.63185579724950        4.26029796298657        2.45731627676268
O           -7.65951132488574        6.43003247834780        0.61203955490704
O           -5.97540971965170        7.82062723280441        1.06996952608902
C           -6.94175493163951        8.87699418828586        0.58425422343068
C           -4.68520458271626       -2.08370355609096        5.68153743151642
O           -4.40971135142696       -2.33204938992486        6.82626870979854
O           -5.52758990974363       -2.92859412832775        4.84651216019428
C           -5.97695827591265       -3.94652160766047        5.57566494584210
O            3.14528722328555        3.04371497158766        5.58399338632235
O            3.38490787943233        3.41015301779702        3.18446749070566
C            4.81871770957435        3.22927637092821        3.36225665209634
C           -0.44750918529626        3.37845378722421        0.11222834136355
C           -1.72648795905573        6.90428895503645        2.33941852748842
H            5.16592795416203        3.74708320865672        4.25051748475784
H            5.38862058229329        3.58993376101836        2.43982863112143
H            5.07211306720869        2.17038597720344        3.51503919172920
H           -6.15650393610517       -3.29284582143121        6.48902554386077
H           -5.31040449565840       -4.57469203322316        5.99580820616150
H           -7.03078718294617       -4.17137923424191        5.19220577308354
H           -2.24660121406009        7.15691439881084        1.45218204697152
H           -0.70875837050911        7.09703267099413        2.63520483318975
H           -2.13381675222910        7.62233042244189        3.09534115045945
H            0.38032369262199        2.68809863290305        0.24639468259263
H            0.02759793521553        3.95106992240630       -0.60809543350920
H           -1.44371260429603        2.99323526449364       -0.45598677898384
H           -7.54973947519836        9.37569912254403        1.37313748301026
H           -7.52644557648605        8.59093018433104       -0.36322703667154
H           -6.02182366732643        9.44144170775238        0.36058238381440
C            2.50440652344384       -2.16404044090944        0.81914403358901
C            1.33360664907259       -2.56188705012459        1.48861463669646
C            1.05165280399002       -1.79612170193390        2.69165927704337
C            1.97497329292479       -0.74530997058265        3.22245046749049
C            2.89952444813057       -0.13283208511990        2.27565411917633
C            3.19460981467723       -0.82435398355757        1.11213345355066
C           -0.02072409157505       -2.35148748028829        3.56684088117057
C            0.19902092592477       -1.99687663010839        4.91909385504713
C            1.47497010706135       -1.24362306989524        5.17817959767740
N            2.16500420440623       -0.40062662142894        4.48473734830425
C           -1.26573603738640       -3.07902413378676        3.23782683432790
C           -1.73522980391806       -4.00852896997981        4.23459390368188
N           -1.35965167471647       -3.71785918421581        5.52055474145320
C           -0.54950637944296       -2.79338676686050        5.94090566999357
C           -0.30111784227769       -2.50139157126663        7.27844937344546
C            0.90430851030672       -1.72577777517748        7.63140394747492
C            1.57953158225754       -0.89547438907742        6.61661727847313
C           -1.78984378629412       -2.72293626883753        1.99624355808601
C           -2.80720343119324       -3.70210898602107        1.62288097661281
C           -3.25071121390455       -4.78034671716458        2.44151498344339
C           -2.69122791136519       -4.98313648295749        3.68314393601025
O           -1.37814282633364       -1.57121022061764        1.29105199371636
O            0.60064496221932       -3.57108015642077        0.80083458952678
C            4.39208987107097       -0.35527509106527        0.16806489936788
C           -4.43864723248224       -5.50482366834102        1.94220297539516
H            3.60976162396566        0.75596851690346        2.35386754448120
H            2.29432251450781       -2.34816326483072       -0.30351604202989
H            2.14648493273092       -0.17026835136746        7.09124841306582
H           -0.95824844645801       -3.20039741954767        7.95989783332022
H           -3.02304022896191       -5.60906772704198        4.45124119138582
H           -3.02364130928164       -3.81122467107200        0.56100508351047
O            4.87504515463744       -1.24790742738212       -0.63720442102537
O            5.09621941169316        0.62758099918000        0.76484350026770
C            6.42990936944686        0.56471573418401        0.35248295805829
C            1.34877762783540       -1.89169894230370        9.03045623302992
O            0.77936971627378       -1.56248001467205       10.02674473821666
O            2.40774184815797       -2.70209047369291        9.02950664363607
C            3.00334903763746       -2.80369374231401       10.26394425755675
O           -5.16933968293086       -6.11610133478940        2.63292483569025
O           -4.45953089059753       -5.77078872164749        0.57040577519306
C           -5.67863783392367       -6.51000276507944        0.24623332538619
C           -1.15035081636626       -0.27143582252464        1.91355648695478
C            1.29383034384241       -4.92783944781004        1.19503418817284
H           -6.52378840366363       -5.68318969497215        0.47172647912127
H           -5.60717580902338       -7.46598513577590        0.83051956957519
H           -5.75349307443113       -6.64506701644168       -0.84017066013125
H            2.58723569475357       -2.03617496817245       11.07616414793075
H            3.90367550705929       -2.29178583117421       10.23306407007300
H            3.29200133282074       -3.83550807706169       10.58375792273930
H            0.67716325668290       -5.83287595515640        0.88999041416875
H            1.40307670776728       -5.02523650315147        2.27062134517067
H            2.14608678409025       -4.87976541252825        0.50079436679390
H           -1.24042647255812        0.41581703796460        0.89285356686047
H           -0.15740547200797       -0.20571677075750        2.45788757112645
H           -1.99967914656265       -0.04435075738211        2.49688540219730
H            6.44487258226325        0.28175452919626       -0.70411076389630
H            7.10946729879459       -0.04320326888584        0.97198035403879
H            6.61145943363509        1.61473004614002        0.29520558360137
116
 energy: -22.588377457485 gnorm: 0.538806882349 xtb: 6.6.1 (8d0f1dd)
C           -4.19537144951271        5.44333479989904        2.12109917452172
C           -3.15927301814896        4.85378806405410        2.93511878600171
C           -3.46248216111250        3.54101017369657        3.45585132572032
C           -4.87938714126473        3.23907168867953        3.71692390560106
C           -5.80568928777819        4.16782786302608        3.20407315797763
C           -5.55546174004125        5.15596898378371        2.25570835497039
C           -2.51530858264276        2.42555094280301        3.37725340917381
C           -3.11502214045664        1.33950288226572        4.03146512496201
C           -4.48106949147028        1.18314731618966        4.48462844773925
N           -5.45833456482145        2.11066261907879        4.26618383512761
C           -1.04643349484886        2.46607822243070        3.07892889042433
C           -0.25158199098974        1.45466279867645        3.77602084569730
N           -0.79557369303606        0.46389411602984        4.41967400036037
C           -2.13699263517428        0.36276591460143        4.43793922293951
C           -2.57533038674049       -0.78069008904544        5.02128795755260
C           -3.98946986238973       -1.09727439061263        5.09564948061127
C           -4.82549695253533       -0.06835369969116        4.98561671566976
C           -0.41885227505549        3.35611882860937        2.18440446776386
C            0.91642943852632        3.75142528224634        2.46101195599041
C            1.66187462467434        3.01916210392826        3.29362188023617
C            1.12077718004180        1.87279455737243        3.86909126058514
O           -1.27907923694905        4.17763913822320        1.25367136959692
O           -1.95696791107461        5.51658302879225        3.36413183670142
C           -6.49883260279149        6.06234118328104        1.36328039950924
C            3.05252465001160        3.18882337775895        3.35483233992993
H           -6.86453900871940        4.04624456686680        3.54862147632183
H           -3.78694609806068        6.32084933452530        1.52185128753715
H           -6.02577360425546       -0.31072387307873        4.95402854750853
H           -1.91980812889948       -1.34721967359731        5.56276348239177
H            1.82739522176927        1.32984258802610        4.53554699348247
H            1.44205282525611        4.43665361686391        1.86792297975723
O           -7.56815196159424        5.59180912528010        0.98449826989364
O           -5.85996338117130        7.06548318431031        0.94391683901455
C           -6.71824283912374        7.74464977399161        0.05550043352094
C           -4.43647509264629       -2.34582203218101        5.78281316840969
O           -3.65815729659606       -2.80620073659774        6.61590293836034
O           -5.76590327285756       -2.92472993557388        5.45048841820047
C           -6.59736944761229       -3.26736280536674        6.69086549837080
O            3.69182389304340        3.19518241717584        4.38760495011781
O            3.81622795661963        3.52955706381396        2.21019065597687
C            5.01414564023074        2.86353919407085        1.95935175746667
C           -0.76891379439319        4.64873049820889        0.01640609309578
C           -1.86337655788523        6.90685236085706        3.73396395935755
H            5.40595410984875        3.24761374691128        1.04871951134682
H            4.60896126131188        1.82326465443586        1.89009289361487
H            5.64770967329688        3.11993001457358        2.81589367420600
H           -6.06897947454935       -3.83093498905241        7.40760951389504
H           -7.47549631057764       -3.79599074925347        6.30615642230875
H           -7.14685699164993       -2.32716857061804        7.32340092646123
H           -1.82330989074414        7.39352644357707        2.74066814189318
H           -1.01079514856491        6.88338825841968        4.52376109163335
H           -2.73176057212669        7.27830040391817        4.17651860539760
H            0.20852946309747        4.06735433205513       -0.13512203215313
H           -0.58409549931272        5.69650408063674       -0.07314159411224
H           -1.59436929399020        4.46212117274550       -0.69377680002939
H           -6.24224572330645        8.75694560829278        0.12251176896269
H           -7.84549786718708        7.63168083751257        0.21947938815058
H           -6.45265660442252        7.53527181413461       -0.94167450188303
C            2.43062270778020       -1.39752766174537        0.63819719603100
C            1.42212675996248       -1.95242056605903        1.41331850352970
C            1.50351983501559       -1.82851882022997        2.81470814276162
C            2.74574651981857       -1.49681012141302        3.32977387519636
C            3.70522137117749       -0.90417822753051        2.59954790873280
C            3.49431206066802       -0.87709290620717        1.24859920246063
C            0.56475307031692       -2.46233804484882        3.63672332927867
C            0.80853165132467       -2.69557071282134        4.95740232712736
C            1.83871907906013       -1.91480674971919        5.55310627609205
N            2.82814512456060       -1.42641281970399        4.70531228986794
C           -0.73686221100059       -3.02594620713220        3.23002343209888
C           -1.64234920884935       -3.88674873291775        4.08976089105966
N           -1.14625141493692       -4.10842806501333        5.36363182778079
C           -0.20030984284658       -3.26304565929297        5.87873265870371
C           -0.11274052233013       -2.93155466684900        7.21552556944095
C            0.80802860319454       -2.04309243733093        7.66021361030066
C            1.84485813518753       -1.57085172224109        6.88073635150706
C           -1.59941322696779       -2.42392016747211        2.16901411933425
C           -2.83375639449283       -3.13576667571143        1.82149693760585
C           -3.49814123861120       -4.03575785037936        2.65726720633686
C           -2.94183766836908       -4.53985446178529        3.83053319425239
O           -1.71073968722983       -1.05640835085500        1.83221657452236
O            0.70854542960301       -2.99928376903784        0.58812639754075
C            4.51292205010733       -0.00209974432453        0.49187331373787
C           -4.68349347975876       -4.77177794649382        2.16274607574869
H            4.60961247303488       -0.42077454989237        2.97119511834480
H            2.39910381818690       -1.71754526556623       -0.38676669006095
H            2.73763891051003       -1.13587506546453        7.30346738857631
H           -0.94422288981253       -3.12726033696042        7.90825020580487
H           -3.08079567743121       -5.39843701625161        4.47974098590849
H           -3.26921661426231       -2.65946447950952        0.95707626553926
O            4.30295868318185        0.42065365331647       -0.67543206768772
O            5.74612437284599        0.16153893119057        0.98693725608322
C            6.83118901504809        0.07080498340910        0.11726875853123
C            0.60713946857581       -1.62215271013714        9.12592635086678
O            1.28752022192891       -1.96717070389674       10.04404341973514
O           -0.55825390348002       -1.01453985626847        9.18321734935834
C           -1.28046602820457       -0.84208604656968       10.41121515424639
O           -5.74134573324758       -5.04777469834416        2.83672021212952
O           -4.61361538600104       -4.95264658776172        0.71468401192437
C           -5.78168675716895       -5.41964859362551        0.15706277885267
C           -1.70542251298166       -0.73662996394764        0.40839296066870
C            0.65458199543614       -4.24949689695688        1.37324909818427
H           -5.97346483891383       -6.51657024332385        0.63913264102258
H           -5.61607427676431       -5.62835227738615       -0.89579982356793
H           -6.53298652592471       -4.52823271321602        0.44057265326981
H           -1.51701798077654       -1.85783685411306       10.71969100732695
H           -2.15629101731158       -0.08136851514484       10.31990724242722
H           -0.38366880633518       -0.38946333155668       11.01953816212061
H            0.87955447851957       -4.06252429546326        2.37973239169854
H            1.39623565135447       -4.82426167577384        0.73655586750439
H           -0.30012260246995       -4.60718596589102        1.20372029803988
H           -0.92413725562854        0.16537013546131        0.14945829527991
H           -2.74941950324040       -0.45960974355212        0.14758721047085
H           -1.50771309920756       -1.70603726373165       -0.16677948634007
H            6.87940176177790        1.18856519465301       -0.26758656236755
H            6.54094689336044       -0.84232520947083       -0.51148118112302
H            7.85242165966448       -0.26969904407929        0.54895634539980
116
 energy: -22.590789963994 gnorm: 0.604345520101 xtb: 6.6.1 (8d0f1dd)
C           -4.18121573777338        5.51942787199423        2.18009946572595
C           -3.16808157943772        4.65412896941448        2.64769955874979
C           -3.51936126209279        3.23318105843153        2.81368163313882
C           -4.89568158255090        2.64685467483472        2.70129479717453
C           -5.68339333410297        3.72725065060536        2.19770155531650
C           -5.52043744281443        5.05900659804970        1.92485907791880
C           -2.46881174370108        2.18487059519602        3.16680275619321
C           -3.04828873953594        1.29121620581327        4.10298843186792
C           -4.43124081639183        0.95694224146462        4.14011739268903
N           -5.38029044270811        1.63843246427742        3.35552539351607
C           -0.99717147483797        2.10454564146174        2.94134710924396
C           -0.32456852116067        1.73350657220254        4.09870728642665
N           -0.79783014583931        1.03096210453664        5.11937007352783
C           -2.14194103447877        0.61942169583616        4.91807778325269
C           -2.61817736364430       -0.37660278634027        5.69742874802744
C           -3.91972005881549       -0.85735216340829        5.62733503219402
C           -4.94142790157788       -0.17649770434475        4.84402288140323
C           -0.28773418626353        2.56919232963082        1.73533953385149
C            1.19502380494024        2.72950177500365        1.73059420082412
C            1.77277804486585        2.46871237647344        3.06498866361968
C            1.09636915204150        1.94907284991188        4.11782840180730
O           -0.97073317527662        2.79235671833952        0.61389706632648
O           -1.92106243792678        5.13924197538343        2.96384634786588
C           -6.67616118847521        5.84440954566534        1.42494416210547
C            3.14905354554511        2.84477197575058        3.25361638294135
H           -6.76362330001509        3.49219791777811        2.37160003254382
H           -4.07773272987088        6.64523347333359        2.13398876397846
H           -5.79616268311320       -0.59021360335571        4.63376957419845
H           -1.77342721031518       -0.83917019674785        6.12567020841847
H            1.45509949123809        1.55731031377657        4.98141413749394
H            1.81399056016675        2.96815354593655        0.81374349665543
O           -7.73230900488901        5.32108059592693        1.24542112063344