Optimization of monomers started
      -----------------------------------------------------------      
     |                   =====================                   |     
     |                           x T B                           |     
     |                   =====================                   |     
     |                         S. Grimme                         |     
     |          Mulliken Center for Theoretical Chemistry        |     
     |                    University of Bonn                     |     
      -----------------------------------------------------------      

   * xtb version 6.7.1 (edcfbbe) compiled by 'runner@Mac-1732539442253.local' on 2024-11-25

   xtb is free software: you can redistribute it and/or modify it under
   the terms of the GNU Lesser General Public License as published by
   the Free Software Foundation, either version 3 of the License, or
   (at your option) any later version.
   
   xtb is distributed in the hope that it will be useful,
   but WITHOUT ANY WARRANTY; without even the implied warranty of
   MERCHANTABILITY or FITNESS FOR A PARTICULAR PURPOSE.  See the
   GNU Lesser General Public License for more details.
   
   Cite this work as:
   * C. Bannwarth, E. Caldeweyher, S. Ehlert, A. Hansen, P. Pracht,
     J. Seibert, S. Spicher, S. Grimme, WIREs Comput. Mol. Sci., 2020, 11,
     e01493. DOI: 10.1002/wcms.1493
   
   for GFN2-xTB:
   * C. Bannwarth, S. Ehlert and S. Grimme., J. Chem. Theory Comput., 2019,
     15, 1652-1671. DOI: 10.1021/acs.jctc.8b01176
   for GFN1-xTB:
   * S. Grimme, C. Bannwarth, P. Shushkov, J. Chem. Theory Comput., 2017,
     13, 1989-2009. DOI: 10.1021/acs.jctc.7b00118
   for GFN0-xTB:
   * P. Pracht, E. Caldeweyher, S. Ehlert, S. Grimme, ChemRxiv, 2019, preprint.
     DOI: 10.26434/chemrxiv.8326202.v1
   for GFN-FF:
   * S. Spicher and S. Grimme, Angew. Chem. Int. Ed., 2020, 59, 15665-15673.
     DOI: 10.1002/anie.202004239
   
   for ALPB and GBSA implicit solvation:
   * S. Ehlert, M. Stahn, S. Spicher, S. Grimme, J. Chem. Theory Comput.,
     2021, 17, 4250-4261. DOI: 10.1021/acs.jctc.1c00471
   
   for ddCOSMO and CPCM-X implicit solvation:
   * M. Stahn, S. Ehlert, S. Grimme, J. Phys. Chem. A,
     2023, XX, XXXX-XXXX. DOI: 10.1021/acs.jpca.3c04382
   
   for DFT-D4:
   * E. Caldeweyher, C. Bannwarth and S. Grimme, J. Chem. Phys., 2017,
     147, 034112. DOI: 10.1063/1.4993215
   * E. Caldeweyher, S. Ehlert, A. Hansen, H. Neugebauer, S. Spicher,
     C. Bannwarth and S. Grimme, J. Chem. Phys., 2019, 150, 154122.
     DOI: 10.1063/1.5090222
   * E. Caldeweyher, J.-M. Mewes, S. Ehlert and S. Grimme, Phys. Chem. Chem. Phys.
     2020, 22, 8499-8512. DOI: 10.1039/D0CP00502A
   
   for sTDA-xTB:
   * S. Grimme and C. Bannwarth, J. Chem. Phys., 2016, 145, 054103.
     DOI: 10.1063/1.4959605
   
   in the mass-spec context:
   * V. Asgeirsson, C. Bauer and S. Grimme, Chem. Sci., 2017, 8, 4879.
     DOI: 10.1039/c7sc00601b
   * J. Koopman and S. Grimme, ACS Omega 2019, 4, 12, 15120-15133.
     DOI: 10.1021/acsomega.9b02011
   
   for metadynamics refer to:
   * S. Grimme, J. Chem. Theory Comput., 2019, 155, 2847-2862
     DOI: 10.1021/acs.jctc.9b00143
   
   for SPH calculations refer to:
   * S. Spicher and S. Grimme, J. Chem. Theory Comput., 2021, 17, 1701-1714
     DOI: 10.1021/acs.jctc.0c01306
   
   for ONIOM refer to:
   * C. Plett, A. Katbashev, S. Ehlert, S. Grimme, M. Bursch,
     Phys. Chem. Chem. Phys., 2023, 25, 17860-17868. DOI: 10.1039/D3CP02178E
   
   for DIPRO refer to:
   * J. Kohn, N. Gildemeister, S. Grimme, D. Fazzi, A. Hansen,
     J. Chem. Phys., 2023, just accepted.
   
   for PTB refer to:
   * S. Grimme, M. Mueller, A. Hansen, J. Chem. Phys., 2023, 158, 124111.
     DOI: 10.1063/5.0137838
   
   with help from (in alphabetical order)
   P. Atkinson, C. Bannwarth, F. Bohle, G. Brandenburg, E. Caldeweyher
   M. Checinski, S. Dohm, S. Ehlert, S. Ehrlich, I. Gerasimov, C. Hölzer
   A. Katbashev, J. Kohn, J. Koopman, C. Lavigne, S. Lehtola, F. März, M. Müller,
   F. Musil, H. Neugebauer, J. Pisarek, C. Plett, P. Pracht, F. Pultar,
   J. Seibert, P. Shushkov, S. Spicher, M. Stahn, M. Steiner, T. Strunk,
   J. Stückrath, T. Rose, and J. Unsleber
   
 * started run on 2025/03/17 at 11:11:47.393     
   ID    Z sym.   atoms
    1    6 C      1-21, 26-38, 75
    2    8 O      22-25
    3    1 H      39-74, 76-78

           -------------------------------------------------
          |                Calculation Setup                |
           -------------------------------------------------

          program call               : xtb Katherine3.mol --opt tight --cycles 500 --chrg 0 --uhf 1 --spinpol --tblite
          coordinate file            : Katherine3.mol
          omp threads                :                     8

Wavefunction read from restart file
repulsion energy          1.4770052617909E+00 Eh
dispersion energy         7.5619593981285E-04 Eh
interaction energy        0.0000000000000E+00 Eh
number of electrons       2.0300000000000E+02 e
integral cutoff           1.7347787504999E+01 bohr

------------------------------------------------------------
  cycle        total energy    energy error   density error
------------------------------------------------------------
      1     -110.9691179551  -1.1244688E+02   5.8424690E-02
      2     -110.9580275263   1.1090429E-02   3.7667813E-02
      3     -110.8059026864   1.5212484E-01   3.2803952E-02
      4     -111.0154471701  -2.0954448E-01   6.4326068E-03
      5     -111.0180494736  -2.6023035E-03   3.8854526E-03
      6     -111.0175834140   4.6605954E-04   2.8216265E-03
      7     -111.0182103206  -6.2690655E-04   1.4088035E-03
      8     -111.0183223534  -1.1203281E-04   6.9630566E-04
      9     -111.0183325778  -1.0224423E-05   2.8967922E-04
     10     -111.0183356893  -3.1115168E-06   1.5406739E-04
     11     -111.0183360481  -3.5881079E-07   7.1273776E-05
     12     -111.0183363068  -2.5864107E-07   3.0843892E-05
     13     -111.0183363282  -2.1405341E-08   1.7796014E-05
------------------------------------------------------------

electronic energy        -1.1249609778592E+02 Eh
total energy             -1.1101833632819E+02 Eh

 total:                                   0.658 sec
 - repulsion                              0.000 sec (  0%)
 - dispersion                             0.006 sec (  0%)
 - coulomb                                0.002 sec (  0%)
 - hamiltonian                            0.009 sec (  1%)
 - scc                                    0.641 sec ( 97%)

      ----------------------------------------------------------- 
     |                   =====================                   |
     |                        A N C O P T                        |
     |                   =====================                   |
     |               Approximate Normal Coordinate               |
     |                Rational Function Optimizer                |
      ----------------------------------------------------------- 
      ----------------------------------------------------------- 
     |                   =====================                   |
     |                        A N C O P T                        |
     |                   =====================                   |
     |               Approximate Normal Coordinate               |
     |                Rational Function Optimizer                |
      ----------------------------------------------------------- 

          ...................................................
          :                      SETUP                      :
          :.................................................:
          :   optimization level             tight          :
          :   max. optcycles                   500          :
          :   ANC micro-cycles                  20          :
          :   degrees of freedom               228          :
          :.................................................:
          :   RF solver                   davidson          :
          :   write xtbopt.log                true          :
          :   linear?                        false          :
          :   energy convergence         0.1000000E-05 Eh   :
          :   grad. convergence          0.8000000E-03 Eh/α :
          :   maxmium RF displ.          1.0000000          :
          :   Hlow (freq-cutoff)         0.1000000E-01      :
          :   Hmax (freq-cutoff)         5.0000000          :
          :   S6 in model hess.         20.0000000          :
          ...................................................

generating ANC from exact Hessian ...
Using Lindh-Hessian (1995)
 Shifting diagonal of input Hessian by    9.9305692385430744E-003
 Lowest  eigenvalues of input Hessian
    0.000000    0.000000    0.000000    0.000000    0.000000    0.000000
    0.010000    0.010077    0.010151    0.010254    0.010389    0.010397
    0.010668    0.010985    0.011181    0.011598    0.012069    0.012317
 Highest eigenvalues
    1.919636    1.946955    2.013153    2.069950    2.160927    2.181159


........................................................................
.............................. CYCLE    1 ..............................
........................................................................
------------------------------------------------------------
  cycle        total energy    energy error   density error
------------------------------------------------------------
      1     -111.0183362914  -1.1249610E+02   1.5505870E-05
      2     -111.0183363075  -1.6161977E-08   1.2207417E-05
------------------------------------------------------------

 total:                                   0.123 sec
 * total energy  :  -111.0183363 Eh     change        0.2066970E-07 Eh
   gradient norm :     0.1638975 Eh/α   predicted     0.0000000E+00 (-100.00%)
   displ. norm   :     0.5312381 α      lambda       -0.6554991E-01
   maximum displ.:     0.2530329 α      in ANC's #88, #123, #49, ...

........................................................................
.............................. CYCLE    2 ..............................
........................................................................
------------------------------------------------------------
  cycle        total energy    energy error   density error
------------------------------------------------------------
      1     -111.0640804640  -1.1261473E+02   7.5428956E-03
      2     -111.0641454187  -6.4954754E-05   4.8565047E-03
      3     -111.0627984799   1.3469388E-03   3.7219272E-03
      4     -111.0650627873  -2.2643074E-03   7.1589077E-04
      5     -111.0651383878  -7.5600529E-05   3.5998785E-04
      6     -111.0651473860  -8.9981804E-06   2.2128437E-04
      7     -111.0651483384  -9.5245066E-07   8.6976481E-05
      8     -111.0651489616  -6.2318487E-07   3.9221414E-05
      9     -111.0651489876  -2.5928273E-08   1.8816460E-05
------------------------------------------------------------

 total:                                   0.480 sec
 * total energy  :  -111.0651490 Eh     change       -0.4681268E-01 Eh
   gradient norm :     0.0881444 Eh/α   predicted    -0.4203275E-01 ( -10.21%)
   displ. norm   :     0.5999196 α      lambda       -0.3307514E-01
   maximum displ.:     0.2789165 α      in ANC's #49, #21, #85, ...

........................................................................
.............................. CYCLE    3 ..............................
........................................................................
------------------------------------------------------------
  cycle        total energy    energy error   density error
------------------------------------------------------------
      1     -111.0850864383  -1.1270014E+02   5.4173098E-03
      2     -111.0853040199  -2.1758168E-04   3.9697027E-03
      3     -111.0850247152   2.7930470E-04   2.1269597E-03
      4     -111.0856903439  -6.6562862E-04   6.6068704E-04
      5     -111.0857670862  -7.6742387E-05   2.9115241E-04
      6     -111.0857721169  -5.0306991E-06   1.7354019E-04
      7     -111.0857723156  -1.9867414E-07   7.9106747E-05
      8     -111.0857729766  -6.6101127E-07   3.0167998E-05
      9     -111.0857729838  -7.1277668E-09   1.6442685E-05
------------------------------------------------------------

 total:                                   0.429 sec
 * total energy  :  -111.0857730 Eh     change       -0.2062400E-01 Eh
   gradient norm :     0.0322857 Eh/α   predicted    -0.2248963E-01 (   9.05%)
   displ. norm   :     0.5832740 α      lambda       -0.1119227E-01
   maximum displ.:     0.2901610 α      in ANC's #21, #49, #11, ...

........................................................................
.............................. CYCLE    4 ..............................
........................................................................
------------------------------------------------------------
  cycle        total energy    energy error   density error
------------------------------------------------------------
      1     -111.0944254775  -1.1272556E+02   3.1349534E-03
      2     -111.0944412489  -1.5771322E-05   1.8690682E-03
      3     -111.0944034202   3.7828677E-05   5.6341284E-04
      4     -111.0944484598  -4.5039575E-05   1.1423736E-04
      5     -111.0944489853  -5.2553627E-07   7.9817774E-05
      6     -111.0944493106  -3.2532931E-07   4.5991633E-05
      7     -111.0944494605  -1.4984946E-07   1.9336410E-05
------------------------------------------------------------

 total:                                   0.346 sec
 * total energy  :  -111.0944495 Eh     change       -0.8676477E-02 Eh
   gradient norm :     0.0215538 Eh/α   predicted    -0.7500585E-02 ( -13.55%)
   displ. norm   :     0.6778023 α      lambda       -0.7926481E-02
   maximum displ.:     0.3373749 α      in ANC's #21, #11, #17, ...

........................................................................
.............................. CYCLE    5 ..............................
........................................................................
------------------------------------------------------------
  cycle        total energy    energy error   density error
------------------------------------------------------------
      1     -111.1006273425  -1.1274544E+02   2.8372426E-03
      2     -111.1006430394  -1.5696866E-05   1.6890593E-03
      3     -111.1006057479   3.7291507E-05   5.5299679E-04
      4     -111.1006491243  -4.3376453E-05   1.0356172E-04
      5     -111.1006501522  -1.0279007E-06   6.4412980E-05
      6     -111.1006505188  -3.6655054E-07   3.7279016E-05
      7     -111.1006506038  -8.5019167E-08   1.5445915E-05
------------------------------------------------------------

 total:                                   0.405 sec
 * total energy  :  -111.1006506 Eh     change       -0.6201143E-02 Eh
   gradient norm :     0.0150934 Eh/α   predicted    -0.5784024E-02 (  -6.73%)
   displ. norm   :     0.6579987 α      lambda       -0.4822186E-02
   maximum displ.:     0.3061167 α      in ANC's #11, #21, #9, ...

........................................................................
.............................. CYCLE    6 ..............................
........................................................................
------------------------------------------------------------
  cycle        total energy    energy error   density error
------------------------------------------------------------
      1     -111.1043629744  -1.1275942E+02   2.1810556E-03
      2     -111.1043756485  -1.2674145E-05   1.3000459E-03
      3     -111.1043521677   2.3480829E-05   4.5287250E-04
      4     -111.1043804198  -2.8252131E-05   6.9824881E-05
      5     -111.1043807951  -3.7528581E-07   3.7612115E-05
      6     -111.1043808496  -5.4493754E-08   2.2389137E-05
      7     -111.1043808858  -3.6151732E-08   9.3218451E-06
------------------------------------------------------------

 total:                                   0.416 sec
 * total energy  :  -111.1043809 Eh     change       -0.3730282E-02 Eh
   gradient norm :     0.0135153 Eh/α   predicted    -0.3455010E-02 (  -7.38%)
   displ. norm   :     0.6026174 α      lambda       -0.2948477E-02
   maximum displ.:     0.3118638 α      in ANC's #11, #9, #21, ...

........................................................................
.............................. CYCLE    7 ..............................
........................................................................
------------------------------------------------------------
  cycle        total energy    energy error   density error
------------------------------------------------------------
      1     -111.1066543925  -1.1277001E+02   1.6366931E-03
      2     -111.1066632573  -8.8648063E-06   9.7697707E-04
      3     -111.1066364725   2.6784785E-05   4.0025241E-04
      4     -111.1066668763  -3.0403816E-05   7.8150138E-05
      5     -111.1066677905  -9.1415902E-07   4.1413560E-05
      6     -111.1066680134  -2.2295900E-07   1.9880611E-05
------------------------------------------------------------

 total:                                   0.283 sec
 * total energy  :  -111.1066680 Eh     change       -0.2287128E-02 Eh
   gradient norm :     0.0124386 Eh/α   predicted    -0.2009609E-02 ( -12.13%)
   displ. norm   :     0.5684297 α      lambda       -0.2060122E-02
   maximum displ.:     0.2990600 α      in ANC's #11, #9, #20, ...

........................................................................
.............................. CYCLE    8 ..............................
........................................................................
------------------------------------------------------------
  cycle        total energy    energy error   density error
------------------------------------------------------------
      1     -111.1082872608  -1.1277586E+02   1.4976683E-03
      2     -111.1082928870  -5.6261975E-06   8.9357203E-04
      3     -111.1082651829   2.7704024E-05   3.6480199E-04
      4     -111.1082961044  -3.0921477E-05   6.9728136E-05
      5     -111.1082968399  -7.3548316E-07   3.6801161E-05
      6     -111.1082969859  -1.4602561E-07   1.7150766E-05
------------------------------------------------------------

 total:                                   0.366 sec
 * total energy  :  -111.1082970 Eh     change       -0.1628972E-02 Eh
   gradient norm :     0.0103886 Eh/α   predicted    -0.1362889E-02 ( -16.33%)
   displ. norm   :     0.5769165 α      lambda       -0.1707716E-02
   maximum displ.:     0.2785869 α      in ANC's #11, #2, #9, ...

........................................................................
.............................. CYCLE    9 ..............................
........................................................................
------------------------------------------------------------
  cycle        total energy    energy error   density error
------------------------------------------------------------
      1     -111.1096704214  -1.1277895E+02   1.7023244E-03
      2     -111.1096751448  -4.7233223E-06   1.0125140E-03
      3     -111.1096457494   2.9395397E-05   3.7720115E-04
      4     -111.1096784980  -3.2748586E-05   7.2136538E-05
      5     -111.1096792350  -7.3699408E-07   3.8464535E-05
      6     -111.1096793735  -1.3853568E-07   1.6276905E-05
------------------------------------------------------------

 total:                                   0.296 sec
 * total energy  :  -111.1096794 Eh     change       -0.1382388E-02 Eh
   gradient norm :     0.0089594 Eh/α   predicted    -0.1138051E-02 ( -17.67%)
   displ. norm   :     0.6169770 α      lambda       -0.1567084E-02
   maximum displ.:     0.2394858 α      in ANC's #11, #2, #4, ...

........................................................................
.............................. CYCLE   10 ..............................
........................................................................
------------------------------------------------------------
  cycle        total energy    energy error   density error
------------------------------------------------------------
      1     -111.1109555728  -1.1277798E+02   2.0205147E-03
      2     -111.1109678432  -1.2270414E-05   1.2025723E-03
      3     -111.1109436763   2.4166839E-05   4.5930606E-04
      4     -111.1109733123  -2.9635967E-05   6.8575807E-05
      5     -111.1109735397  -2.2739499E-07   4.1391354E-05
      6     -111.1109737036  -1.6387997E-07   2.2525819E-05
      7     -111.1109737304  -2.6857379E-08   9.8181686E-06
------------------------------------------------------------

 total:                                   0.383 sec
 * total energy  :  -111.1109737 Eh     change       -0.1294357E-02 Eh
   gradient norm :     0.0097077 Eh/α   predicted    -0.1081807E-02 ( -16.42%)
   displ. norm   :     0.6627021 α      lambda       -0.1632754E-02
   maximum displ.:     0.2988326 α      in ANC's #2, #4, #6, ...

........................................................................
.............................. CYCLE   11 ..............................
........................................................................
------------------------------------------------------------
  cycle        total energy    energy error   density error
------------------------------------------------------------
      1     -111.1121558402  -1.1277923E+02   2.2454701E-03
      2     -111.1121941056  -3.8265379E-05   1.3501780E-03
      3     -111.1121534879   4.0617682E-05   7.2232242E-04
      4     -111.1122125196  -5.9031720E-05   1.1366890E-04
      5     -111.1122136115  -1.0918355E-06   6.7667017E-05
      6     -111.1122144025  -7.9105314E-07   3.0158195E-05
      7     -111.1122144337  -3.1177734E-08   1.5597390E-05
------------------------------------------------------------

 total:                                   0.393 sec
 * total energy  :  -111.1122144 Eh     change       -0.1240703E-02 Eh
   gradient norm :     0.0117692 Eh/α   predicted    -0.1174923E-02 (  -5.30%)
   displ. norm   :     0.6990402 α      lambda       -0.1789529E-02
   maximum displ.:     0.3232113 α      in ANC's #2, #4, #6, ...

........................................................................
.............................. CYCLE   12 ..............................
........................................................................
------------------------------------------------------------
  cycle        total energy    energy error   density error
------------------------------------------------------------
      1     -111.1132355529  -1.1277201E+02   2.5267725E-03
      2     -111.1133117767  -7.6223872E-05   1.5687280E-03
      3     -111.1132709080   4.0868710E-05   9.2268597E-04
      4     -111.1133561031  -8.5195036E-05   1.5084356E-04
      5     -111.1133581886  -2.0855546E-06   7.7161641E-05
      6     -111.1133591211  -9.3248353E-07   3.4617185E-05
      7     -111.1133591356  -1.4515351E-08   1.8604094E-05
------------------------------------------------------------

 total:                                   0.341 sec
 * total energy  :  -111.1133591 Eh     change       -0.1144702E-02 Eh
   gradient norm :     0.0145330 Eh/α   predicted    -0.1332008E-02 (  16.36%)
   displ. norm   :     0.4951807 α      lambda       -0.1476862E-02
   maximum displ.:     0.2606629 α      in ANC's #2, #4, #6, ...

........................................................................
.............................. CYCLE   13 ..............................
........................................................................
------------------------------------------------------------
  cycle        total energy    energy error   density error
------------------------------------------------------------
      1     -111.1145103450  -1.1277769E+02   1.6760943E-03
      2     -111.1145475086  -3.7163600E-05   1.0370249E-03
      3     -111.1145337222   1.3786327E-05   6.1041726E-04
      4     -111.1145661410  -3.2418764E-05   1.1069207E-04
      5     -111.1145671717  -1.0306990E-06   5.9923942E-05
      6     -111.1145678228  -6.5107545E-07   2.5212151E-05
      7     -111.1145678439  -2.1116975E-08   1.4028007E-05
------------------------------------------------------------

 total:                                   0.454 sec
 * total energy  :  -111.1145678 Eh     change       -0.1208708E-02 Eh
   gradient norm :     0.0139422 Eh/α   predicted    -0.9195025E-03 ( -23.93%)
   displ. norm   :     0.5762358 α      lambda       -0.1871526E-02
   maximum displ.:     0.2909318 α      in ANC's #2, #4, #6, ...

........................................................................
.............................. CYCLE   14 ..............................
........................................................................
------------------------------------------------------------
  cycle        total energy    energy error   density error
------------------------------------------------------------
      1     -111.1159345789  -1.1278336E+02   1.9238298E-03
      2     -111.1159497414  -1.5162551E-05   1.1346608E-03
      3     -111.1159248587   2.4882734E-05   4.7923024E-04
      4     -111.1159555487  -3.0690014E-05   8.2655757E-05
      5     -111.1159560661  -5.1739103E-07   4.8043109E-05
      6     -111.1159563504  -2.8431653E-07   2.4760148E-05
      7     -111.1159563888  -3.8383575E-08   1.0519045E-05
------------------------------------------------------------

 total:                                   0.434 sec
 * total energy  :  -111.1159564 Eh     change       -0.1388545E-02 Eh
   gradient norm :     0.0143908 Eh/α   predicted    -0.1246482E-02 ( -10.23%)
   displ. norm   :     0.6459180 α      lambda       -0.1620596E-02
   maximum displ.:     0.3274619 α      in ANC's #2, #4, #6, ...

........................................................................
.............................. CYCLE   15 ..............................
........................................................................
------------------------------------------------------------
  cycle        total energy    energy error   density error
------------------------------------------------------------
      1     -111.1171856760  -1.1278993E+02   2.0693719E-03
      2     -111.1172005441  -1.4868025E-05   1.2259776E-03
      3     -111.1171749384   2.5605674E-05   4.7199219E-04
      4     -111.1172057952  -3.0856799E-05   7.5598996E-05
      5     -111.1172062183  -4.2315398E-07   4.3242594E-05
      6     -111.1172064163  -1.9795696E-07   2.3150573E-05
      7     -111.1172064526  -3.6340509E-08   9.7094961E-06
------------------------------------------------------------

 total:                                   0.401 sec
 * total energy  :  -111.1172065 Eh     change       -0.1250064E-02 Eh
   gradient norm :     0.0163521 Eh/α   predicted    -0.1148365E-02 (  -8.14%)
   displ. norm   :     0.6321574 α      lambda       -0.1506141E-02
   maximum displ.:     0.3350000 α      in ANC's #2, #4, #6, ...

........................................................................
.............................. CYCLE   16 ..............................
........................................................................
------------------------------------------------------------
  cycle        total energy    energy error   density error
------------------------------------------------------------
      1     -111.1184052121  -1.1278680E+02   1.9639199E-03
      2     -111.1184102587  -5.0465534E-06   1.1543497E-03
      3     -111.1184058060   4.4526284E-06   1.9145848E-04
      4     -111.1184114858  -5.6797325E-06   5.3857233E-05
      5     -111.1184117369  -2.5117711E-07   2.9793427E-05
      6     -111.1184117737  -3.6732445E-08   1.8554870E-05
------------------------------------------------------------

 total:                                   0.270 sec
 * total energy  :  -111.1184118 Eh     change       -0.1205321E-02 Eh
   gradient norm :     0.0122858 Eh/α   predicted    -0.1054017E-02 ( -12.55%)
   displ. norm   :     0.6380913 α      lambda       -0.1515868E-02
   maximum displ.:     0.3428288 α      in ANC's #2, #4, #9, ...

........................................................................
.............................. CYCLE   17 ..............................
........................................................................
------------------------------------------------------------
  cycle        total energy    energy error   density error
------------------------------------------------------------
      1     -111.1195588231  -1.1279116E+02   1.9451872E-03
      2     -111.1195656222  -6.7991133E-06   1.1663858E-03
      3     -111.1195196459   4.5976293E-05   4.8578516E-04
      4     -111.1195710696  -5.1423711E-05   8.2080963E-05
      5     -111.1195723081  -1.2384712E-06   3.7044003E-05
      6     -111.1195724231  -1.1501699E-07   1.8445781E-05
------------------------------------------------------------

 total:                                   0.340 sec
 * total energy  :  -111.1195724 Eh     change       -0.1160649E-02 Eh
   gradient norm :     0.0120229 Eh/α   predicted    -0.1066535E-02 (  -8.11%)
   displ. norm   :     0.6878525 α      lambda       -0.1388908E-02
   maximum displ.:     0.4066044 α      in ANC's #2, #4, #6, ...

........................................................................
.............................. CYCLE   18 ..............................
........................................................................
------------------------------------------------------------
  cycle        total energy    energy error   density error
------------------------------------------------------------
      1     -111.1207208976  -1.1278697E+02   2.0850207E-03
      2     -111.1207376932  -1.6795595E-05   1.2422189E-03
      3     -111.1206943235   4.3369731E-05   5.6520353E-04
      4     -111.1207466246  -5.2301168E-05   7.1777861E-05
      5     -111.1207472453  -6.2070755E-07   3.8630532E-05
      6     -111.1207474032  -1.5789811E-07   2.2748307E-05
      7     -111.1207474118  -8.5650953E-09   1.0440999E-05
------------------------------------------------------------

 total:                                   0.283 sec
 * total energy  :  -111.1207474 Eh     change       -0.1174989E-02 Eh
   gradient norm :     0.0113279 Eh/α   predicted    -0.1023034E-02 ( -12.93%)
   displ. norm   :     0.6807901 α      lambda       -0.1540278E-02
   maximum displ.:     0.3941278 α      in ANC's #2, #4, #7, ...

........................................................................
.............................. CYCLE   19 ..............................
........................................................................
------------------------------------------------------------
  cycle        total energy    energy error   density error
------------------------------------------------------------
      1     -111.1219896713  -1.1279200E+02   2.1905376E-03
      2     -111.1220013542  -1.1682841E-05   1.2979113E-03
      3     -111.1219840451   1.7309102E-05   3.8030286E-04
      4     -111.1220045005  -2.0455456E-05   7.4233697E-05
      5     -111.1220050299  -5.2935231E-07   3.6502507E-05
      6     -111.1220051163  -8.6437538E-08   2.0861141E-05
      7     -111.1220051483  -3.2010732E-08   9.5730139E-06
------------------------------------------------------------

 total:                                   0.250 sec
 * total energy  :  -111.1220051 Eh     change       -0.1257737E-02 Eh
   gradient norm :     0.0140176 Eh/α   predicted    -0.1127087E-02 ( -10.39%)
   displ. norm   :     0.7637016 α      lambda       -0.1691722E-02
   maximum displ.:     0.4895099 α      in ANC's #2, #4, #7, ...

........................................................................
.............................. CYCLE   20 ..............................
........................................................................
------------------------------------------------------------
  cycle        total energy    energy error   density error
------------------------------------------------------------
      1     -111.1233995845  -1.1278908E+02   2.3296585E-03
      2     -111.1234245998  -2.5015296E-05   1.3977758E-03
      3     -111.1233669574   5.7642434E-05   6.4763604E-04
      4     -111.1234364743  -6.9516887E-05   8.8485061E-05
      5     -111.1234375275  -1.0532074E-06   4.6807409E-05
      6     -111.1234378065  -2.7905897E-07   2.4658481E-05
      7     -111.1234378123  -5.8170713E-09   1.2893926E-05
------------------------------------------------------------

 total:                                   0.249 sec
 * total energy  :  -111.1234378 Eh     change       -0.1432664E-02 Eh
   gradient norm :     0.0145337 Eh/α   predicted    -0.1339208E-02 (  -6.52%)
   displ. norm   :     0.6829672 α      lambda       -0.1629411E-02
   maximum displ.:     0.4355497 α      in ANC's #2, #4, #7, ...
 * RMSD in coord.:     0.9536396 α      energy gain  -0.1051015E+00 Eh

generating ANC from exact Hessian ...
Using Lindh-Hessian (1995)
 Shifting diagonal of input Hessian by    9.8892569968321541E-003
 Lowest  eigenvalues of input Hessian
    0.000000    0.000000    0.000000    0.000000    0.000000    0.000000
    0.010000    0.010114    0.010245    0.010269    0.010447    0.010522
    0.010827    0.011124    0.011472    0.011786    0.012709    0.012768
 Highest eigenvalues
    2.006513    2.034513    2.067639    2.075635    2.222666    2.242886


........................................................................
.............................. CYCLE   21 ..............................
........................................................................
------------------------------------------------------------
  cycle        total energy    energy error   density error
------------------------------------------------------------
      1     -111.1247757160  -1.1279281E+02   2.2005856E-03
      2     -111.1247849176  -9.2016168E-06   1.3175700E-03
      3     -111.1247428784   4.2039214E-05   4.7908176E-04
      4     -111.1247892509  -4.6372545E-05   8.8281341E-05
      5     -111.1247906133  -1.3623903E-06   4.1950062E-05
      6     -111.1247908147  -2.0140600E-07   1.9488919E-05
------------------------------------------------------------

 total:                                   0.228 sec
 * total energy  :  -111.1247908 Eh     change       -0.1353002E-02 Eh
   gradient norm :     0.0139564 Eh/α   predicted     0.0000000E+00 (-100.00%)
   displ. norm   :     0.1971214 α      lambda       -0.7511710E-03
   maximum displ.:     0.0947590 α      in ANC's #3, #1, #7, ...

........................................................................
.............................. CYCLE   22 ..............................
........................................................................
------------------------------------------------------------
  cycle        total energy    energy error   density error
------------------------------------------------------------
      1     -111.1254187506  -1.1279647E+02   7.3477636E-04
      2     -111.1254224731  -3.7224123E-06   4.4774821E-04
      3     -111.1254143640   8.1090155E-06   2.3992160E-04
      4     -111.1254243380  -9.9739520E-06   4.7146274E-05
      5     -111.1254247555  -4.1747494E-07   2.2353541E-05
      6     -111.1254248242  -6.8768742E-08   1.1011960E-05
------------------------------------------------------------

 total:                                   0.295 sec
 * total energy  :  -111.1254248 Eh     change       -0.6340095E-03 Eh
   gradient norm :     0.0062993 Eh/α   predicted    -0.3901853E-03 ( -38.46%)
   displ. norm   :     0.5146570 α      lambda       -0.1292409E-02
   maximum displ.:     0.2461406 α      in ANC's #3, #1, #7, ...

........................................................................
.............................. CYCLE   23 ..............................
........................................................................
------------------------------------------------------------
  cycle        total energy    energy error   density error
------------------------------------------------------------
      1     -111.1264534930  -1.1280034E+02   1.5974873E-03
      2     -111.1264647514  -1.1258464E-05   9.5932093E-04
      3     -111.1264393800   2.5371443E-05   4.3162310E-04
      4     -111.1264690236  -2.9643607E-05   8.0114750E-05
      5     -111.1264701459  -1.1222716E-06   3.9571659E-05
      6     -111.1264703637  -2.1783740E-07   2.0013800E-05
      7     -111.1264703766  -1.2926549E-08   9.3917408E-06
------------------------------------------------------------

 total:                                   0.263 sec
 * total energy  :  -111.1264704 Eh     change       -0.1045552E-02 Eh
   gradient norm :     0.0079904 Eh/α   predicted    -0.8174280E-03 ( -21.82%)
   displ. norm   :     0.6488231 α      lambda       -0.1219865E-02
   maximum displ.:     0.3152772 α      in ANC's #3, #1, #7, ...

........................................................................
.............................. CYCLE   24 ..............................
........................................................................
------------------------------------------------------------
  cycle        total energy    energy error   density error
------------------------------------------------------------
      1     -111.1275678172  -1.1280070E+02   1.8498734E-03
      2     -111.1275739806  -6.1633776E-06   1.0998907E-03
      3     -111.1275565237   1.7456860E-05   3.5373004E-04
      4     -111.1275766582  -2.0134469E-05   5.7848004E-05
      5     -111.1275770084  -3.5024935E-07   3.2394642E-05
      6     -111.1275771048  -9.6361006E-08   1.8161601E-05
------------------------------------------------------------

 total:                                   0.260 sec
 * total energy  :  -111.1275771 Eh     change       -0.1106728E-02 Eh
   gradient norm :     0.0141832 Eh/α   predicted    -0.8667278E-03 ( -21.69%)
   displ. norm   :     0.7515519 α      lambda       -0.1426929E-02
   maximum displ.:     0.3701888 α      in ANC's #3, #1, #7, ...

........................................................................
.............................. CYCLE   25 ..............................
........................................................................
------------------------------------------------------------
  cycle        total energy    energy error   density error
------------------------------------------------------------
      1     -111.1288632073  -1.1279894E+02   2.0399610E-03
      2     -111.1288675646  -4.3573852E-06   1.2127198E-03
      3     -111.1288423226   2.5242065E-05   3.5509896E-04
      4     -111.1288699358  -2.7613198E-05   6.8651038E-05
      5     -111.1288706505  -7.1475682E-07   3.5429977E-05
      6     -111.1288707728  -1.2224864E-07   1.6209562E-05
------------------------------------------------------------

 total:                                   0.281 sec
 * total energy  :  -111.1288708 Eh     change       -0.1293668E-02 Eh
   gradient norm :     0.0155804 Eh/α   predicted    -0.1116453E-02 ( -13.70%)
   displ. norm   :     0.7445703 α      lambda       -0.1550702E-02
   maximum displ.:     0.3759247 α      in ANC's #3, #1, #7, ...

........................................................................
.............................. CYCLE   26 ..............................
........................................................................
------------------------------------------------------------
  cycle        total energy    energy error   density error
------------------------------------------------------------
      1     -111.1302244601  -1.1279817E+02   1.9379139E-03
      2     -111.1302326964  -8.2363352E-06   1.1529258E-03
      3     -111.1302137820   1.8914378E-05   3.3345936E-04
      4     -111.1302352458  -2.1463737E-05   6.4545510E-05
      5     -111.1302357535  -5.0769073E-07   3.3998714E-05
      6     -111.1302358748  -1.2130825E-07   1.8740134E-05
------------------------------------------------------------

 total:                                   0.287 sec
 * total energy  :  -111.1302359 Eh     change       -0.1365102E-02 Eh
   gradient norm :     0.0123963 Eh/α   predicted    -0.1205199E-02 ( -11.71%)
   displ. norm   :     0.7037723 α      lambda       -0.1637790E-02
   maximum displ.:     0.3641553 α      in ANC's #1, #3, #2, ...

........................................................................
.............................. CYCLE   27 ..............................
........................................................................
------------------------------------------------------------
  cycle        total energy    energy error   density error
------------------------------------------------------------
      1     -111.1315870152  -1.1280123E+02   1.8901489E-03
      2     -111.1316004262  -1.3411062E-05   1.1205174E-03
      3     -111.1315727518   2.7674406E-05   4.1153310E-04
      4     -111.1316045886  -3.1836712E-05   7.6846362E-05
      5     -111.1316054192  -8.3062146E-07   3.7820050E-05
      6     -111.1316055691  -1.4991599E-07   2.1894372E-05
      7     -111.1316055909  -2.1773076E-08   1.0753130E-05
------------------------------------------------------------

 total:                                   0.254 sec
 * total energy  :  -111.1316056 Eh     change       -0.1369716E-02 Eh
   gradient norm :     0.0099694 Eh/α   predicted    -0.1224491E-02 ( -10.60%)
   displ. norm   :     0.7744311 α      lambda       -0.1485483E-02
   maximum displ.:     0.4132765 α      in ANC's #1, #3, #2, ...

........................................................................
.............................. CYCLE   28 ..............................
........................................................................
------------------------------------------------------------
  cycle        total energy    energy error   density error
------------------------------------------------------------
      1     -111.1329023425  -1.1280159E+02   2.0475456E-03
      2     -111.1329110272  -8.6846463E-06   1.2074924E-03
      3     -111.1328920834   1.8943788E-05   3.2377361E-04
      4     -111.1329136371  -2.1553700E-05   5.7939377E-05
      5     -111.1329141127  -4.7564535E-07   2.6716537E-05
      6     -111.1329141334  -2.0721586E-08   1.6063347E-05
------------------------------------------------------------

 total:                                   0.213 sec
 * total energy  :  -111.1329141 Eh     change       -0.1308543E-02 Eh
   gradient norm :     0.0140101 Eh/α   predicted    -0.1188198E-02 (  -9.20%)
   displ. norm   :     0.7293818 α      lambda       -0.1764848E-02
   maximum displ.:     0.4154119 α      in ANC's #1, #3, #2, ...

........................................................................
.............................. CYCLE   29 ..............................
........................................................................
------------------------------------------------------------
  cycle        total energy    energy error   density error
------------------------------------------------------------
      1     -111.1342538278  -1.1281009E+02   2.1441381E-03
      2     -111.1342599461  -6.1183284E-06   1.2634693E-03
      3     -111.1342520528   7.8932861E-06   2.1936479E-04
      4     -111.1342609348  -8.8819854E-06   7.4132073E-05
      5     -111.1342617377  -8.0291809E-07   3.6130262E-05
      6     -111.1342618584  -1.2068726E-07   1.9563205E-05
------------------------------------------------------------

 total:                                   0.230 sec
 * total energy  :  -111.1342619 Eh     change       -0.1347725E-02 Eh
   gradient norm :     0.0160536 Eh/α   predicted    -0.1351878E-02 (   0.31%)
   displ. norm   :     0.8127709 α      lambda       -0.1643004E-02
   maximum displ.:     0.4623356 α      in ANC's #1, #3, #2, ...

........................................................................
.............................. CYCLE   30 ..............................
........................................................................
------------------------------------------------------------
  cycle        total energy    energy error   density error
------------------------------------------------------------
      1     -111.1356741240  -1.1280813E+02   2.0317779E-03
      2     -111.1356778292  -3.7051960E-06   1.2064334E-03
      3     -111.1356481637   2.9665500E-05   3.3060670E-04
      4     -111.1356801037  -3.1940028E-05   6.2207487E-05
      5     -111.1356808092  -7.0550165E-07   2.5535868E-05
      6     -111.1356808232  -1.4050940E-08   1.4191959E-05
------------------------------------------------------------

 total:                                   0.222 sec
 * total energy  :  -111.1356808 Eh     change       -0.1418965E-02 Eh
   gradient norm :     0.0147131 Eh/α   predicted    -0.1364184E-02 (  -3.86%)
   displ. norm   :     0.7336664 α      lambda       -0.1627191E-02
   maximum displ.:     0.4458453 α      in ANC's #1, #3, #2, ...

........................................................................
.............................. CYCLE   31 ..............................
........................................................................
------------------------------------------------------------
  cycle        total energy    energy error   density error
------------------------------------------------------------
      1     -111.1370444592  -1.1280971E+02   1.7491552E-03
      2     -111.1370510219  -6.5627070E-06   1.0382233E-03
      3     -111.1370256016   2.5420294E-05   3.9065087E-04
      4     -111.1370542551  -2.8653512E-05   6.4954484E-05
      5     -111.1370550016  -7.4647940E-07   3.2076127E-05
      6     -111.1370551331  -1.3158271E-07   1.6504796E-05
------------------------------------------------------------

 total:                                   0.232 sec
 * total energy  :  -111.1370551 Eh     change       -0.1374310E-02 Eh
   gradient norm :     0.0113968 Eh/α   predicted    -0.1251528E-02 (  -8.93%)
   displ. norm   :     0.7419189 α      lambda       -0.1491118E-02
   maximum displ.:     0.4670989 α      in ANC's #1, #3, #2, ...

........................................................................
.............................. CYCLE   32 ..............................
........................................................................
------------------------------------------------------------
  cycle        total energy    energy error   density error
------------------------------------------------------------
      1     -111.1383501414  -1.1281205E+02   1.6686732E-03
      2     -111.1383527788  -2.6373851E-06   9.8727312E-04
      3     -111.1383412725   1.1506286E-05   2.2920650E-04
      4     -111.1383538054  -1.2532877E-05   5.6671634E-05
      5     -111.1383543633  -5.5785613E-07   2.8504674E-05
      6     -111.1383544029  -3.9584933E-08   1.4998132E-05
------------------------------------------------------------

 total:                                   0.222 sec
 * total energy  :  -111.1383544 Eh     change       -0.1299270E-02 Eh
   gradient norm :     0.0102980 Eh/α   predicted    -0.1155950E-02 ( -11.03%)
   displ. norm   :     0.8294492 α      lambda       -0.1425728E-02
   maximum displ.:     0.5343352 α      in ANC's #1, #3, #2, ...

........................................................................
.............................. CYCLE   33 ..............................
........................................................................
------------------------------------------------------------
  cycle        total energy    energy error   density error
------------------------------------------------------------
      1     -111.1396499038  -1.1281322E+02   1.7062836E-03
      2     -111.1396522293  -2.3254723E-06   1.0129081E-03
      3     -111.1396392731   1.2956184E-05   2.4537805E-04
      4     -111.1396538482  -1.4575113E-05   4.3378978E-05
      5     -111.1396540050  -1.5673967E-07   2.7507264E-05
      6     -111.1396540549  -4.9984564E-08   1.6525226E-05
------------------------------------------------------------

 total:                                   0.329 sec
 * total energy  :  -111.1396541 Eh     change       -0.1299652E-02 Eh
   gradient norm :     0.0096361 Eh/α   predicted    -0.1203305E-02 (  -7.41%)
   displ. norm   :     0.8081983 α      lambda       -0.1546852E-02
   maximum displ.:     0.5395660 α      in ANC's #1, #9, #2, ...

........................................................................
.............................. CYCLE   34 ..............................
........................................................................
------------------------------------------------------------
  cycle        total energy    energy error   density error
------------------------------------------------------------
      1     -111.1408416232  -1.1282224E+02   1.7865878E-03
      2     -111.1408489760  -7.3527027E-06   1.0639530E-03
      3     -111.1408141107   3.4865265E-05   4.5327525E-04
      4     -111.1408533573  -3.9246594E-05   7.8571789E-05
      5     -111.1408545707  -1.2134029E-06   3.6557901E-05
      6     -111.1408547528  -1.8211843E-07   1.6185151E-05
------------------------------------------------------------

 total:                                   0.269 sec
 * total energy  :  -111.1408548 Eh     change       -0.1200698E-02 Eh
   gradient norm :     0.0107475 Eh/α   predicted    -0.1278618E-02 (   6.49%)
   displ. norm   :     0.8667468 α      lambda       -0.1527018E-02
   maximum displ.:     0.5753679 α      in ANC's #1, #2, #3, ...

........................................................................
.............................. CYCLE   35 ..............................
........................................................................
------------------------------------------------------------
  cycle        total energy    energy error   density error
------------------------------------------------------------
      1     -111.1420728820  -1.1281778E+02   1.8043825E-03
      2     -111.1420828526  -9.9705544E-06   1.0746735E-03
      3     -111.1420547337   2.8118882E-05   3.9594418E-04
      4     -111.1420866052  -3.1871504E-05   6.9804443E-05
      5     -111.1420873991  -7.9394724E-07   3.4378208E-05
      6     -111.1420875837  -1.8457258E-07   1.7609505E-05
------------------------------------------------------------

 total:                                   0.249 sec
 * total energy  :  -111.1420876 Eh     change       -0.1232831E-02 Eh
   gradient norm :     0.0106739 Eh/α   predicted    -0.1337097E-02 (   8.46%)
   displ. norm   :     0.7860496 α      lambda       -0.1276200E-02
   maximum displ.:     0.5361671 α      in ANC's #1, #2, #9, ...

........................................................................
.............................. CYCLE   36 ..............................
........................................................................
------------------------------------------------------------
  cycle        total energy    energy error   density error
------------------------------------------------------------
      1     -111.1431030772  -1.1281748E+02   1.5447459E-03
      2     -111.1431048953  -1.8181456E-06   9.1862139E-04
      3     -111.1430859060   1.8989310E-05   2.7576672E-04
      4     -111.1431065436  -2.0637617E-05   4.5669303E-05
      5     -111.1431068874  -3.4375633E-07   2.2108240E-05
      6     -111.1431069054  -1.8007725E-08   1.1808411E-05
------------------------------------------------------------

 total:                                   0.283 sec
 * total energy  :  -111.1431069 Eh     change       -0.1019322E-02 Eh
   gradient norm :     0.0129641 Eh/α   predicted    -0.1032370E-02 (   1.28%)
   displ. norm   :     0.7711072 α      lambda       -0.1304915E-02
   maximum displ.:     0.5402835 α      in ANC's #1, #2, #9, ...

........................................................................
.............................. CYCLE   37 ..............................
........................................................................
------------------------------------------------------------
  cycle        total energy    energy error   density error
------------------------------------------------------------
      1     -111.1442181291  -1.1281775E+02   1.6234504E-03
      2     -111.1442234382  -5.3090666E-06   9.6745155E-04
      3     -111.1442113573   1.2080948E-05   2.2766043E-04
      4     -111.1442238037  -1.2446430E-05   6.9595691E-05
      5     -111.1442249296  -1.1259331E-06   2.1631312E-05
      6     -111.1442249805  -5.0860109E-08   1.2373806E-05
------------------------------------------------------------

 total:                                   0.299 sec
 * total energy  :  -111.1442250 Eh     change       -0.1118075E-02 Eh
   gradient norm :     0.0082725 Eh/α   predicted    -0.1040417E-02 (  -6.95%)
   displ. norm   :     0.7631305 α      lambda       -0.1598293E-02
   maximum displ.:     0.4866509 α      in ANC's #1, #7, #9, ...

........................................................................
.............................. CYCLE   38 ..............................
........................................................................
------------------------------------------------------------
  cycle        total energy    energy error   density error
------------------------------------------------------------
      1     -111.1449473304  -1.1282695E+02   2.3200860E-03
      2     -111.1449775648  -3.0234389E-05   1.4145839E-03
      3     -111.1449302078   4.7356954E-05   6.3250609E-04
      4     -111.1449874918  -5.7283985E-05   1.2031057E-04
      5     -111.1449896258  -2.1339503E-06   6.2641279E-05
      6     -111.1449904189  -7.9317024E-07   2.3437482E-05
      7     -111.1449904330  -1.4042030E-08   1.3201162E-05
------------------------------------------------------------

 total:                                   0.302 sec
 * total energy  :  -111.1449904 Eh     change       -0.7654525E-03 Eh
   gradient norm :     0.0182516 Eh/α   predicted    -0.1264545E-02 (  65.20%)
   displ. norm   :     0.6962895 α      lambda       -0.1529281E-02
   maximum displ.:     0.4836521 α      in ANC's #1, #2, #9, ...

........................................................................
.............................. CYCLE   39 ..............................
........................................................................
------------------------------------------------------------
  cycle        total energy    energy error   density error
------------------------------------------------------------
      1     -111.1461583943  -1.1282382E+02   1.5281506E-03
      2     -111.1461688377  -1.0443462E-05   9.2168997E-04
      3     -111.1461614187   7.4189812E-06   2.4093807E-04
      4     -111.1461697961  -8.3773783E-06   7.5546745E-05
      5     -111.1461706410  -8.4491717E-07   2.8375472E-05
      6     -111.1461707436  -1.0255712E-07   1.5222191E-05
------------------------------------------------------------

 total:                                   0.234 sec
 * total energy  :  -111.1461707 Eh     change       -0.1180311E-02 Eh
   gradient norm :     0.0100978 Eh/α   predicted    -0.1135357E-02 (  -3.81%)
   displ. norm   :     0.7839077 α      lambda       -0.1173721E-02
   maximum displ.:     0.5564024 α      in ANC's #1, #2, #7, ...

........................................................................
.............................. CYCLE   40 ..............................
........................................................................
------------------------------------------------------------
  cycle        total energy    energy error   density error
------------------------------------------------------------
      1     -111.1471326566  -1.1282012E+02   1.7215237E-03
      2     -111.1471456040  -1.2947415E-05   1.0409460E-03
      3     -111.1471160315   2.9572467E-05   4.6452392E-04
      4     -111.1471522970  -3.6265516E-05   5.6744672E-05
      5     -111.1471526649  -3.6786933E-07   2.7604003E-05
      6     -111.1471527712  -1.0632908E-07   1.2488709E-05
------------------------------------------------------------

 total:                                   0.233 sec
 * total energy  :  -111.1471528 Eh     change       -0.9820277E-03 Eh
   gradient norm :     0.0092152 Eh/α   predicted    -0.9474950E-03 (  -3.52%)
   displ. norm   :     0.8105144 α      lambda       -0.1124256E-02
   maximum displ.:     0.5597408 α      in ANC's #1, #7, #9, ...

........................................................................
.............................. CYCLE   41 ..............................
........................................................................
------------------------------------------------------------
  cycle        total energy    energy error   density error
------------------------------------------------------------
      1     -111.1481663969  -1.1281997E+02   1.9047750E-03
      2     -111.1481696381  -3.2411206E-06   1.1322383E-03
      3     -111.1481572050   1.2433080E-05   2.5110714E-04
      4     -111.1481709628  -1.3757784E-05   4.5477704E-05
      5     -111.1481712989  -3.3617627E-07   2.2003392E-05
      6     -111.1481713306  -3.1705852E-08   1.3055773E-05
------------------------------------------------------------

 total:                                   0.304 sec
 * total energy  :  -111.1481713 Eh     change       -0.1018559E-02 Eh
   gradient norm :     0.0100557 Eh/α   predicted    -0.9314175E-03 (  -8.56%)
   displ. norm   :     0.7679046 α      lambda       -0.1381706E-02
   maximum displ.:     0.4685934 α      in ANC's #1, #7, #3, ...

........................................................................
.............................. CYCLE   42 ..............................
........................................................................
------------------------------------------------------------
  cycle        total energy    energy error   density error
------------------------------------------------------------
      1     -111.1490844893  -1.1282783E+02   2.2630295E-03
      2     -111.1491007183  -1.6229071E-05   1.3454538E-03
      3     -111.1490713049   2.9413441E-05   4.1817857E-04
      4     -111.1491046678  -3.3362868E-05   8.2067219E-05
      5     -111.1491057717  -1.1039779E-06   3.1441412E-05
      6     -111.1491058375  -6.5751763E-08   1.9635019E-05
------------------------------------------------------------

 total:                                   0.290 sec
 * total energy  :  -111.1491058 Eh     change       -0.9345069E-03 Eh
   gradient norm :     0.0122185 Eh/α   predicted    -0.1098234E-02 (  17.52%)
   displ. norm   :     0.8106304 α      lambda       -0.1321481E-02
   maximum displ.:     0.5759154 α      in ANC's #1, #7, #2, ...
 * RMSD in coord.:     1.5771301 α      energy gain  -0.2566803E-01 Eh

generating ANC from exact Hessian ...
Using Lindh-Hessian (1995)
 Shifting diagonal of input Hessian by    9.8697414472505227E-003
 Lowest  eigenvalues of input Hessian
    0.000000    0.000000    0.000000    0.000000    0.000000    0.000000
    0.010000    0.010093    0.010181    0.010331    0.010422    0.010500
    0.010852    0.011124    0.011308    0.011623    0.012563    0.012663
 Highest eigenvalues
    2.015045    2.054817    2.079764    2.095289    2.215264    2.239060


........................................................................
.............................. CYCLE   43 ..............................
........................................................................
------------------------------------------------------------
  cycle        total energy    energy error   density error
------------------------------------------------------------
      1     -111.1498985257  -1.1282086E+02   1.8454212E-03
      2     -111.1499178048  -1.9279106E-05   1.1001366E-03
      3     -111.1498909667   2.6838147E-05   5.3240816E-04
      4     -111.1499274934  -3.6526715E-05   7.1616937E-05
      5     -111.1499280383  -5.4487970E-07   3.6109076E-05
      6     -111.1499281398  -1.0151241E-07   2.0854004E-05
      7     -111.1499281503  -1.0573473E-08   8.9574739E-06
------------------------------------------------------------

 total:                                   0.274 sec
 * total energy  :  -111.1499282 Eh     change       -0.8223129E-03 Eh
   gradient norm :     0.0161224 Eh/α   predicted     0.0000000E+00 (-100.00%)
   displ. norm   :     0.1288165 α      lambda       -0.5582730E-03
   maximum displ.:     0.0922901 α      in ANC's #1, #2, #17, ...

........................................................................
.............................. CYCLE   44 ..............................
........................................................................
------------------------------------------------------------
  cycle        total energy    energy error   density error
------------------------------------------------------------
      1     -111.1503348914  -1.1282685E+02   6.4464400E-04
      2     -111.1503391041  -4.2126337E-06   3.8527607E-04
      3     -111.1503356989   3.4052138E-06   2.1987959E-04
      4     -111.1503412061  -5.5071908E-06   4.5315740E-05
      5     -111.1503415829  -3.7684181E-07   1.9468493E-05
------------------------------------------------------------

 total:                                   0.198 sec
 * total energy  :  -111.1503416 Eh     change       -0.4134325E-03 Eh
   gradient norm :     0.0063687 Eh/α   predicted    -0.2837734E-03 ( -31.36%)
   displ. norm   :     0.2290182 α      lambda       -0.4237835E-03
   maximum displ.:     0.1707695 α      in ANC's #1, #2, #17, ...

........................................................................
.............................. CYCLE   45 ..............................
........................................................................
------------------------------------------------------------
  cycle        total energy    energy error   density error
------------------------------------------------------------
      1     -111.1506478231  -1.1283099E+02   7.4372323E-04
      2     -111.1506521954  -4.3723229E-06   4.4418026E-04
      3     -111.1506474901   4.7053338E-06   2.6082014E-04
      4     -111.1506551423  -7.6522424E-06   4.6469736E-05
      5     -111.1506555691  -4.2679686E-07   2.1115499E-05
      6     -111.1506556368  -6.7709948E-08   1.0469396E-05
------------------------------------------------------------

 total:                                   0.248 sec
 * total energy  :  -111.1506556 Eh     change       -0.3140539E-03 Eh
   gradient norm :     0.0044733 Eh/α   predicted    -0.2230647E-03 ( -28.97%)
   displ. norm   :     0.2658889 α      lambda       -0.3103630E-03
   maximum displ.:     0.1971032 α      in ANC's #1, #2, #17, ...

........................................................................
.............................. CYCLE   46 ..............................
........................................................................
------------------------------------------------------------
  cycle        total energy    energy error   density error
------------------------------------------------------------
      1     -111.1509221904  -1.1283175E+02   7.0593720E-04
      2     -111.1509235906  -1.4002748E-06   4.1901747E-04
      3     -111.1509195926   3.9980782E-06   1.7973573E-04
      4     -111.1509244692  -4.8766342E-06   2.2702489E-05
      5     -111.1509245265  -5.7284780E-08   1.3554613E-05
------------------------------------------------------------

 total:                                   0.187 sec
 * total energy  :  -111.1509245 Eh     change       -0.2688897E-03 Eh
   gradient norm :     0.0079387 Eh/α   predicted    -0.1661529E-03 ( -38.21%)
   displ. norm   :     0.3268589 α      lambda       -0.3647694E-03
   maximum displ.:     0.2362469 α      in ANC's #1, #2, #20, ...

........................................................................
.............................. CYCLE   47 ..............................
........................................................................
------------------------------------------------------------
  cycle        total energy    energy error   density error
------------------------------------------------------------
      1     -111.1512495671  -1.1283041E+02   8.0733669E-04
      2     -111.1512503280  -7.6086124E-07   4.7988517E-04
      3     -111.1512481966   2.1313743E-06   1.2015811E-04
      4     -111.1512506117  -2.4151331E-06   2.2879657E-05
      5     -111.1512506843  -7.2581017E-08   1.2728869E-05
------------------------------------------------------------

 total:                                   0.211 sec
 * total energy  :  -111.1512507 Eh     change       -0.3261578E-03 Eh
   gradient norm :     0.0081064 Eh/α   predicted    -0.2018712E-03 ( -38.11%)
   displ. norm   :     0.3849062 α      lambda       -0.4134978E-03
   maximum displ.:     0.2804286 α      in ANC's #1, #2, #6, ...

........................................................................
.............................. CYCLE   48 ..............................
........................................................................
------------------------------------------------------------
  cycle        total energy    energy error   density error
------------------------------------------------------------
      1     -111.1516122279  -1.1282842E+02   9.2829189E-04
      2     -111.1516129411  -7.1323296E-07   5.5439548E-04
      3     -111.1516022290   1.0712177E-05   2.0657917E-04
      4     -111.1516138784  -1.1649436E-05   2.6890092E-05
      5     -111.1516140004  -1.2199277E-07   1.2188333E-05
------------------------------------------------------------

 total:                                   0.235 sec
 * total energy  :  -111.1516140 Eh     change       -0.3633161E-03 Eh
   gradient norm :     0.0063687 Eh/α   predicted    -0.2373805E-03 ( -34.66%)
   displ. norm   :     0.3970182 α      lambda       -0.3974042E-03
   maximum displ.:     0.2958583 α      in ANC's #1, #2, #6, ...

........................................................................
.............................. CYCLE   49 ..............................
........................................................................
------------------------------------------------------------
  cycle        total energy    energy error   density error
------------------------------------------------------------
      1     -111.1519645361  -1.1282738E+02   9.6126827E-04
      2     -111.1519656297  -1.0935934E-06   5.7424331E-04
      3     -111.1519611887   4.4409501E-06   1.6896318E-04
      4     -111.1519663316  -5.1428810E-06   1.9020827E-05
      5     -111.1519663559  -2.4273660E-08   1.1095595E-05
------------------------------------------------------------

 total:                                   0.211 sec
 * total energy  :  -111.1519664 Eh     change       -0.3523555E-03 Eh
   gradient norm :     0.0048502 Eh/α   predicted    -0.2300227E-03 ( -34.72%)
   displ. norm   :     0.4001665 α      lambda       -0.3797306E-03
   maximum displ.:     0.3021146 α      in ANC's #1, #2, #6, ...

........................................................................
.............................. CYCLE   50 ..............................
........................................................................
------------------------------------------------------------
  cycle        total energy    energy error   density error
------------------------------------------------------------
      1     -111.1523103501  -1.1282764E+02   9.7977996E-04
      2     -111.1523112456  -8.9554004E-07   5.8334140E-04
      3     -111.1523084820   2.7636282E-06   1.4193139E-04
      4     -111.1523117222  -3.2402333E-06   1.8979916E-05
      5     -111.1523117383  -1.6078886E-08   1.2144362E-05
------------------------------------------------------------

 total:                                   0.184 sec
 * total energy  :  -111.1523117 Eh     change       -0.3453824E-03 Eh
   gradient norm :     0.0045332 Eh/α   predicted    -0.2202747E-03 ( -36.22%)
   displ. norm   :     0.4265144 α      lambda       -0.3890127E-03
   maximum displ.:     0.3220637 α      in ANC's #1, #2, #6, ...

........................................................................
.............................. CYCLE   51 ..............................
........................................................................
------------------------------------------------------------
  cycle        total energy    energy error   density error
------------------------------------------------------------
      1     -111.1526718144  -1.1282867E+02   1.0505658E-03
      2     -111.1526724433  -6.2893507E-07   6.2615121E-04
      3     -111.1526686240   3.8193584E-06   1.3691176E-04
      4     -111.1526728081  -4.1841617E-06   2.5661544E-05
      5     -111.1526729118  -1.0372028E-07   1.3432150E-05
------------------------------------------------------------

 total:                                   0.190 sec
 * total energy  :  -111.1526729 Eh     change       -0.3611735E-03 Eh
   gradient norm :     0.0046088 Eh/α   predicted    -0.2298901E-03 ( -36.35%)
   displ. norm   :     0.4663832 α      lambda       -0.4108218E-03
   maximum displ.:     0.3509915 α      in ANC's #1, #2, #6, ...

........................................................................
.............................. CYCLE   52 ..............................
........................................................................
------------------------------------------------------------
  cycle        total energy    energy error   density error
------------------------------------------------------------
      1     -111.1530572070  -1.1282991E+02   1.1469578E-03
      2     -111.1530577272  -5.2021579E-07   6.8177196E-04
      3     -111.1530549753   2.7519020E-06   1.1318922E-04
      4     -111.1530580136  -3.0383596E-06   2.3489850E-05
      5     -111.1530580829  -6.9303610E-08   1.2894200E-05
------------------------------------------------------------

 total:                                   0.206 sec
 * total energy  :  -111.1530581 Eh     change       -0.3851711E-03 Eh
   gradient norm :     0.0042341 Eh/α   predicted    -0.2500912E-03 ( -35.07%)
   displ. norm   :     0.5046577 α      lambda       -0.4244511E-03
   maximum displ.:     0.3787553 α      in ANC's #1, #2, #4, ...

........................................................................
.............................. CYCLE   53 ..............................
........................................................................
------------------------------------------------------------
  cycle        total energy    energy error   density error
------------------------------------------------------------
      1     -111.1534565168  -1.1283095E+02   1.2275390E-03
      2     -111.1534570044  -4.8769240E-07   7.3222387E-04
      3     -111.1534488295   8.1749238E-06   1.7456808E-04
      4     -111.1534576946  -8.8651160E-06   2.2756346E-05
      5     -111.1534577465  -5.1879397E-08   1.2825364E-05
------------------------------------------------------------

 total:                                   0.219 sec
 * total energy  :  -111.1534577 Eh     change       -0.3996636E-03 Eh
   gradient norm :     0.0035032 Eh/α   predicted    -0.2662753E-03 ( -33.38%)
   displ. norm   :     0.5283097 α      lambda       -0.4218483E-03
   maximum displ.:     0.3962636 α      in ANC's #1, #2, #4, ...

........................................................................
.............................. CYCLE   54 ..............................
........................................................................
------------------------------------------------------------
  cycle        total energy    energy error   density error
------------------------------------------------------------
      1     -111.1538546531  -1.1283178E+02   1.2732102E-03
      2     -111.1538553014  -6.4826976E-07   7.5608144E-04
      3     -111.1538525124   2.7890255E-06   1.2156244E-04
      4     -111.1538557077  -3.1953373E-06   1.9485678E-05
      5     -111.1538557293  -2.1541027E-08   1.1318194E-05
------------------------------------------------------------

 total:                                   0.189 sec
 * total energy  :  -111.1538557 Eh     change       -0.3979828E-03 Eh
   gradient norm :     0.0030658 Eh/α   predicted    -0.2697958E-03 ( -32.21%)
   displ. norm   :     0.5396326 α      lambda       -0.4075801E-03
   maximum displ.:     0.4049054 α      in ANC's #1, #2, #4, ...

........................................................................
.............................. CYCLE   55 ..............................
........................................................................
------------------------------------------------------------
  cycle        total energy    energy error   density error
------------------------------------------------------------
      1     -111.1542398997  -1.1283217E+02   1.2905465E-03
      2     -111.1542404727  -5.7294271E-07   7.6445600E-04
      3     -111.1542388776   1.5950989E-06   9.6748826E-05
      4     -111.1542407186  -1.8409762E-06   2.1239749E-05
      5     -111.1542407630  -4.4408978E-08   1.2439281E-05
------------------------------------------------------------

 total:                                   0.190 sec
 * total energy  :  -111.1542408 Eh     change       -0.3850337E-03 Eh
   gradient norm :     0.0026566 Eh/α   predicted    -0.2631471E-03 ( -31.66%)
   displ. norm   :     0.5415501 α      lambda       -0.3896202E-03
   maximum displ.:     0.4078169 α      in ANC's #1, #2, #4, ...

........................................................................
.............................. CYCLE   56 ..............................
........................................................................
------------------------------------------------------------
  cycle        total energy    energy error   density error
------------------------------------------------------------
      1     -111.1546060336  -1.1283277E+02   1.2877030E-03
      2     -111.1546065147  -4.8115108E-07   7.6038444E-04
      3     -111.1546041659   2.3488438E-06   1.0602610E-04
      4     -111.1546068109  -2.6449782E-06   2.0771654E-05
      5     -111.1546068565  -4.5642565E-08   1.2182610E-05
------------------------------------------------------------

 total:                                   0.193 sec
 * total energy  :  -111.1546069 Eh     change       -0.3660935E-03 Eh
   gradient norm :     0.0028559 Eh/α   predicted    -0.2519638E-03 ( -31.18%)
   displ. norm   :     0.5405042 α      lambda       -0.3670237E-03
   maximum displ.:     0.4090475 α      in ANC's #1, #2, #4, ...

........................................................................
.............................. CYCLE   57 ..............................
........................................................................
------------------------------------------------------------
  cycle        total energy    energy error   density error
------------------------------------------------------------
      1     -111.1549468065  -1.1283250E+02   1.2702736E-03
      2     -111.1549473809  -5.7439834E-07   7.5056614E-04
      3     -111.1549422352   5.1456461E-06   1.4275768E-04
      4     -111.1549478639  -5.6286080E-06   2.2465667E-05
      5     -111.1549479305  -6.6687562E-08   1.2010001E-05
------------------------------------------------------------

 total:                                   0.219 sec
 * total energy  :  -111.1549479 Eh     change       -0.3410740E-03 Eh
   gradient norm :     0.0021637 Eh/α   predicted    -0.2371273E-03 ( -30.48%)
   displ. norm   :     0.5288487 α      lambda       -0.3440313E-03
   maximum displ.:     0.4044355 α      in ANC's #1, #2, #4, ...

........................................................................
.............................. CYCLE   58 ..............................
........................................................................
------------------------------------------------------------
  cycle        total energy    energy error   density error
------------------------------------------------------------
      1     -111.1552635348  -1.1283331E+02   1.2306487E-03
      2     -111.1552640577  -5.2294487E-07   7.2490043E-04
      3     -111.1552620008   2.0569436E-06   9.8442395E-05
      4     -111.1552643709  -2.3701199E-06   1.8596856E-05
      5     -111.1552643958  -2.4913362E-08   1.1305267E-05
------------------------------------------------------------

 total:                                   0.203 sec
 * total energy  :  -111.1552644 Eh     change       -0.3164653E-03 Eh
   gradient norm :     0.0021591 Eh/α   predicted    -0.2201270E-03 ( -30.44%)
   displ. norm   :     0.5211146 α      lambda       -0.3106433E-03
   maximum displ.:     0.4030031 α      in ANC's #1, #2, #4, ...

........................................................................
.............................. CYCLE   59 ..............................
........................................................................
------------------------------------------------------------
  cycle        total energy    energy error   density error
------------------------------------------------------------
      1     -111.1555537315  -1.1283320E+02   1.1795569E-03
      2     -111.1555542527  -5.2121278E-07   6.9669310E-04
      3     -111.1555492646   4.9880708E-06   1.4002172E-04
      4     -111.1555547262  -5.4615867E-06   2.1179603E-05
      5     -111.1555547852  -5.8935569E-08   1.1482791E-05
------------------------------------------------------------

 total:                                   0.253 sec
 * total energy  :  -111.1555548 Eh     change       -0.2903893E-03 Eh
   gradient norm :     0.0017098 Eh/α   predicted    -0.1975050E-03 ( -31.99%)
   displ. norm   :     0.7231006 α      lambda       -0.2713853E-03
   maximum displ.:     0.5687552 α      in ANC's #1, #2, #4, ...

........................................................................
.............................. CYCLE   60 ..............................
........................................................................
------------------------------------------------------------
  cycle        total energy    energy error   density error
------------------------------------------------------------
      1     -111.1559235990  -1.1283362E+02   1.5870039E-03
      2     -111.1559246092  -1.0101437E-06   9.3434828E-04
      3     -111.1559202186   4.3905982E-06   1.4724022E-04
      4     -111.1559252713  -5.0527122E-06   2.3342521E-05
      5     -111.1559253016  -3.0278414E-08   1.4819214E-05
------------------------------------------------------------

 total:                                   0.352 sec
 * total energy  :  -111.1559253 Eh     change       -0.3705164E-03 Eh
   gradient norm :     0.0021481 Eh/α   predicted    -0.1672274E-03 ( -54.87%)
   displ. norm   :     0.4296581 α      lambda       -0.2221985E-03
   maximum displ.:     0.3432502 α      in ANC's #1, #2, #4, ...

........................................................................
[...]
   115   6 C      119   1 H                                       1.0880276
   114   6 C      120   1 H                                       1.0881932
   114   6 C      121   1 H                                       1.0871885
   114   6 C      122   1 H                                       1.0857004
   116   6 C      123   1 H                                       1.0877973
Note: The following floating-point exceptions are signalling: IEEE_UNDERFLOW_FLAG
normal termination of xtb
   116   6 C      124   1 H                                       1.0877781
   116   6 C      125   1 H                                       1.0882058
    93   6 C      126   1 H                                       1.0793264
    95   6 C      127   1 H                                       1.0788332
    99   6 C      128   1 H                                       1.0775646
    97   6 C      129   1 H                                       1.0778109
   107   6 C      130   1 H                                       1.0881130
   107   6 C      131   1 H                                       1.0869873
   107   6 C      132   1 H                                       1.0866406
   108   6 C      133   1 H                                       1.0869686
   108   6 C      134   1 H                                       1.0877022
   108   6 C      135   1 H                                       1.0881301
   104   6 C      136   1 H                                       1.0894374
   104   6 C      137   1 H                                       1.0950264
   104   6 C      138   1 H                                       1.0956944
   105   6 C      139   1 H                                       1.0896293
   105   6 C      140   1 H                                       1.0952985
   105   6 C      141   1 H                                       1.0950607
    79   6 C      142   1 H                                       1.0775951
    83   6 C      143   1 H                                       1.0775077
   112   6 C      144   1 H                                       1.0877402
   112   6 C      145   1 H                                       1.0866856
   112   6 C      146   1 H                                       1.0871393
   111   6 C      147   1 H                                       1.0868102
   111   6 C      148   1 H                                       1.0881311
   111   6 C      149   1 H                                       1.0865559
   110   6 C      150   1 H                                       1.0877697
   110   6 C      151   1 H                                       1.0878352
   110   6 C      152   1 H                                       1.0872377
   106   6 C      153   6 C                                       1.5355074
   153   6 C      154   1 H                                       1.0877434
   153   6 C      155   1 H                                       1.0866728
   153   6 C      156   1 H                                       1.0878037

 * 3 distinct bonds (by element types)

   Z      Z             #   av. dist./Å        max./Å        min./Å
   1 H    6 C          78     1.0869115     1.0957760     1.0761852
   6 C    6 C          59     1.4414722     1.5401047     1.3813237
   6 C    8 O          12     1.3298903     1.4050395     1.2239780


optimized geometry written to: xtbopt.mol


           -------------------------------------------------
          | TOTAL ENERGY             -222.343111103448 Eh   |
          | GRADIENT NORM               0.000109495029 Eh/α |
           -------------------------------------------------

------------------------------------------------------------------------
 * finished run on 2025/03/17 at 11:28:10.318     
------------------------------------------------------------------------
 total:
 * wall-time:     0 d,  0 h, 10 min, 32.779 sec
 *  cpu-time:     0 d,  0 h, 36 min, 26.724 sec
 * ratio c/w:     3.456 speedup
 SCF:
 * wall-time:     0 d,  0 h,  0 min, 17.619 sec
 *  cpu-time:     0 d,  0 h,  1 min,  1.786 sec
 * ratio c/w:     3.507 speedup
 ANC optimizer:
 * wall-time:     0 d,  0 h, 10 min, 15.132 sec
 *  cpu-time:     0 d,  0 h, 35 min, 24.927 sec
 * ratio c/w:     3.454 speedup

      -----------------------------------------------------------      
     |                   =====================                   |     
     |                           x T B                           |     
     |                   =====================                   |     
     |                         S. Grimme                         |     
     |          Mulliken Center for Theoretical Chemistry        |     
     |                    University of Bonn                     |     
      -----------------------------------------------------------      

   * xtb version 6.7.1 (edcfbbe) compiled by 'runner@Mac-1732539442253.local' on 2024-11-25

   xtb is free software: you can redistribute it and/or modify it under
   the terms of the GNU Lesser General Public License as published by
   the Free Software Foundation, either version 3 of the License, or
   (at your option) any later version.
   
   xtb is distributed in the hope that it will be useful,
   but WITHOUT ANY WARRANTY; without even the implied warranty of
   MERCHANTABILITY or FITNESS FOR A PARTICULAR PURPOSE.  See the
   GNU Lesser General Public License for more details.
   
   Cite this work as:
   * C. Bannwarth, E. Caldeweyher, S. Ehlert, A. Hansen, P. Pracht,
     J. Seibert, S. Spicher, S. Grimme, WIREs Comput. Mol. Sci., 2020, 11,
     e01493. DOI: 10.1002/wcms.1493
   
   for GFN2-xTB:
   * C. Bannwarth, S. Ehlert and S. Grimme., J. Chem. Theory Comput., 2019,
     15, 1652-1671. DOI: 10.1021/acs.jctc.8b01176
   for GFN1-xTB:
   * S. Grimme, C. Bannwarth, P. Shushkov, J. Chem. Theory Comput., 2017,
     13, 1989-2009. DOI: 10.1021/acs.jctc.7b00118
   for GFN0-xTB:
   * P. Pracht, E. Caldeweyher, S. Ehlert, S. Grimme, ChemRxiv, 2019, preprint.
     DOI: 10.26434/chemrxiv.8326202.v1
   for GFN-FF:
   * S. Spicher and S. Grimme, Angew. Chem. Int. Ed., 2020, 59, 15665-15673.
     DOI: 10.1002/anie.202004239
   
   for ALPB and GBSA implicit solvation:
   * S. Ehlert, M. Stahn, S. Spicher, S. Grimme, J. Chem. Theory Comput.,
     2021, 17, 4250-4261. DOI: 10.1021/acs.jctc.1c00471
   
   for ddCOSMO and CPCM-X implicit solvation:
   * M. Stahn, S. Ehlert, S. Grimme, J. Phys. Chem. A,
     2023, XX, XXXX-XXXX. DOI: 10.1021/acs.jpca.3c04382
   
   for DFT-D4:
   * E. Caldeweyher, C. Bannwarth and S. Grimme, J. Chem. Phys., 2017,
     147, 034112. DOI: 10.1063/1.4993215
   * E. Caldeweyher, S. Ehlert, A. Hansen, H. Neugebauer, S. Spicher,
     C. Bannwarth and S. Grimme, J. Chem. Phys., 2019, 150, 154122.
     DOI: 10.1063/1.5090222
   * E. Caldeweyher, J.-M. Mewes, S. Ehlert and S. Grimme, Phys. Chem. Chem. Phys.
     2020, 22, 8499-8512. DOI: 10.1039/D0CP00502A
   
   for sTDA-xTB:
   * S. Grimme and C. Bannwarth, J. Chem. Phys., 2016, 145, 054103.
     DOI: 10.1063/1.4959605
   
   in the mass-spec context:
   * V. Asgeirsson, C. Bauer and S. Grimme, Chem. Sci., 2017, 8, 4879.
     DOI: 10.1039/c7sc00601b
   * J. Koopman and S. Grimme, ACS Omega 2019, 4, 12, 15120-15133.
     DOI: 10.1021/acsomega.9b02011
   
   for metadynamics refer to:
   * S. Grimme, J. Chem. Theory Comput., 2019, 155, 2847-2862
     DOI: 10.1021/acs.jctc.9b00143
   
   for SPH calculations refer to:
   * S. Spicher and S. Grimme, J. Chem. Theory Comput., 2021, 17, 1701-1714
     DOI: 10.1021/acs.jctc.0c01306
   
   for ONIOM refer to:
   * C. Plett, A. Katbashev, S. Ehlert, S. Grimme, M. Bursch,
     Phys. Chem. Chem. Phys., 2023, 25, 17860-17868. DOI: 10.1039/D3CP02178E
   
   for DIPRO refer to:
   * J. Kohn, N. Gildemeister, S. Grimme, D. Fazzi, A. Hansen,
     J. Chem. Phys., 2023, just accepted.
   
   for PTB refer to:
   * S. Grimme, M. Mueller, A. Hansen, J. Chem. Phys., 2023, 158, 124111.
     DOI: 10.1063/5.0137838
   
   with help from (in alphabetical order)
   P. Atkinson, C. Bannwarth, F. Bohle, G. Brandenburg, E. Caldeweyher
   M. Checinski, S. Dohm, S. Ehlert, S. Ehrlich, I. Gerasimov, C. Hölzer
   A. Katbashev, J. Kohn, J. Koopman, C. Lavigne, S. Lehtola, F. März, M. Müller,
   F. Musil, H. Neugebauer, J. Pisarek, C. Plett, P. Pracht, F. Pultar,
   J. Seibert, P. Shushkov, S. Spicher, M. Stahn, M. Steiner, T. Strunk,
   J. Stückrath, T. Rose, and J. Unsleber
   
 * started run on 2025/03/17 at 11:28:10.358     
   ID    Z sym.   atoms
    1    6 C      1-21, 26-38, 75, 79-99, 104-116, 153
    2    8 O      22-25, 100-103
    3    1 H      39-74, 76-78, 117-152, 154-156

           -------------------------------------------------
          |                Calculation Setup                |
           -------------------------------------------------

          program call               : xtb opt_dimer.mol --dipro 0.3 --chrg 0 --uhf 2
          coordinate file            : opt_dimer.mol
          omp threads                :                     8


molecular fragmentation (1/2 indicates fragments):
111111111111111111111111111111111111111111111111111111111111111111111111
111111222222222222222222222222222222222222222222222222222222222222222222
222222222222
# atoms in fragment 1/2:    78    78
 fragment masses (1/2) :      523.68      523.68
CMA distance (Bohr)    :  10.341
constraining FC (au)   :  0.0500

           -------------------------------------------------
          |                 G F N 2 - x T B                 |
           -------------------------------------------------

        Reference                      10.1021/acs.jctc.8b01176
      * Hamiltonian:
        H0-scaling (s, p, d)           1.850000    2.230000    2.230000
        zeta-weighting                 0.500000
      * Dispersion:
        s8                             2.700000
        a1                             0.520000
        a2                             5.000000
        s9                             5.000000
      * Repulsion:
        kExp                           1.500000    1.000000
        rExp                           1.000000
      * Coulomb:
        alpha                          2.000000
        third order                    shell-resolved
        anisotropic                    true
        a3                             3.000000
        a5                             4.000000
        cn-shift                       1.200000
        cn-exp                         4.000000
        max-rad                        5.000000

q/qsh data taken from xtbrestart
CAMM data taken from xtbrestart
           -------------------------------------------------
          |                    D I P R O                    |
           -------------------------------------------------
Calculation for dimer 
--------------------- 
  
charge of dimer :   0.
unpaired e- of dimer :  2
repulsion energy          3.3548079515088E+00 Eh
dispersion energy         1.5703142647982E-02 Eh
number of electrons       4.0600000000000E+02 e
integral cutoff           1.7347787504999E+01 bohr

------------------------------------------------------------
  cycle        total energy    energy error   density error
------------------------------------------------------------
      1     -221.6182290864  -2.2498874E+02   1.4082745E-01
      2     -222.2340140330  -6.1578495E-01   6.6786080E-02
      3     -222.1898352051   4.4178828E-02   3.7297129E-02
      4     -222.2688196345  -7.8984429E-02   1.8923829E-02
      5     -222.3344770856  -6.5657451E-02   6.3696017E-03
      6     -222.3398602227  -5.3831371E-03   2.4612701E-03
      7     -222.3403890673  -5.2884469E-04   1.0336320E-03
      8     -222.3404439774  -5.4910065E-05   4.2533927E-04
      9     -222.3404466017  -2.6242419E-06   2.1864125E-04
     10     -222.3404527573  -6.1556258E-06   9.6671887E-05
     11     -222.3404541436  -1.3863315E-06   4.1562828E-05
     12     -222.3404542471  -1.0346466E-07   2.3023749E-05
     13     -222.3404542817  -3.4632848E-08   9.1012865E-06
------------------------------------------------------------

electronic energy        -2.2571096537586E+02 Eh
total energy             -2.2234045428171E+02 Eh

 total:                                   8.448 sec
 - repulsion                              0.000 sec (  0%)
 - dispersion                             0.016 sec (  0%)
 - coulomb                                0.006 sec (  0%)
 - hamiltonian                            0.014 sec (  0%)
 - scc                                    8.411 sec ( 99%)

Found 2 fragments!
Fragment 1:  1-78
Fragment 2:  79-156

[Info] Fragment spin read from .UHFfrag
Calculation for fragment 1
 ------------------------------
   
charge of fragment :   0.
unpaired e- of fragment :  1
------------------------------------------------------------
  cycle        total energy    energy error   density error
------------------------------------------------------------
      1     -110.7939768404  -1.1247338E+02   1.4038478E-01
      2     -111.1081588638  -3.1418202E-01   6.5712816E-02
      3     -111.0989708733   9.1879905E-03   3.5509086E-02
      4     -111.1277042357  -2.8733362E-02   1.7264891E-02
      5     -111.1510630857  -2.3358850E-02   6.0122169E-03
      6     -111.1533373977  -2.2743120E-03   2.3933466E-03
      7     -111.1535914344  -2.5403672E-04   9.8698729E-04
      8     -111.1536192156  -2.7781211E-05   3.9479486E-04
      9     -111.1536207668  -1.5512394E-06   1.7436205E-04
     10     -111.1536217675  -1.0006637E-06   6.2850216E-05
     11     -111.1536219240  -1.5653950E-07   3.3745706E-05
     12     -111.1536219553  -3.1248177E-08   1.5614167E-05
------------------------------------------------------------

 total:                                   1.443 sec
Calculation for fragment 2
 ------------------------------
   
charge of fragment :   0.
unpaired e- of fragment :  1
------------------------------------------------------------
  cycle        total energy    energy error   density error
------------------------------------------------------------
      1     -110.7926791111  -1.1246984E+02   1.4146887E-01
      2     -111.1061008838  -3.1342177E-01   6.6566481E-02
      3     -111.0946574679   1.1443416E-02   3.5828569E-02
      4     -111.1260121145  -3.1354647E-02   1.7497511E-02
      5     -111.1499064888  -2.3894374E-02   6.0408342E-03
      6     -111.1522687178  -2.3622290E-03   2.4559729E-03
      7     -111.1525396734  -2.7095561E-04   1.0043783E-03
      8     -111.1525693516  -2.9678198E-05   4.0213594E-04
      9     -111.1525709391  -1.5874750E-06   1.7870832E-04
     10     -111.1525720556  -1.1165181E-06   6.6323481E-05
     11     -111.1525722329  -1.7727672E-07   3.4756659E-05
     12     -111.1525722647  -3.1795196E-08   1.5949596E-05
------------------------------------------------------------

 total:                                   1.410 sec
   
   ::::::::::::::::::::::::::::::::::::::::::::::
   ::     D I P R O      C O U P L I N G S     ::
   ::::::::::::::::::::::::::::::::::::::::::::::
   
energy threshhold for near-degenerate orbitals near HOMO and LUMO considered for DIPRO:  0.300 eV
no. of orbitals within energy window of frag 1         4
no. of orbitals within energy window of frag 2         4
   
  Fragment 1 SOMO-2  Fragment 2 SOMO-2
--------------------------------------
E_mon(orb) frag1 frag2             -10.126   -10.479 eV
J(AB):                0.032 eV
S(AB):            -0.00144545 Eh
|J(AB,eff)|:            0.017 eV
   
  Fragment 1 SOMO-2  Fragment 2 SOMO-1
--------------------------------------
E_mon(orb) frag1 frag2             -10.126   -10.248 eV
J(AB):               -0.013 eV
S(AB):             0.00059388 Eh
|J(AB,eff)|:            0.007 eV
   
  Fragment 1 SOMO-2  Fragment 2 SOMO 
--------------------------------------
E_mon(orb) frag1 frag2             -10.126   -10.139 eV
J(AB):               -0.003 eV
S(AB):             0.00016153 Eh
|J(AB,eff)|:            0.002 eV
   
  Fragment 1 SOMO-2  Fragment 2 LUMO 
--------------------------------------
E_mon(orb) frag1 frag2             -10.126    -9.233 eV
J(AB):               -0.009 eV
S(AB):             0.00036153 Eh
|J(AB,eff)|:            0.006 eV
   
  Fragment 1 SOMO-1  Fragment 2 SOMO-2
--------------------------------------
E_mon(orb) frag1 frag2              -9.960   -10.479 eV
J(AB):                0.012 eV
S(AB):            -0.00050475 Eh
|J(AB,eff)|:            0.007 eV
   
  Fragment 1 SOMO-1  Fragment 2 SOMO-1
--------------------------------------
E_mon(orb) frag1 frag2              -9.960   -10.248 eV
J(AB):               -0.014 eV
S(AB):             0.00059045 Eh
|J(AB,eff)|:            0.008 eV
   
  Fragment 1 SOMO-1  Fragment 2 SOMO 
--------------------------------------
E_mon(orb) frag1 frag2              -9.960   -10.139 eV
J(AB):               -0.003 eV
S(AB):             0.00015519 Eh
|J(AB,eff)|:            0.002 eV
   
  Fragment 1 SOMO-1  Fragment 2 LUMO 
--------------------------------------
E_mon(orb) frag1 frag2              -9.960    -9.233 eV
J(AB):               -0.004 eV
S(AB):             0.00013064 Eh
|J(AB,eff)|:            0.003 eV
   
  Fragment 1 SOMO   Fragment 2 SOMO-2
--------------------------------------
E_mon(orb) frag1 frag2              -9.889   -10.479 eV
J(AB):               -0.007 eV
S(AB):             0.00032283 Eh
|J(AB,eff)|:            0.004 eV
   
  Fragment 1 SOMO   Fragment 2 SOMO-1
--------------------------------------
E_mon(orb) frag1 frag2              -9.889   -10.248 eV
J(AB):                0.001 eV
S(AB):            -0.00003363 Eh
|J(AB,eff)|:            0.001 eV
   
  Fragment 1 SOMO   Fragment 2 SOMO 
--------------------------------------
E_mon(orb) frag1 frag2              -9.889   -10.139 eV
J(AB):               -0.007 eV
S(AB):             0.00030701 Eh
|J(AB,eff)|:            0.004 eV
   
  Fragment 1 SOMO   Fragment 2 LUMO 
--------------------------------------
E_mon(orb) frag1 frag2              -9.889    -9.233 eV
J(AB):               -0.005 eV
S(AB):             0.00024857 Eh
|J(AB,eff)|:            0.003 eV
   
  Fragment 1 LUMO   Fragment 2 SOMO-2
--------------------------------------
E_mon(orb) frag1 frag2              -8.924   -10.479 eV
J(AB):               -0.007 eV
S(AB):             0.00030411 Eh
|J(AB,eff)|:            0.004 eV
   
  Fragment 1 LUMO   Fragment 2 SOMO-1
--------------------------------------
E_mon(orb) frag1 frag2              -8.924   -10.248 eV
J(AB):                0.006 eV
S(AB):            -0.00022746 Eh
|J(AB,eff)|:            0.004 eV
   
  Fragment 1 LUMO   Fragment 2 SOMO 
--------------------------------------
E_mon(orb) frag1 frag2              -8.924   -10.139 eV
J(AB):               -0.003 eV
S(AB):             0.00009239 Eh
|J(AB,eff)|:            0.002 eV
   
  Fragment 1 LUMO   Fragment 2 LUMO 
--------------------------------------
E_mon(orb) frag1 frag2              -8.924    -9.233 eV
J(AB):                0.028 eV
S(AB):            -0.00113863 Eh
|J(AB,eff)|:            0.018 eV
   
..............................................................................
:  total |J(AB,eff)| for hole transport (occ. MOs) :               0.022 eV  :
:  total |J(AB,eff)| for charge transport (unocc. MOs) :           0.018 eV  :
:  total |J(AB,eff)| for charge transfer (CT) :                    0.009 eV  :
..............................................................................
  
 Please remember, DIPRO is not available for restart!
   
normal termination of dipro
----------------------------------------------------------
 * finished run on 2025/03/17 at 11:28:21.697     
----------------------------------------------------------
 dipro:
 * wall-time:     0 d,  0 h,  0 min, 11.330 sec
 *  cpu-time:     0 d,  0 h,  0 min, 38.647 sec
 * ratio c/w:     3.411 speedup
Reorganization energy (electron): 0.13573500328591298 eV
Reorganization energy (hole): 0.13731823941052063 eV
Electron Transfer integral J: 0.018 eV
Hole Transfer integral J: 0.022 eV
