156
 energy: -222.320342224731 gnorm: 0.085915606309 xtb: 6.7.1 (edcfbbe)
C           -0.49130000000000        1.68570000000000        1.30250000000000
C           -0.68190000000000        0.36170000000000        0.88680000000000
C            0.45210000000000       -0.52130000000000        0.90190000000000
C            1.73590000000000        0.07280000000000        0.98170000000000
C            1.86700000000000        1.39440000000000        1.36410000000000
C            0.76040000000000        2.19880000000000        1.59850000000000
C            0.34730000000000       -1.95210000000000        0.72710000000000
C            1.45170000000000       -2.61950000000000        0.09360000000000
C            2.71050000000000       -1.98930000000000       -0.02030000000000
C            2.92590000000000       -0.68230000000000        0.59600000000000
C           -0.75150000000000       -2.75390000000000        1.20420000000000
C           -0.89690000000000       -4.08030000000000        0.73060000000000
C            0.08890000000000       -4.67680000000000       -0.17200000000000
C            1.32420000000000       -3.93530000000000       -0.39790000000000
C            2.38920000000000       -4.54010000000000       -1.04320000000000
C            3.61420000000000       -3.90620000000000       -1.19410000000000
C            3.75780000000000       -2.63650000000000       -0.65270000000000
C           -1.64790000000000       -2.31940000000000        2.23750000000000
C           -2.68800000000000       -3.16870000000000        2.63250000000000
C           -2.85130000000000       -4.44010000000000        2.11900000000000
C           -1.93570000000000       -4.87820000000000        1.17530000000000
O           -1.43570000000000       -1.11500000000000        2.89000000000000
O           -1.88320000000000       -0.12100000000000        0.39640000000000
O            4.05180000000000       -0.23720000000000        0.76280000000000
O           -0.08700000000000       -5.77970000000000       -0.66860000000000
C           -2.58930000000000       -0.55190000000000        3.47490000000000
C           -2.89880000000000        0.84320000000000        0.25000000000000
C           -3.91530000000000       -5.40690000000000        2.65610000000000
C           -4.70460000000000       -6.01570000000000        1.48290000000000
C           -4.91100000000000       -4.69400000000000        3.59130000000000
C            0.95140000000000        3.65040000000000        2.05470000000000
C           -0.31860000000000        4.18260000000000        2.74420000000000
C            2.11720000000000        3.73910000000000        3.06180000000000
C            1.26530000000000        4.52270000000000        0.82920000000000
C            4.75930000000000       -4.62460000000000       -1.92000000000000
C            6.01070000000000       -3.73270000000000       -2.03050000000000
C            4.30300000000000       -4.99810000000000       -3.34240000000000
C            5.13220000000000       -5.89830000000000       -1.14160000000000
H            4.00780000000000       -4.10810000000000       -3.89700000000000
H            3.45110000000000       -5.67590000000000       -3.32060000000000
H            5.10470000000000       -5.48880000000000       -3.89320000000000
H            6.80670000000000       -4.24820000000000       -2.56680000000000
H            6.39450000000000       -3.47020000000000       -1.04530000000000
H            5.78930000000000       -2.81350000000000       -2.57180000000000
H            5.95080000000000       -6.42700000000000       -1.62880000000000
H            4.28680000000000       -6.58130000000000       -1.07390000000000
H            5.44540000000000       -5.65160000000000       -0.12770000000000
H            2.24870000000000       -5.53880000000000       -1.41430000000000
H            4.69690000000000       -2.11870000000000       -0.70990000000000
H           -1.98970000000000       -5.88300000000000        0.79750000000000
H           -3.33600000000000       -2.84140000000000        3.42040000000000
H           -5.48590000000000       -6.68320000000000        1.84460000000000
H           -4.05770000000000       -6.59150000000000        0.82310000000000
H           -5.17650000000000       -5.23290000000000        0.89020000000000
H           -4.40950000000000       -4.30440000000000        4.47570000000000
H           -5.68420000000000       -5.38270000000000        3.93020000000000
H           -5.40270000000000       -3.86670000000000        3.08080000000000
H           -2.38580000000000        0.49580000000000        3.69680000000000
H           -2.83320000000000       -1.06730000000000        4.40340000000000
H           -3.42610000000000       -0.61160000000000        2.77840000000000
H           -3.76980000000000        0.36180000000000       -0.19590000000000
H           -2.55970000000000        1.64210000000000       -0.41060000000000
H           -3.17960000000000        1.24630000000000        1.22320000000000
H           -1.34540000000000        2.32880000000000        1.37580000000000
H            2.86120000000000        1.79150000000000        1.45530000000000
H            1.41250000000000        5.56290000000000        1.11750000000000
H            0.45010000000000        4.48240000000000        0.10760000000000
H            2.17030000000000        4.17840000000000        0.33000000000000
H            1.98910000000000        3.01470000000000        3.86420000000000
H            2.17680000000000        4.73220000000000        3.50540000000000
H            3.07490000000000        3.53940000000000        2.58470000000000
H           -0.14390000000000        5.17620000000000        3.15470000000000
H           -0.62020000000000        3.52450000000000        3.55810000000000
H           -1.14910000000000        4.26550000000000        2.04500000000000
C           -3.20910000000000       -6.52330000000000        3.44580000000000
H           -3.93020000000000       -7.21200000000000        3.88440000000000
H           -2.60810000000000       -6.09970000000000        4.24950000000000
H           -2.54230000000000       -7.09660000000000        2.80340000000000
C           -2.39490000000000        2.70150000000000        6.42070000000000
C           -2.42240000000000        1.31430000000000        6.23490000000000
C           -1.16780000000000        0.61750000000000        6.14800000000000
C           -0.00590000000000        1.38980000000000        5.90850000000000
C           -0.04400000000000        2.76440000000000        6.07230000000000
C           -1.22240000000000        3.43400000000000        6.37880000000000
C           -1.06820000000000       -0.81980000000000        6.18780000000000
C            0.04410000000000       -1.43860000000000        5.52580000000000
C            1.17400000000000       -0.68130000000000        5.14680000000000
C            1.22440000000000        0.75190000000000        5.43630000000000
C           -2.03480000000000       -1.66890000000000        6.83730000000000
C           -2.13600000000000       -3.02830000000000        6.45620000000000
C           -1.12610000000000       -3.63650000000000        5.59020000000000
C            0.03320000000000       -2.81970000000000        5.23470000000000
C            1.12540000000000       -3.40140000000000        4.61720000000000
C            2.25310000000000       -2.66980000000000        4.27120000000000
C            2.24910000000000       -1.30600000000000        4.53730000000000
C           -2.85300000000000       -1.22120000000000        7.93000000000000
C           -3.90190000000000       -2.04660000000000        8.35280000000000
C           -4.09030000000000       -3.32400000000000        7.85730000000000
C           -3.16350000000000       -3.81440000000000        6.94700000000000
O           -2.52210000000000       -0.03560000000000        8.56230000000000
O           -3.59130000000000        0.59620000000000        6.04640000000000
O            2.24320000000000        1.40160000000000        5.25690000000000
O           -1.22960000000000       -4.79470000000000        5.21530000000000
C           -3.36320000000000        0.33500000000000        9.62800000000000
C           -4.77690000000000        1.35130000000000        6.11350000000000
C           -5.27430000000000       -4.16470000000000        8.35570000000000
C           -5.31630000000000       -5.54820000000000        7.67870000000000
C           -6.58670000000000       -3.42700000000000        8.03320000000000
C           -1.26050000000000        4.94300000000000        6.66080000000000
C           -1.71450000000000        5.16400000000000        8.11480000000000
C            0.12530000000000        5.59120000000000        6.47870000000000
C           -2.25130000000000        5.62990000000000        5.70230000000000
C            3.49270000000000       -3.39550000000000        3.72780000000000
C            4.52600000000000       -2.40400000000000        3.15810000000000
C            3.08530000000000       -4.37330000000000        2.61050000000000
C            4.14490000000000       -4.18220000000000        4.87760000000000
H            2.52680000000000       -3.85260000000000        1.83820000000000
H            2.45860000000000       -5.17970000000000        2.98710000000000
H            3.96080000000000       -4.82610000000000        2.14670000000000
H            5.36430000000000       -2.93340000000000        2.70710000000000
H            4.92860000000000       -1.76010000000000        3.93870000000000
H            4.08440000000000       -1.77170000000000        2.39100000000000
H            5.03150000000000       -4.71380000000000        4.53390000000000
H            3.45210000000000       -4.91410000000000        5.29110000000000
H            4.44180000000000       -3.51180000000000        5.68320000000000
H            1.08630000000000       -4.45910000000000        4.43210000000000
H            3.09400000000000       -0.69410000000000        4.28060000000000
H           -3.21180000000000       -4.83340000000000        6.61160000000000
H           -4.57420000000000       -1.68800000000000        9.10760000000000
H           -6.17310000000000       -6.12330000000000        8.02830000000000
H           -4.41980000000000       -6.12410000000000        7.90510000000000
H           -5.40260000000000       -5.45300000000000        6.59720000000000
H           -6.63020000000000       -2.45950000000000        8.53110000000000
H           -7.45030000000000       -4.00720000000000        8.35650000000000
H           -6.67700000000000       -3.25520000000000        6.96110000000000
H           -3.00800000000000        1.28300000000000       10.03330000000000
H           -3.32560000000000       -0.42120000000000       10.41300000000000
H           -4.38400000000000        0.46690000000000        9.26790000000000
H           -5.62250000000000        0.68310000000000        5.94760000000000
H           -4.77560000000000        2.11860000000000        5.33830000000000
H           -4.87440000000000        1.80270000000000        7.10130000000000
H           -3.31700000000000        3.22130000000000        6.59380000000000
H            0.87640000000000        3.30460000000000        5.95410000000000
H           -2.25950000000000        6.70800000000000        5.85930000000000
H           -3.26700000000000        5.26730000000000        5.85160000000000
H           -1.98050000000000        5.44390000000000        4.66460000000000
H            0.85350000000000        5.15870000000000        7.16380000000000
H            0.08090000000000        6.66120000000000        6.67860000000000
H            0.49010000000000        5.46120000000000        5.46120000000000
H           -1.74340000000000        6.22560000000000        8.35810000000000
H           -1.03100000000000        4.67600000000000        8.80870000000000
H           -2.70930000000000        4.75410000000000        8.28320000000000
C           -5.15170000000000       -4.36940000000000        9.87630000000000
H           -5.96940000000000       -4.98240000000000       10.25400000000000
H           -5.17540000000000       -3.41940000000000       10.40780000000000
H           -4.21460000000000       -4.86720000000000       10.12250000000000
156
 energy: -222.332695795622 gnorm: 0.035187081053 xtb: 6.7.1 (edcfbbe)
C           -0.48483921973981        1.68423804717140        1.29799098209473
C           -0.66904808257246        0.36412530086955        0.89802499670502
C            0.44480263254002       -0.52181107165673        0.88902658852624
C            1.72472425860294        0.07282903732065        0.97518119267873
C            1.86949577041804        1.39809656167702        1.35502723639009
C            0.76857680703127        2.20500242905762        1.59596072700320
C            0.34074209984018       -1.94677169661794        0.72821822583549
C            1.44026644923257       -2.61143577150586        0.09814067711894
C            2.69718988393529       -1.98165009525907       -0.03046556617682
C            2.92471724627398       -0.67337232607506        0.58971683115426
C           -0.74663956868076       -2.75040793152996        1.21156880326917
C           -0.89379861275135       -4.07819080731950        0.73973032484304
C            0.07923605975131       -4.67830742302951       -0.18353605722033
C            1.31997975962684       -3.92930110225677       -0.39303523782292
C            2.38744494984505       -4.53728098243873       -1.04177160288177
C            3.61670010514083       -3.90482790314233       -1.19819885417772
C            3.75236099952642       -2.63147934515078       -0.65814644215869
C           -1.64903677922745       -2.33267970277649        2.22958165677063
C           -2.67635486846605       -3.17656716985673        2.63934732288164
C           -2.84423448978382       -4.45529148271216        2.13122414698346
C           -1.92930815795656       -4.88765326801180        1.18287717713895
O           -1.44990561194699       -1.12687245132951        2.85543904915586
O           -1.86429479435527       -0.11049197316230        0.42077437534896
O            4.05307630181663       -0.21255160833285        0.73146989051334
O           -0.09752574084426       -5.78450541079054       -0.68189952096423
C           -2.58889363891236       -0.55518883720190        3.45908186381800
C           -2.89151438635072        0.83885653786219        0.25179554015022
C           -3.91897595868110       -5.40429545640349        2.65445586595996
C           -4.70365220892626       -6.00909417650769        1.48104457917800
C           -4.91048353407954       -4.69494515569709        3.58728232497460
C            0.95276946603107        3.64739942415150        2.05852787764301
C           -0.31432665443098        4.18116175343886        2.74057075098228
C            2.11703453273535        3.73993677862697        3.05692460049144
C            1.26494429885832        4.51445136622789        0.83012697927827
C            4.75826515873664       -4.61982564171072       -1.91863925801107
C            6.00755226679437       -3.73597084372240       -2.02991856107788
C            4.29922454547310       -4.99554582062853       -3.33603241813891
C            5.12498289582616       -5.89267903305646       -1.14074776330381
H            4.00817422154821       -4.10449168060556       -3.88948658253130
H            3.44951067420681       -5.67368687530062       -3.31320107972231
H            5.10663212156735       -5.48540096101680       -3.87757357424897
H            6.79210113335041       -4.26529669199593       -2.56761911327426
H            6.39400075089201       -3.47826486319345       -1.04589068337379
H            5.78803142714407       -2.81965610773869       -2.57449167081582
H            5.94313219498195       -6.41464582022341       -1.63420777052018
H            4.28031318942226       -6.57454710178833       -1.07428420752010
H            5.44084638911024       -5.64316086153719       -0.12932969566126
H            2.23656696747335       -5.53889109898316       -1.41253522032853
H            4.69293507156966       -2.10852290052810       -0.70038975056599
H           -1.98172563167660       -5.88859863082726        0.78637162834478
H           -3.33264134133780       -2.83688385347816        3.41894957939675
H           -5.48126053115879       -6.67434681420512        1.85253242349830
H           -4.05642540266829       -6.58574143579163        0.82549892814358
H           -5.17515047896474       -5.22499232603179        0.89109040098444
H           -4.40853456498563       -4.31429914637935        4.47476461388064
H           -5.67826252690972       -5.39470057358330        3.91354276021159
H           -5.40354350086762       -3.86897596154951        3.07646521410798
H           -2.35080807511881        0.48801645113865        3.66773047500335
H           -2.83600552166390       -1.04682461962870        4.40219698346954
H           -3.44549993958948       -0.60639682150809        2.78206589290860
H           -3.74182961185530        0.32438593693760       -0.19716666925402
H           -2.56995626408614        1.64325374825029       -0.41638912048610
H           -3.19968359854890        1.25861985000121        1.21363627199286
H           -1.34248596309172        2.32810134192196        1.37012202416462
H            2.87071779471027        1.78348676412645        1.44827306858902
H            1.41201453821573        5.55164532846834        1.12667004789702
H            0.44884833386253        4.47572972512654        0.10999042594804
H            2.17024161916583        4.16887123379854        0.33530144668510
H            1.99727855502105        3.01395745378643        3.85699481532442
H            2.16411773806943        4.73607745705721        3.49353226929745
H            3.07231045370490        3.54967567701418        2.57617676166727
H           -0.12378523616806        5.17284345863743        3.14661868546850
H           -0.61192522547821        3.52334549989619        3.55588406764191
H           -1.14230041752727        4.27407432403079        2.03984881770471
C           -3.21223205487852       -6.51936486314733        3.43868773265719
H           -3.94181705168106       -7.20090550456720        3.87304261904741
H           -2.60996446112803       -6.09365120151351        4.23781106609354
H           -2.55047492165450       -7.09195293275711        2.79335415991350
C           -2.39033269418184        2.70210447827297        6.42269145076112
C           -2.41070939738466        1.32298384365089        6.25275465615998
C           -1.17785947593812        0.61493624102657        6.14465111638543
C           -0.01630549259068        1.38526795754458        5.91411553599421
C           -0.04175140894011        2.76527863345908        6.07221169781409
C           -1.21238800679617        3.43938357728995        6.38702872744761
C           -1.07592260606553       -0.81551109534050        6.18998765867978
C            0.03084437001385       -1.43089449240957        5.52917648449233
C            1.16088958886504       -0.68006898113847        5.14398194667041
C            1.22700760509608        0.75186789429291        5.45133503657673
C           -2.03089697400568       -1.66315400598060        6.84647127257292
C           -2.13563540424878       -3.01918774613749        6.46102535376196
C           -1.13180922984455       -3.63424539892231        5.58254549738077
C            0.03099071638475       -2.81197347573359        5.24273821001716
C            1.12766641333318       -3.39978769514047        4.62717517927042
C            2.26300091506209       -2.67243736778537        4.28388499662343
C            2.24590363428739       -1.30424393820778        4.53885096315222
C           -2.86069643386358       -1.23223357225757        7.92163769657308
C           -3.89810676175025       -2.05250445790130        8.35199514174824
C           -4.09210127862682       -3.33521347517913        7.85278084627240
C           -3.15990087048178       -3.81999868518941        6.94888049359657
O           -2.54627594056069       -0.04920310132163        8.53876417106946
O           -3.57469240108692        0.61174919702960        6.08855517595615
O            2.24718033184432        1.40626590261817        5.26884362481810
O           -1.22584841844818       -4.80250872273986        5.22190844460414
C           -3.36245633561071        0.33530911546073        9.62000839615632
C           -4.77424991512818        1.34829151366604        6.12480766629779
C           -5.27115055151283       -4.16870902540338        8.35106567183002
C           -5.31632558569456       -5.54718401130206        7.68031835492232
C           -6.57894352573907       -3.42746969954301        8.03152636842376
C           -1.25650910783717        4.94195307141738        6.65992661644367
C           -1.71478557698491        5.15795556054864        8.11051875627125
C            0.12080151535152        5.59168472328426        6.48029800171936
C           -2.24945717945986        5.62463618781394        5.70507115848861
C            3.49258332065496       -3.39249632462407        3.73128565178884
C            4.52945329485885       -2.41177120945872        3.17154022284748
C            3.08504247418945       -4.37146891544905        2.62092483855759
C            4.13653996306525       -4.17734465795164        4.88383099883605
H            2.52884452487715       -3.85104737366586        1.84937367933173
H            2.46456465618106       -5.18106393880787        2.99703291562401
H            3.96683936100695       -4.81484810650162        2.16270419006418
H            5.35735029397631       -2.95491519533278        2.72090703207238
H            4.93718828561956       -1.77389527232579        3.95221104738221
H            4.09353914564741       -1.78117156512205        2.40668182621917
H            5.02053413778917       -4.70347770753815        4.52796907821072
H            3.44427849960771       -4.91036571223703        5.29356633271558
H            4.43741143157699       -3.50467603813909        5.68508163187845
H            1.07514646171204       -4.45923584801858        4.43255951511909
H            3.08953531758348       -0.68382740894833        4.28507505635018
H           -3.19637077031199       -4.83946369106150        6.60552834357971
H           -4.57064536716037       -1.69398674382833        9.11162083542714
H           -6.17702573895791       -6.10780016260415        8.04024095277730
H           -4.42301254420139       -6.12337736480563        7.91137251299796
H           -5.40552192956337       -5.45121858010714        6.60057697799708
H           -6.62388816299147       -2.46206628216660        8.53115453220823
H           -7.43545501973561       -4.01413555041324        8.35837952289122
H           -6.66813817779202       -3.26048171754343        6.95953214170513
H           -2.97661273986429        1.28196609760521        9.99936706050807
H           -3.32595212985695       -0.40820087187194       10.42148180572340
H           -4.39620500346930        0.47789017472071        9.29132610962577
H           -5.59276881515754        0.64904504790895        5.95086856120829
H           -4.78903361494747        2.11185537205198        5.34119049823608
H           -4.90737665939730        1.81724195951834        7.10360797248392
H           -3.31652138971555        3.22458227916020        6.58787958684346
H            0.88520432555146        3.29589485462554        5.94244486816690
H           -2.25021517410828        6.70063755371130        5.86902714748112
H           -3.26516778371222        5.26615776785154        5.85684245116254
H           -1.97549841803082        5.43817523609473        4.66940977711661
H            0.84593539763875        5.16264955568559        7.16832808948673
H            0.05853172508006        6.65937700357039        6.68263214991188
H            0.48263200433958        5.46247073370971        5.46321858881227
H           -1.74155366012880        6.22072315063550        8.34417830021972
H           -1.02831936846153        4.67244861514995        8.80157206827640
H           -2.70971611934994        4.75004048712726        8.27742545000370
C           -5.14788321225672       -4.36790943057124        9.86975066233301
H           -5.96788453044415       -4.98163904969994       10.23807694899762
H           -5.17460323519341       -3.41952589382159       10.40199378237032
H           -4.21177460691178       -4.86717157708764       10.11248856880571
156
 energy: -222.336925973326 gnorm: 0.012348361621 xtb: 6.7.1 (edcfbbe)
C           -0.47687897768135        1.68716586901552        1.29459709389130
C           -0.65793117264035        0.37159725020715        0.90180465115526
C            0.44072429801523       -0.52108972542283        0.88332190390054
C            1.71802430488154        0.07355351767204        0.96864803629659
C            1.87399682083449        1.40051350706288        1.34811526320359
C            0.77887113203573        2.21064772757071        1.59643227147935
C            0.33528553120790       -1.94204263403624        0.72992321947198
C            1.43051745172301       -2.60382068080870        0.10097970661048
C            2.68667539884581       -1.97632625888383       -0.03766592210096
C            2.92339402855759       -0.66061817518427        0.56917590951227
C           -0.74383123880447       -2.74891468449248        1.21601950486876
C           -0.89019043021893       -4.07771383882831        0.74637930032774
C            0.07611979241137       -4.68147283456940       -0.18691578533783
C            1.31572572306407       -3.92222612649972       -0.39088475921999
C            2.38239476648134       -4.53046454534077       -1.04267400142926
C            3.61543572259831       -3.90183653981814       -1.20026143364136
C            3.74626860124497       -2.62821491251236       -0.65942441070186
C           -1.65197550194002       -2.34551939874666        2.22575126924085
C           -2.67169557780893       -3.18590373469970        2.64099473535097
C           -2.84224688452998       -4.46799035349702        2.13346873262227
C           -1.92412962087810       -4.89460819433320        1.18506669670016
O           -1.46616781772366       -1.13664616489494        2.82717865398583
O           -1.85022475781535       -0.09944871228473        0.44110809449504
O            4.05065767540719       -0.18832022161160        0.68755967721510
O           -0.10926495883871       -5.77802573134393       -0.70303297267774
C           -2.58636999415394       -0.54838216594658        3.44536873439454
C           -2.89112697558703        0.82867565598630        0.24702362285445
C           -3.91921562890406       -5.40453939828126        2.64972766810020
C           -4.70417670070667       -6.00296311794622        1.47624246140877
C           -4.91012052934528       -4.70005263415846        3.58132110050574
C            0.95768544654180        3.64585179906414        2.05742185239472
C           -0.30562493617486        4.18234335804794        2.73759813377468
C            2.12089296190598        3.74545407362669        3.04989430214541
C            1.26826403682641        4.51008191880295        0.82662379170439
C            4.75207826904515       -4.61538716431302       -1.91536525965616
C            6.00345979711636       -3.74143934817812       -2.02967890817659
C            4.29451213501343       -4.99214209466295       -3.33114751795714
C            5.11625453125708       -5.88754460664961       -1.13751280842776
H            4.00654635796421       -4.10092940088372       -3.88475503314717
H            3.44564298879900       -5.66921506449795       -3.30683853366161
H            5.10522198582836       -5.48274161074803       -3.86627904907328
H            6.77899734617110       -4.28233480645327       -2.56848272208890
H            6.39427256245654       -3.48616961890304       -1.04782067654275
H            5.78961432782006       -2.82607446825776       -2.57625568264213
H            5.93326710712198       -6.40648628336830       -1.63514583078448
H            4.27098393333360       -6.56666240628693       -1.07106970505737
H            5.43416927078340       -5.63605472230925       -0.12789420532329
H            2.22034700439368       -5.53408933852696       -1.40903532020938
H            4.68358862016979       -2.09548927232228       -0.69481650791852
H           -1.96845666190585       -5.89170500832533        0.77399642533430
H           -3.33087298129312       -2.84114021120621        3.41750692899561
H           -5.48053308513531       -6.66617224215696        1.85268705358735
H           -4.05792750935666       -6.57865236824661        0.82136393029211
H           -5.17497637723501       -5.21641428978876        0.89002681946168
H           -4.41075730875078       -4.32686943801102        4.47256487792314
H           -5.67590712775265       -5.40672635333666        3.89659671135193
H           -5.40386670164957       -3.87301645444267        3.07375910933106
H           -2.31269840890968        0.49124265851913        3.63311901133965
H           -2.83353684691919       -1.01800685916873        4.40184801973452
H           -3.46128290614173       -0.59273734044918        2.78787762330495
H           -3.71626587793971        0.27546914339512       -0.20458495681142
H           -2.58458317216859        1.63419110737336       -0.43012220366899
H           -3.22762720245607        1.26547478531453        1.19526675471022
H           -1.33561503853633        2.33198057139536        1.36603742980920
H            2.88205177983786        1.77195612409515        1.43727216731205
H            1.41561443945549        5.54589566548635        1.12634251268067
H            0.45016728928589        4.46975621682427        0.10979965747607
H            2.17196416040735        4.16057191345344        0.33416784027965
H            2.01303645038221        3.01648284164048        3.84802153464831