156
 energy: -253.999683101354 gnorm: 0.139738513500 xtb: 6.7.1 (edcfbbe)
C            0.89720000000000        2.96990000000000       -3.39210000000000
C            2.30170000000000       -2.82230000000000        1.02300000000000
C           -3.64970000000000        1.61050000000000       -1.72250000000000
C           -2.79010000000000        0.65450000000000       -1.19670000000000
C           -1.38470000000000        0.95420000000000       -1.15340000000000
C           -0.89670000000000        2.02360000000000       -1.95460000000000
C           -1.80910000000000        2.95840000000000       -2.44040000000000
C           -3.16880000000000        2.77660000000000       -2.29620000000000
C           -0.43940000000000        0.14200000000000       -0.43430000000000
C            0.89050000000000        0.09440000000000       -0.92300000000000
C            1.33040000000000        1.04370000000000       -1.88600000000000
N            0.45320000000000        2.03960000000000       -2.33320000000000
C           -0.76110000000000       -0.61180000000000        0.74550000000000
C            0.10310000000000       -1.66570000000000        1.14770000000000
N            1.35290000000000       -1.80830000000000        0.52630000000000
C            1.77300000000000       -0.92380000000000       -0.47410000000000
C            3.03310000000000       -1.01170000000000       -1.05590000000000
C            3.46990000000000       -0.08120000000000       -1.98030000000000
C            2.63070000000000        0.94550000000000       -2.36570000000000
C           -1.87340000000000       -0.27180000000000        1.58690000000000
C           -2.22130000000000       -1.14410000000000        2.60900000000000
C           -1.45750000000000       -2.25970000000000        2.90230000000000
C           -0.29470000000000       -2.49370000000000        2.19750000000000
O           -2.51120000000000        0.95460000000000        1.40610000000000
O           -3.21610000000000       -0.60260000000000       -0.77530000000000
C           -4.09970000000000        3.79560000000000       -2.82490000000000
C           -1.86730000000000       -3.14730000000000        4.01490000000000
C            4.82440000000000       -0.16890000000000       -2.56910000000000
O            5.15970000000000        0.63540000000000       -3.41920000000000
O            5.62940000000000       -1.17840000000000       -2.11720000000000
C            6.85300000000000       -1.12140000000000       -2.77690000000000
O           -3.65570000000000        4.80190000000000       -3.34630000000000
O           -5.43410000000000        3.52830000000000       -2.69130000000000
C           -6.17260000000000        4.57660000000000       -3.22930000000000
O           -3.01620000000000       -3.11200000000000        4.41650000000000
O           -0.90430000000000       -3.96420000000000        4.54240000000000
C           -1.42990000000000       -4.62520000000000        5.64880000000000
H           -4.71210000000000        1.46220000000000       -1.70160000000000
H           -1.47730000000000        3.85220000000000       -2.93430000000000
H           -3.07370000000000       -0.95040000000000        3.23060000000000
H            0.28920000000000       -3.34800000000000        2.47950000000000
H            3.70300000000000       -1.80920000000000       -0.80110000000000
H            3.02350000000000        1.66200000000000       -3.06110000000000
C            2.21170000000000       -4.12560000000000        0.24770000000000
C            3.22130000000000       -5.15780000000000        0.71900000000000
C            1.57600000000000        4.20760000000000       -2.82720000000000
C            2.11920000000000        5.12600000000000       -3.90830000000000
C           -3.75580000000000        1.08070000000000        2.04820000000000
C           -4.56810000000000       -0.89520000000000       -1.03120000000000
H           -7.23720000000000        4.35740000000000       -3.12570000000000
H           -5.91240000000000        4.68780000000000       -4.28460000000000
H           -5.92370000000000        5.49550000000000       -2.69300000000000
H           -0.68380000000000       -5.30630000000000        6.06230000000000
H           -2.31730000000000       -5.18290000000000        5.34030000000000
H           -1.70970000000000       -3.87950000000000        6.39760000000000
H            7.49450000000000       -1.93050000000000       -2.42220000000000
H            7.31960000000000       -0.15450000000000       -2.57380000000000
H            6.68050000000000       -1.22290000000000       -3.85090000000000
H            2.12800000000000       -2.98660000000000        2.08630000000000
H            3.31540000000000       -2.41690000000000        0.98730000000000
H            2.35060000000000       -3.91670000000000       -0.82050000000000
H            1.19140000000000       -4.52140000000000        0.32660000000000
H            4.24130000000000       -4.78240000000000        0.62210000000000
H            3.15580000000000       -6.08570000000000        0.14760000000000
H            3.06900000000000       -5.40770000000000        1.76980000000000
H           -4.19750000000000        2.03590000000000        1.76060000000000
H           -3.61640000000000        1.06430000000000        3.12720000000000
H           -4.41310000000000        0.26800000000000        1.73840000000000
H           -4.76110000000000       -1.92150000000000       -0.71690000000000
H           -4.76910000000000       -0.80560000000000       -2.09960000000000
H           -5.21140000000000       -0.22380000000000       -0.46210000000000
H            2.59930000000000        6.01240000000000       -3.48930000000000
H            1.32330000000000        5.46570000000000       -4.57280000000000
H            2.85860000000000        4.61290000000000       -4.52530000000000
H            2.38300000000000        3.89700000000000       -2.15160000000000
H            0.86390000000000        4.74840000000000       -2.19180000000000
H            0.04620000000000        3.24590000000000       -4.01900000000000
H            1.56210000000000        2.43920000000000       -4.07760000000000
C           -0.04600000000000        2.57860000000000        2.16660000000000
C            2.92890000000000       -3.22120000000000        5.67540000000000
C           -3.41620000000000        1.49800000000000        5.69380000000000
C           -2.43780000000000        0.52120000000000        5.82590000000000
C           -1.13450000000000        0.77320000000000        5.27440000000000
C           -1.00390000000000        1.82150000000000        4.32380000000000
C           -2.02020000000000        2.77010000000000        4.22960000000000
C           -3.19850000000000        2.63660000000000        4.93520000000000
C           -0.00860000000000       -0.08140000000000        5.52700000000000
C            1.04330000000000       -0.11110000000000        4.57760000000000
C            1.09160000000000        0.86010000000000        3.54060000000000
N            0.06800000000000        1.80620000000000        3.42090000000000
C            0.10440000000000       -0.92480000000000        6.68410000000000
C            0.96530000000000       -2.05350000000000        6.62410000000000
N            1.94990000000000       -2.11720000000000        5.63070000000000
C            2.04650000000000       -1.11750000000000        4.65420000000000
C            3.08330000000000       -1.08920000000000        3.72960000000000
C            3.15940000000000       -0.10950000000000        2.75810000000000
C            2.16800000000000        0.84590000000000        2.66420000000000
C           -0.56900000000000       -0.64260000000000        7.92250000000000
C           -0.64510000000000       -1.65350000000000        8.87290000000000
C            0.01440000000000       -2.85900000000000        8.69630000000000
C            0.84690000000000       -3.03080000000000        7.61000000000000
O           -1.05570000000000        0.64420000000000        8.13720000000000
O           -2.70280000000000       -0.72450000000000        6.39480000000000
C           -4.26100000000000        3.65120000000000        4.77890000000000
C           -0.13090000000000       -3.94180000000000        9.69110000000000
C            4.28880000000000       -0.08450000000000        1.80710000000000
O            4.40410000000000        0.84910000000000        1.03430000000000
O            5.14270000000000       -1.15310000000000        1.85390000000000
C            6.14020000000000       -0.98660000000000        0.90080000000000
O           -4.09310000000000        4.58370000000000        4.01470000000000
O           -5.39820000000000        3.45900000000000        5.51370000000000
C           -6.28960000000000        4.49820000000000        5.26860000000000
O           -0.80340000000000       -3.76250000000000       10.68930000000000
O            0.51570000000000       -5.11290000000000        9.40300000000000
C            0.28190000000000       -6.03240000000000       10.42000000000000
H           -4.36990000000000        1.37710000000000        6.17100000000000
H           -1.91470000000000        3.62580000000000        3.58970000000000
H           -1.20950000000000       -1.52020000000000        9.77600000000000
H            1.38370000000000       -3.95710000000000        7.53600000000000
H            3.85860000000000       -1.82960000000000        3.74160000000000
H            2.26700000000000        1.58920000000000        1.89630000000000
C            2.44580000000000       -4.43580000000000        4.89890000000000
C            3.38330000000000       -5.62450000000000        5.01200000000000
C            0.64590000000000        3.92880000000000        2.23130000000000
C            0.57080000000000        4.67210000000000        0.90930000000000
C           -1.83040000000000        0.80290000000000        9.29930000000000
C           -4.05570000000000       -1.11160000000000        6.39350000000000
H           -7.19380000000000        4.34460000000000        5.86100000000000
H           -6.53530000000000        4.51220000000000        4.20420000000000
H           -5.81570000000000        5.44280000000000        5.54560000000000
H            0.79570000000000       -6.96720000000000       10.18710000000000
H           -0.79370000000000       -6.20540000000000       10.50120000000000
H            0.65690000000000       -5.62220000000000       11.36060000000000
H            6.83850000000000       -1.82400000000000        0.95340000000000
H            6.66150000000000       -0.04580000000000        1.09160000000000
H            5.67150000000000       -0.94960000000000       -0.08400000000000
H            3.12320000000000       -3.48010000000000        6.71920000000000
H            3.89800000000000       -2.88020000000000        5.30710000000000
H            2.30800000000000       -4.15800000000000        3.84890000000000
H            1.44100000000000       -4.70550000000000        5.24520000000000
H            4.37760000000000       -5.37900000000000        4.63570000000000
H            3.02090000000000       -6.48670000000000        4.44880000000000
H            3.49920000000000       -5.93640000000000        6.05110000000000
H           -2.21780000000000        1.82230000000000        9.31550000000000
H           -1.21150000000000        0.64210000000000       10.18290000000000
H           -2.66830000000000        0.10460000000000        9.27860000000000
H           -4.09290000000000       -2.19100000000000        6.54890000000000
H           -4.50550000000000       -0.88460000000000        5.42610000000000
H           -4.58970000000000       -0.60560000000000        7.19840000000000
H            1.07540000000000        5.63910000000000        0.95140000000000
H           -0.46500000000000        4.85110000000000        0.61600000000000
H            1.03500000000000        4.09020000000000        0.11200000000000
H            1.69170000000000        3.78550000000000        2.53030000000000
H            0.20320000000000        4.52810000000000        3.03640000000000
H           -1.10420000000000        2.69220000000000        1.91460000000000
H            0.35660000000000        1.97840000000000        1.34680000000000
156
 energy: -254.028599165913 gnorm: 0.062426232304 xtb: 6.7.1 (edcfbbe)
C            0.89394874073462        2.96057109678098       -3.38046027025259
C            2.29090970374216       -2.81546364994725        1.01590549049199
C           -3.65124635211375        1.60040285179329       -1.72033259323856
C           -2.78543100994291        0.66199409000372       -1.19035070293761
C           -1.38408365111789        0.93974490586805       -1.16438761497468
C           -0.89564744531476        2.00192138292652       -1.97382072369417
C           -1.79741669713144        2.95299733315895       -2.44401342879269
C           -3.16354355394504        2.77307214045621       -2.28752492389856
C           -0.44335075434033        0.14216572290989       -0.43327220332161
C            0.88784397678080        0.09544502394132       -0.92082203855575
C            1.32363564492796        1.04121580133643       -1.89055261382087
N            0.45129862839274        2.03409159007113       -2.33135490062565
C           -0.75535285671026       -0.60307242475465        0.74938949005931
C            0.11759518371851       -1.65060545204889        1.15454213077531
N            1.35167577835583       -1.80463331165072        0.52568334275418
C            1.77161997570523       -0.92077434254423       -0.46450551505428
C            3.02756068662133       -1.02295498505098       -1.04798094659720
C            3.46021897502914       -0.08409428424991       -1.97618660713430
C            2.62423887518342        0.95275488658553       -2.36632886447779
C           -1.87007970237535       -0.28475752474806        1.58311325554321
C           -2.21695416765195       -1.14061273663912        2.60948401795762
C           -1.44409295620575       -2.25759588719405        2.89856536099670
C           -0.27285960804398       -2.49111128693647        2.19450027392812
O           -2.51299924467491        0.91912809410172        1.38913332449898
O           -3.20622726106975       -0.58079842640660       -0.76922641940439
C           -4.07253217388141        3.80254932742146       -2.82017875570418
C           -1.88251420916388       -3.13088721060118        4.00176843070404
C            4.80164283828976       -0.15019222388087       -2.58475543928589
O            5.15905693286258        0.64366367280176       -3.42739245278155
O            5.60180168111145       -1.15754686306274       -2.14794395058760
C            6.85644249873149       -1.12268552966076       -2.78392518651194
O           -3.65395230821304        4.80977424599477       -3.34997830906854
O           -5.39707162607138        3.53756204913307       -2.69244301584296
C           -6.17549585533610        4.57886964962682       -3.23004928357647
O           -3.02227293550811       -3.10988063940475        4.41360585655149
O           -0.92990574027385       -3.93932011675478        4.53267602051120
C           -1.43319653725614       -4.62796374422136        5.65279963592212
H           -4.71663212375465        1.45422510847857       -1.70545957778236
H           -1.47002997078528        3.85266928694644       -2.93554041902147
H           -3.07524307732465       -0.95472652318630        3.23067388720701
H            0.30347908597868       -3.35365629207732        2.47314784775511
H            3.69880186633886       -1.82422826081172       -0.80026396731779
H            3.02600161241485        1.66772592721645       -3.06151812284849
C            2.20234942232522       -4.12553046854044        0.23890604674136
C            3.21942933698126       -5.15058804813472        0.72143881631718
C            1.57455952583360        4.20568989911219       -2.81654388138848
C            2.11434585699624        5.11746906240947       -3.90964371230008
C           -3.75521000402954        1.06959192979250        2.03801104010978
C           -4.55734334404882       -0.89003942501909       -1.02723380240924
H           -7.23057960102621        4.33375481429891       -3.11387775202850
H           -5.93315856564417        4.70642972154292       -4.28875080596034
H           -5.94572624576648        5.51102370345883       -2.70654464789480
H           -0.66916432713358       -5.29850211739272        6.04381437294461
H           -2.31976000242535       -5.19887896124205        5.36329548928877
H           -1.71619795144552       -3.90130376872527        6.41969875630788
H            7.47249689077585       -1.93877622747104       -2.40757278109650
H            7.34113762858465       -0.16314845910076       -2.58439368734238
H            6.71330211165483       -1.22371234879373       -3.86264228366937
H            2.10599475191489       -2.98242871328085        2.07786136486069
H            3.30479606865350       -2.41427803869002        0.96946280490382
H            2.35843682399298       -3.91880714211679       -0.82457235935429
H            1.18892399684309       -4.52819729174360        0.33294516338797
H            4.23600168820202       -4.77193942073544        0.61903205077917
H            3.14743722039182       -6.07233684701998        0.14579256636224
H            3.06111605261660       -5.39986560714314        1.76995340215249
H           -4.17182937383230        2.03176225637499        1.73788591623931
H           -3.63243193892898        1.06699275286263        3.12157014896573
H           -4.43347674072791        0.26646248525356        1.74226667651728
H           -4.72695318771995       -1.91864745432954       -0.70799208014415
H           -4.77514804583266       -0.80820258652747       -2.09633170391288
H           -5.22456043216922       -0.23160549341922       -0.46465322184086
H            2.59061934493332        5.99815601638073       -3.48102475626053
H            1.31556582142319        5.45799817455281       -4.56758804231105
H            2.85591081621185        4.60285535336106       -4.51975472734868
H            2.39152285862645        3.89626536040760       -2.15686684084794
H            0.85781318705830        4.75439103054768       -2.19779495548045
H            0.03590606407778        3.24188902286624       -3.99571177107563
H            1.56987171878727        2.43047675495948       -4.05727835306468
C           -0.04174001000662        2.57500152905393        2.18124655980645
C            2.91746248072404       -3.21101241033918        5.67570378125398
C           -3.41421079721946        1.48800912860740        5.70154951460879
C           -2.43046348251693        0.52392669095698        5.82928906966036
C           -1.13869018417223        0.75585396690621        5.26413913490620
C           -1.01065747678795        1.79832605848902        4.30647726786670
C           -2.00864035465747        2.76545395993118        4.22344072395720
C           -3.18733686951804        2.63583428650456        4.94662503019769
C           -0.01371357711065       -0.08675682703411        5.52781209765318
C            1.03665890131373       -0.11660465207640        4.57696747971982
C            1.08022838661632        0.85416708487910        3.53763396422399
N            0.06527798371501        1.79729812391578        3.42168883160855
C            0.10929529970946       -0.91908504745940        6.68552884778351
C            0.97838278971585       -2.04199394165173        6.62588200465243
N            1.94605383179918       -2.11472347996963        5.62888680906805
C            2.04188111353272       -1.12238673432827        4.65778115026144
C            3.07919399371452       -1.10256315599726        3.73653907120888
C            3.15105156755508       -0.11307214278236        2.76393957364762
C            2.15853607211314        0.85107133367447        2.66406179277561
C           -0.57095634235898       -0.65486049403026        7.91417642682886
C           -0.64148986396711       -1.64945720418684        8.87162766454587
C            0.01637264312099       -2.86054870932947        8.68356642760138
C            0.85990940639325       -3.03208142332956        7.59601395881838
O           -1.06157969617058        0.61396606853358        8.11956986722751
O           -2.68944372704066       -0.70960120289881        6.38732360306251
C           -4.23300872090797        3.65845486912164        4.77411582448232
C           -0.14583491396366       -3.92090845776013        9.69092401352425
C            4.27093866493498       -0.06301504298088        1.81012458622824
O            4.40874656118963        0.85597821577891        1.03152175996722
O            5.12354748396931       -1.11907903449628        1.86206835164637
C            6.15009470632541       -0.98443702186752        0.90876781835278
O           -4.09223208676811        4.59236045434370        4.01311097465529
O           -5.36493278164231        3.46732378818960        5.49789652883711
C           -6.29246490649089        4.50025909722749        5.26942594264315
O           -0.80791104296480       -3.76209698030338       10.69419156969189
O            0.49744751847228       -5.08442670836200        9.41156618758350
C            0.28177418436637       -6.03697247983622       10.42368217936025
H           -4.37483256316244        1.36552930609554        6.17133468484907
H           -1.90654693443959        3.62640117395248        3.58599918696275
H           -1.20564574988045       -1.52226189346927        9.77949958173089
H            1.39644352597780       -3.96014784598071        7.52636682474503
H            3.86169034256432       -1.83889322769825        3.74816496145236
H            2.26592838455897        1.59371143691919        1.89354997417023
C            2.43818597689982       -4.43282815675899        4.89583122683377
C            3.38576885319691       -5.61728146168545        5.01576810248630
C            0.65182791677519        3.93134005002389        2.24421972407753
C            0.56791050440929        4.66418209651801        0.91285828005774
C           -1.82800731813280        0.79695477344973        9.28819315279149
C           -4.04500894076565       -1.10246388138364        6.39847377632781
H           -7.18307251885687        4.32109564811831        5.87058609730462
H           -6.55433336020044        4.52976416577222        4.20812562084916
H           -5.84177137798211        5.45856094774854        5.54189156762943
H            0.80495694416446       -6.95701749839742       10.16567579729018
H           -0.79039849780487       -6.22820765763607       10.52050911709202
H            0.65255612739176       -5.64729295515626       11.37560866478919
H            6.82827482304553       -1.83346797954306        0.98430684174320
H            6.68935852394048       -0.04995549392248        1.08097684445726
H            5.70657682083145       -0.94871582073404       -0.08680230215788
H            3.10146756428146       -3.47308369113457        6.72130644216401
H            3.88092399707541       -2.86731274032334        5.29362691259621
H            2.31900080104041       -4.15747611766766        3.84460602484693
H            1.44284684840459       -4.71060973793503        5.25059347177506
H            4.37623814458341       -5.36927492283171        4.63521264816523
H            3.01538708987858       -6.47206520633749        4.45083807313650
H            3.49472775246435       -5.92826336040995        6.05413269692118
H           -2.20073377391366        1.82175143163998        9.28369588727054
H           -1.21849658759421        0.64627666467348       10.18400985325437
H           -2.67703537858089        0.10856021603294        9.29436485696814
H           -4.06667814510054       -2.18095431118832        6.55321172186276
H           -4.51580215718158       -0.88632046104039        5.43616056634990
H           -4.59614080315263       -0.60809982840599        7.20325816959607
H            1.07309520353715        5.62776528391631        0.96332976700579
H           -0.46817478879646        4.84260065891752        0.62624202310208
H            1.03718225633500        4.08016434017611        0.12233776046158
H            1.69980768246094        3.78748142177698        2.52457557888954
H            0.19742807151333        4.53550820860213        3.03508334881981
H           -1.09991478013036        2.69802317270154        1.93662196759782
H            0.37132447246134        1.97671935703524        1.36420614512333
156
 energy: -254.040238185123 gnorm: 0.015928038462 xtb: 6.7.1 (edcfbbe)
C            0.89029294247158        2.94898239459970       -3.36857128986262
C            2.28250548131457       -2.80658356473562        1.00784657581864
C           -3.65367107558272        1.59790957186964       -1.72431975789225
C           -2.78351761859131        0.66777989352620       -1.19478528520319
C           -1.38395168256318        0.92861530935869       -1.17300735331451
C           -0.89371210751181        1.98680165233076       -1.98485066966244
C           -1.78739867108212        2.94869914849689       -2.44535936370306
C           -3.15797129643115        2.77443942680168       -2.28330664443253
C           -0.44715764519186        0.14093447589941       -0.43269398211241
C            0.88671698517704        0.09607138647988       -0.91883348465531
C            1.31912384651507        1.03972240248432       -1.89091213016605
N            0.44986090967955        2.02951090247372       -2.32567409669035
C           -0.75062779074765       -0.59660843931115        0.75359700937872
C            0.12891507871799       -1.63906938003681        1.16187859222800
N            1.35024977721201       -1.80066500473725        0.52373642115986
C            1.77155218789231       -0.91847929438255       -0.46059431772635
C            3.02447526603474       -1.03191056440186       -1.04931941695107
C            3.45177472985313       -0.08681898639681       -1.97734242967105
C            2.61949040949403        0.95790333539961       -2.36516086308679
C           -1.86689572073758       -0.29377999576231        1.58283216264382
C           -2.21444706228683       -1.14115371398659        2.61041645848139
C           -1.43466391204956       -2.25756360040493        2.89813538582766
C           -0.25792260426280       -2.48871446366256        2.19605376397070
O           -2.51724618428091        0.88748974244486        1.37199285427785
O           -3.19995703278436       -0.56090156146370       -0.76638049645328
C           -4.04248176449781        3.81622952168156       -2.82233026021664
C           -1.90116920278934       -3.11465236386699        3.99523465248807
C            4.78091153665347       -0.12803627147948       -2.60551248887256
O            5.15414899324952        0.66122297592503       -3.44221048683142
O            5.57781893462969       -1.13591164493152       -2.18321126241705
C            6.85970420726073       -1.12528733545515       -2.79345731088477
O           -3.64052671377001        4.82732983592820       -3.35405292283223
O           -5.36022511530304        3.55596919097433       -2.69531597461404
C           -6.17970846374168        4.58369714899138       -3.23057140954208
O           -3.03796503478512       -3.10512886920391        4.41013128722285
O           -0.95785630722035       -3.91696101813011        4.53173576375335
C           -1.43721066435389       -4.63430279413630        5.65969979306768
H           -4.72025665286303        1.45703597617342       -1.71343148094426
H           -1.46747438877927        3.85438790139980       -2.93124647132916
H           -3.07703289228709       -0.96612884111220        3.22964678144536
H            0.30537240190370       -3.36110744045264        2.47157528402830
H            3.69752700079549       -1.83617050423863       -0.81472661999787
H            3.03468364265287        1.67039490560056       -3.05554359304111
C            2.19159463606188       -4.12287462253825        0.23049420998095
C            3.21496672177218       -5.14169594273787        0.72212230765077
C            1.57201692016077        4.20026840255071       -2.80528308071334
C            2.10815679674102        5.10625607497379       -3.90888161576978
C           -3.75767126731540        1.06322773933417        2.02131327346249
C           -4.54662368261680       -0.89361024196260       -1.01946631084547
H           -7.22056074728233        4.29620999967082       -3.09330650205975
H           -5.95654546816733        4.71901207361959       -4.29279122505243
H           -5.97055710086517        5.52582003830086       -2.71587850696949
H           -0.64610884610107       -5.29060393725462        6.01648452321502
H           -2.31917531338508       -5.21771540732877        5.38156688104146
H           -1.71931817818353       -3.92533464773614        6.44332786912508
H            7.43762683170527       -1.95299372837121       -2.38541170602555
H            7.35951044250610       -0.17436102118673       -2.59002477532498
H            6.74674168645288       -1.22963054043784       -3.87583364590871
H            2.09426101202371       -2.97736567532271        2.06734633982150
H            3.29720718184194       -2.41323752595167        0.95449631046230
H            2.35871749736405       -3.92089029864949       -0.82927231636424
H            1.18457479554029       -4.53168943709754        0.33480176584230
H            4.22725176269284       -4.75685773861542        0.61677849588911
H            3.14005250087508       -6.06007830262964        0.14453318872460
H            3.05136330894967       -5.38693099795308        1.76918581227007
H           -4.14464321280068        2.03097825952084        1.70061399469019
H           -3.64774186198726        1.07623477573180        3.10807262076672
H           -4.45570285144670        0.26902312934023        1.74075823661279
H           -4.68248497809503       -1.92458696286021       -0.69245581189359