134
 energy: -186.456252477650 gnorm: 0.085892754176 xtb: 6.7.1 (edcfbbe)
C           -1.29430000000000        3.82200000000000        0.65880000000000
C           -1.22740000000000        2.43850000000000        0.52600000000000
C            0.03880000000000        1.82880000000000        0.66160000000000
C            1.21180000000000        2.57580000000000        0.91160000000000
C            1.06500000000000        3.96580000000000        1.04170000000000
C           -0.16270000000000        4.59370000000000        0.92390000000000
C            0.13630000000000        0.44260000000000        0.55370000000000
C            1.37470000000000       -0.16670000000000        0.67100000000000
C            2.51180000000000        0.64350000000000        0.91440000000000
N            2.43190000000000        1.99260000000000        1.04650000000000
C           -0.99130000000000       -0.33780000000000        0.30750000000000
C           -0.83690000000000       -1.73730000000000        0.18120000000000
N            0.37140000000000       -2.34940000000000        0.28640000000000
C            1.45980000000000       -1.57460000000000        0.52670000000000
C            2.73430000000000       -2.14850000000000        0.62430000000000
C            3.87350000000000       -1.38450000000000        0.84820000000000
C            3.74800000000000       -0.00970000000000        0.99970000000000
C           -2.24310000000000        0.29920000000000        0.16950000000000
C           -3.34320000000000       -0.50460000000000       -0.10540000000000
C           -3.23550000000000       -1.88790000000000       -0.23930000000000
C           -1.99410000000000       -2.48420000000000       -0.09000000000000
C           -0.24570000000000        6.11480000000000        1.12000000000000
C           -4.48740000000000       -2.69780000000000       -0.60460000000000
C            5.27230000000000       -2.01360000000000        0.91960000000000
C           -5.61790000000000       -2.37610000000000        0.39050000000000
C           -4.21410000000000       -4.21260000000000       -0.56370000000000
C           -4.93200000000000       -2.31910000000000       -2.02820000000000
C            6.15470000000000       -1.42300000000000       -0.19550000000000
C            5.89490000000000       -1.70110000000000        2.29240000000000
C            5.22000000000000       -3.54150000000000        0.73280000000000
C           -1.67270000000000        6.64430000000000        0.88290000000000
C            0.16960000000000        6.46110000000000        2.56130000000000
C            0.70070000000000        6.81250000000000        0.12590000000000
H            1.94630000000000        4.54270000000000        1.25070000000000
H           -2.26020000000000        4.27870000000000        0.56320000000000
H            4.61900000000000        0.59240000000000        1.17830000000000
H            2.80040000000000       -3.21470000000000        0.52200000000000
H           -1.88050000000000       -3.54720000000000       -0.18360000000000
H           -4.29380000000000       -0.02220000000000       -0.23120000000000
H            0.44350000000000        6.54870000000000       -0.89940000000000
H            0.63600000000000        7.89610000000000        0.22180000000000
H            1.73750000000000        6.52650000000000        0.29580000000000
H            0.13060000000000        7.53680000000000        2.73080000000000
H            1.18430000000000        6.12590000000000        2.77220000000000
H           -0.49630000000000        5.98360000000000        3.27900000000000
H           -2.37650000000000        6.20810000000000        1.59120000000000
H           -1.70920000000000        7.72610000000000        1.00830000000000
H           -2.01170000000000        6.41700000000000       -0.12740000000000
H            6.26640000000000       -0.34540000000000       -0.08450000000000
H            5.71620000000000       -1.61410000000000       -1.17450000000000
H            7.15060000000000       -1.86480000000000       -0.17960000000000
H            4.81420000000000       -3.80310000000000       -0.24390000000000
H            6.21770000000000       -3.97450000000000        0.80110000000000
H            4.60190000000000       -4.00850000000000        1.49700000000000
H            6.06300000000000       -0.63220000000000        2.41600000000000
H            6.85320000000000       -2.20540000000000        2.41300000000000
H            5.23440000000000       -2.02420000000000        3.09500000000000
H           -5.17260000000000       -1.25890000000000       -2.09590000000000
H           -4.14020000000000       -2.52810000000000       -2.74690000000000
H           -5.81570000000000       -2.88350000000000       -2.32450000000000
H           -5.12350000000000       -4.77550000000000       -0.77220000000000
H           -3.84910000000000       -4.51520000000000        0.41620000000000
H           -3.47360000000000       -4.49950000000000       -1.30960000000000
H           -5.29120000000000       -2.55380000000000        1.41340000000000
H           -5.92810000000000       -1.33500000000000        0.31860000000000
H           -6.49460000000000       -2.99420000000000        0.19910000000000
O           -2.36960000000000        1.68060000000000        0.28610000000000
C           -1.12440000000000       -0.14600000000000        3.97620000000000
C           -1.15950000000000       -1.50360000000000        3.67590000000000
C            0.06970000000000       -2.19800000000000        3.65710000000000
C            1.29950000000000       -1.56590000000000        3.95210000000000
C            1.25330000000000       -0.19530000000000        4.25180000000000
C            0.06720000000000        0.51950000000000        4.26620000000000
C            0.06730000000000       -3.56470000000000        3.38310000000000
C            1.26080000000000       -4.26900000000000        3.41630000000000
C            2.45450000000000       -3.57710000000000        3.74360000000000
N            2.47730000000000       -2.24310000000000        3.99550000000000
C           -1.12720000000000       -4.24710000000000        3.15410000000000
C           -1.08160000000000       -5.64380000000000        2.94250000000000
N            0.08410000000000       -6.34240000000000        2.92990000000000
C            1.23520000000000       -5.66620000000000        3.17700000000000
C            2.45840000000000       -6.34640000000000        3.24990000000000
C            3.64630000000000       -5.70550000000000        3.57590000000000
C            3.62780000000000       -4.33980000000000        3.82970000000000
C           -2.34500000000000       -3.53470000000000        3.21350000000000
C           -3.52320000000000       -4.26140000000000        3.07010000000000
C           -3.52260000000000       -5.64140000000000        2.86270000000000
C           -2.31050000000000       -6.30640000000000        2.79580000000000
C            0.04670000000000        1.98640000000000        4.72330000000000
C           -4.82670000000000       -6.45300000000000        2.80510000000000
C            4.93870000000000       -6.53100000000000        3.67240000000000
C           -6.06440000000000       -5.54330000000000        2.68640000000000
C           -4.94880000000000       -7.28030000000000        4.09680000000000
C           -4.80890000000000       -7.39860000000000        1.58850000000000
C            6.15760000000000       -5.65290000000000        4.01640000000000
C            4.77850000000000       -7.59160000000000        4.77680000000000
C            5.20530000000000       -7.22370000000000        2.32320000000000
C           -1.09910000000000        2.75730000000000        4.04100000000000
C           -0.15980000000000        2.02470000000000        6.24610000000000
C            1.37410000000000        2.69020000000000        4.37550000000000
H            2.18160000000000        0.28620000000000        4.49270000000000
H           -2.06130000000000        0.37590000000000        4.00320000000000
H            4.52590000000000       -3.83190000000000        4.12220000000000
H            2.45140000000000       -7.40490000000000        3.06930000000000
H           -2.28700000000000       -7.37240000000000        2.66940000000000
H           -4.44650000000000       -3.72370000000000        3.15950000000000
H            1.62560000000000        2.54560000000000        3.32690000000000
H            1.30760000000000        3.76180000000000        4.56150000000000
H            2.19820000000000        2.30850000000000        4.97630000000000
H           -0.18020000000000        3.05090000000000        6.61210000000000
H            0.64380000000000        1.49720000000000        6.75900000000000
H           -1.10030000000000        1.54830000000000        6.52100000000000
H           -2.07480000000000        2.40540000000000        4.37200000000000
H           -1.04470000000000        3.82050000000000        4.27140000000000
H           -1.04610000000000        2.64330000000000        2.96120000000000
H            6.03120000000000       -5.16690000000000        4.98330000000000
H            6.31610000000000       -4.88470000000000        3.26070000000000
H            7.06450000000000       -6.25480000000000        4.06830000000000
H            5.30060000000000       -6.48980000000000        1.52390000000000
H            6.12690000000000       -7.80400000000000        2.35890000000000
H            4.39570000000000       -7.90200000000000        2.05830000000000
H            4.57000000000000       -7.11880000000000        5.73610000000000
H            5.68630000000000       -8.18480000000000        4.88290000000000
H            3.95840000000000       -8.27320000000000        4.55560000000000
H           -4.67000000000000       -6.84010000000000        0.66410000000000
H           -4.00620000000000       -8.13040000000000        1.66100000000000
H           -5.74680000000000       -7.94780000000000        1.51070000000000
H           -5.86600000000000       -7.86850000000000        4.09970000000000
H           -4.96160000000000       -6.62920000000000        4.97040000000000
H           -4.10920000000000       -7.96600000000000        4.20400000000000
H           -6.16800000000000       -4.89900000000000        3.55870000000000
H           -6.00530000000000       -4.91770000000000        1.79750000000000
H           -6.97460000000000       -6.13780000000000        2.61180000000000
O           -2.36470000000000       -2.16110000000000        3.44120000000000
134
 energy: -186.464208055719 gnorm: 0.038682798515 xtb: 6.7.1 (edcfbbe)
C           -1.30579761518423        3.81275625081940        0.64948786882838
C           -1.22371715449384        2.43458008985891        0.51918129785383
C            0.03646265271189        1.83135578321024        0.65656448367723
C            1.21376467340872        2.57757395019001        0.90545047876504
C            1.06810281030890        3.97003105324766        1.03840628390522
C           -0.16619748444551        4.58691988995764        0.92114095887324
C            0.13948734724671        0.44028968370108        0.55696666433042
C            1.37717246043579       -0.16854071414380        0.67731734774009
C            2.51299196638624        0.64716718404046        0.91416029280556
N            2.42369733320750        1.98656039831977        1.03520257282260
C           -0.99640521305445       -0.33717973871358        0.31178883845767
C           -0.83890565200266       -1.73923002648770        0.19064483333530
N            0.36728816700938       -2.33852867470293        0.30562854903446
C            1.45494581184682       -1.57775312458208        0.53878409653750
C            2.73438192845932       -2.15834364383556        0.63200205684174
C            3.87386216686410       -1.38780081057558        0.85024939285802
C            3.75572254888379       -0.00727182472829        1.00177755069029
C           -2.23938010946713        0.29868781648349        0.16805924887737
C           -3.34239622521636       -0.49027726266643       -0.11006214810804
C           -3.22946757352693       -1.88431109128697       -0.24250023299189
C           -1.99544544662084       -2.49070303916537       -0.08468163363732
C           -0.25237619214984        6.10292169241397        1.11416745616329
C           -4.47856038427533       -2.69108004155119       -0.60037648742424
C            5.26639288227122       -2.01450715924123        0.91921121596854
C           -5.60921879207292       -2.36906683118343        0.38827881376002
C           -4.21438722263790       -4.20177545203452       -0.56362397585401
C           -4.92199426940328       -2.31149082923988       -2.02129850565543
C            6.14399859410454       -1.42147444773766       -0.19405717403257
C            5.88598463351541       -1.69777655143024        2.28811916600771
C            5.22012270279045       -3.53597868452712        0.73339752961542
C           -1.66991863285345        6.64117944597151        0.88243273337913
C            0.16700140775703        6.44881282521441        2.55149104511004
C            0.69505676968438        6.80099702764861        0.12635563229993
H            1.95399691210683        4.54493669706693        1.24908585679339
H           -2.27661730804999        4.26621084022765        0.55421709220842
H            4.62671270336626        0.60112699467327        1.17963222499095
H            2.79442446492540       -3.22675689550900        0.52134677490370
H           -1.87591336977509       -3.55529097143700       -0.17883274865164
H           -4.29586218966056       -0.00368404282168       -0.23319590218317
H            0.43616785085239        6.53980009857928       -0.89787738714902
H            0.62187469363015        7.88222038329481        0.23242774544460
H            1.73036853902558        6.51745377979354        0.29820314659651
H            0.12514313675767        7.52546133280789        2.70923953591655
H            1.18102283909885        6.11537989792785        2.75992171486927
H           -0.50142796433320        5.97447294632456        3.26747735091099
H           -2.37209708668353        6.21246997962562        1.59483621281852
H           -1.68383004824906        7.72196315672141        1.01202150936758
H           -2.00791275151207        6.42091066980242       -0.12829477089853
H            6.25704789372493       -0.34571480148000       -0.08215216715253
H            5.70592967362636       -1.61742048568982       -1.17123120898543
H            7.13606354452078       -1.86922749111199       -0.16838826200967
H            4.82030232505563       -3.79684618860822       -0.24509419657187
H            6.22569903517750       -3.94884919595501        0.80225128091477
H            4.60686231112829       -4.00152628472125        1.50221297664279
H            6.05911683051924       -0.63085676052648        2.40594447629104
H            6.84202661416592       -2.20756739335957        2.39905962305797
H            5.21990034935386       -2.01772162057216        3.08579643867143
H           -5.16483864854353       -1.25334693715231       -2.08996518208910
H           -4.13118934780493       -2.52654867145418       -2.73769257010180
H           -5.80498815042026       -2.88170557272131       -2.30561990271524
H           -5.13441496959041       -4.74522251556206       -0.77536100105750
H           -3.85222757718385       -4.50662738547718        0.41604758911964
H           -3.48173722975685       -4.49016678138672       -1.31476328914940
H           -5.27982232546244       -2.54803040326440        1.40880831740936
H           -5.92417341943811       -1.33144150147262        0.31248636793115
H           -6.47826893133789       -2.99401554820611        0.18749481368813
O           -2.35239262731128        1.67244248647387        0.28161292678722
C           -1.13574334339564       -0.15634866506146        3.97773825615042
C           -1.15489262395887       -1.50723977698084        3.66933151784750
C            0.06841280007934       -2.19518292798062        3.64912501015845
C            1.30169963309065       -1.56399040519868        3.94505968385669
C            1.25832673941771       -0.19242619978226        4.25252219536170
C            0.06519262058158        0.50983644747441        4.27720895898066
C            0.07193761203387       -3.56633633445984        3.37394337904483
C            1.26376620245128       -4.27120403518101        3.40991139858883
C            2.45371901389796       -3.57276536626206        3.73701466121478
N            2.46743321837845       -2.24767326254900        3.98312248235008
C           -1.12919137216669       -4.24620112485327        3.14732717844763
C           -1.08122064884128       -5.64751395347111        2.94441857547839
N            0.08330885648271       -6.33329583563307        2.93586438700935
C            1.23149072740440       -5.67041694043618        3.17645278219017
C            2.45900346668718       -6.35642233005335        3.24934493178017
C            3.64725826471077       -5.70639460979857        3.57890768518644
C            3.63402301619881       -4.33659606799577        3.83032730055292
C           -2.33718243149828       -3.53447424246472        3.20614285551131
C           -3.51946888104264       -4.24739373805333        3.07802423449193
C           -3.51773392875353       -5.63807521457553        2.87734269162374
C           -2.31122813756212       -6.31362052529771        2.80202796865200
C            0.04520890197735        1.97620047190175        4.71860390548030
C           -4.82031705895970       -6.44154967220201        2.80404467047671
C            4.93649050972866       -6.52511394797536        3.67352691236013
C           -6.05991508062109       -5.54518504776457        2.68749710740815
C           -4.93892330831627       -7.27060104915099        4.09219871573055
C           -4.80320622206360       -7.38926539796944        1.59380452105683
C            6.15380964686531       -5.65616770720281        4.01643641392915
C            4.77261732966246       -7.58415200955095        4.77404806985142
C            5.19881981774587       -7.21772156668256        2.32747783106048
C           -1.09807943213411        2.75065847798634        4.04911139545194
C           -0.16074776205252        2.00954860354315        6.23995647003102
C            1.36755463089083        2.68320060340490        4.38340270137180
H            2.19102720189678        0.28731082716270        4.49032181003122
H           -2.07737415972768        0.36516905525648        4.00057871287937
H            4.53070510658697       -3.82233295677158        4.12628599605882
H            2.44714265010960       -7.41813057952271        3.06702347481512
H           -2.28380312050997       -7.38134314906120        2.66665710819875
H           -4.44341982869248       -3.70267206797828        3.16127349505700
H            1.62669390087940        2.54282146918990        3.33858777864226
H            1.28017081143657        3.75186177458859        4.57043069562565
H            2.18673479116941        2.31069895724546        4.99350383243940
H           -0.17829965222647        3.03943066682993        6.59321319921491
H            0.64540576828663        1.48562434325560        6.75006994512079
H           -1.10236369192642        1.53702837198780        6.51414990528653
H           -2.07311075698984        2.40855135246006        4.38827691767599
H           -1.02440964762545        3.80997715973954        4.28648701072511
H           -1.04644292483419        2.64288652341944        2.97059112103597
H            6.03147055307529       -5.17620885499721        4.98544862158131
H            6.31478047830000       -4.89185925629302        3.25951265865797
H            7.04837154136921       -6.27473417693074        4.06299851903053
H            5.29679625677608       -6.48250762745203        1.53124328649825
H            6.12097988428632       -7.79434674407796        2.37500503592255
H            4.39135470007932       -7.89683204096121        2.06469664453357
H            4.56770119088455       -7.10909653983973        5.73186970475501
H            5.68458905887439       -8.17060530139836        4.87130303435132
H            3.95497817976482       -8.26573809612086        4.55136125352593
H           -4.66555773979111       -6.83139497214296        0.67058294234060
H           -4.00528874412614       -8.12322202482847        1.66890445227237
H           -5.74555253144667       -7.93086338740171        1.52795118061755
H           -5.85790272092922       -7.85449861757886        4.08293024799832
H           -4.95607753084257       -6.62018987336196        4.96497423183960
H           -4.10088662742663       -7.95633166242330        4.19657449287429
H           -6.17170964467654       -4.90950738673287        3.56335461793826
H           -6.00244902898642       -4.92133864458607        1.79932098914304
H           -6.95634058441918       -6.15835991671051        2.61137838018041
O           -2.34625057692745       -2.16998823176111        3.43275021699181
134
 energy: -186.466537039399 gnorm: 0.007001218375 xtb: 6.7.1 (edcfbbe)
C           -1.31501056334879        3.80449159646283        0.63703132061328
C           -1.22172613586508        2.42966368453117        0.51103733647730
C            0.03521042722231        1.83101397998375        0.65155005871244
C            1.21587744533944        2.57673065338513        0.89913462842686
C            1.06796549960683        3.97045983822046        1.03062611236642
C           -0.16956504353679        4.57783341198142        0.91159028987608
C            0.14377068936047        0.43630430887188        0.56292244247807
C            1.37949848403233       -0.17193203305169        0.68767847978956
C            2.51401371043708        0.65065083804874        0.91470938098636
N            2.41792569087690        1.98138145324978        1.02510359305042
C           -0.99872618871522       -0.33722139740302        0.31920141065852
C           -0.83945418843970       -1.74165040156823        0.20661717182624
N            0.36330852873208       -2.33248205885275        0.33187533385176
C            1.44939011731340       -1.58293087928296        0.55675296723208
C            2.73293343130978       -2.16619086919582        0.64359520506447
C            3.86961167276036       -1.38943610257790        0.85323636408361
C            3.75943567892109       -0.00629378337403        1.00322930770045
C           -2.23550038815799        0.29959684868753        0.16584024326791
C           -3.34064339184952       -0.47862123595644       -0.11252940232901
C           -3.22314295261709       -1.87954374733261       -0.23773243132340
C           -1.99723594631669       -2.49385439462960       -0.07208556797117
C           -0.25772437155552        6.08852667242833        1.10648047494654
C           -4.46997208471200       -2.67874982986055       -0.59797054870185
C            5.25851883757668       -2.01140064193647        0.91827984830496
C           -5.60040130792768       -2.35689891337336        0.38782283150574
C           -4.21833650361119       -4.18850771387143       -0.56501012453311
C           -4.91091618782771       -2.29886763325809       -2.01866899678222
C            6.13384387300229       -1.41917974991652       -0.19541625175723
C            5.87738929732416       -1.69270474078930        2.28535630724423
C            5.22470191959771       -3.52999345597645        0.73517692190916
C           -1.66871342312837        6.63583364946542        0.88002384365422
C            0.16322487848608        6.43275214730929        2.54271797311202
C            0.68830801723730        6.78829817874817        0.12087718268085
H            1.95599039870814        4.54332392993899        1.24267837589259
H           -2.28697708113311        4.25728115642566        0.54049900287022
H            4.62977199095895        0.60611085589547        1.17743924637383
H            2.78804836081474       -3.23526770400383        0.52806808611446
H           -1.87367797479054       -3.55884232996819       -0.16418354115316
H           -4.29411444046695        0.00898104525925       -0.24121969516698
H            0.42889020222622        6.52972223764992       -0.90309344400741
H            0.60927379500555        7.86773556712973        0.23465790831914
H            1.72251380294614        6.50646115796811        0.29333253672163
H            0.12082943653297        7.50980155144693        2.69382988759011
H            1.17602502634388        6.09882128558539        2.74888967835802
H           -0.50682797457348        5.96040596083176        3.25750564294834
H           -2.37198228920552        6.21478772282106        1.59436826372938
H           -1.66421114859596        7.71592538055477        1.01397298689197
H           -2.01086072564261        6.42423954140289       -0.13009070770220
H            6.24560818296710       -0.34450236469016       -0.08521481943516
H            5.69509858791195       -1.61942322258331       -1.17060329446475
H            7.12445862691052       -1.86884368720266       -0.16491512099533
H            4.82847423371687       -3.79507429835103       -0.24271676417524
H            6.23638933941912       -3.92741563177509        0.80347452254797
H            4.61766651235264       -3.99829642581290        1.50642980834509
H            6.05714169106123       -0.62750888028316        2.39718108362219
H            6.82953779915925       -2.20904270600350        2.39529909707712
H            5.20532750033442       -2.00521930795121        3.07970068219581
H           -5.15223033766907       -1.24177577931773       -2.08797502302393
H           -4.11990084566197       -2.51833932034044       -2.73227094290536
H           -5.79413948734226       -2.87089744322553       -2.29699824203508
H           -5.14717070004257       -4.71577822117782       -0.77866064720769
H           -3.85907457045180       -4.49950382601040        0.41305551079604
H           -3.49208750544615       -4.48144513654888       -1.31925048368545
H           -5.27050196271604       -2.53489502281869        1.40743422260926
H           -5.91947152559606       -1.32208220650842        0.30863246739799
H           -6.46378338972440       -2.98729179189895        0.18196317422496
O           -2.34049016811284        1.66697785090420        0.27375883543191
C           -1.14321153741322       -0.16384299578951        3.97134452715820
C           -1.15123205149773       -1.51074399189553        3.66037748874835
C            0.06954633329376       -2.19388914432938        3.63677606138118
C            1.30543152184870       -1.56362435415417        3.93438186881153
C            1.26125561157085       -0.19067388995414        4.24363243908730
C            0.06487295490454        0.50195731516576        4.27076413690444
C            0.07932405383714       -3.56785796511636        3.36064962302044
C            1.26917796300418       -4.27292137337449        3.39980748557319
C            2.45546481184459       -3.56773119100885        3.72724024609438
N            2.46217623855347       -2.25084084881844        3.96815350608497
C           -1.12799268157062       -4.24445499037936        3.13924442544056
C           -1.07836419855467       -5.64980912189143        2.94587069638423
N            0.08402946673301       -6.32682429715850        2.94240934801048
C            1.22946333127891       -5.67455257640411        3.17428855587843
C            2.46015272867757       -6.36248951011655        3.24847214779409
C            3.64597784585308       -5.70448456394382        3.57879904103796
C            3.63906161419653       -4.33396130917749        3.82749133688212
C           -2.32992904709498       -3.53229758015978        3.19972849908806
C           -3.51558041703979       -4.23458638536262        3.07755750981933
C           -3.51078751112535       -5.63061606499577        2.87756228398036
C           -2.31060362155653       -6.31472941554499        2.80385708422530
C            0.04122147969836        1.96095670044597        4.71936275919509
C           -4.81022418354982       -6.43007983933682        2.80662537236532
C            4.93046274430356       -6.52067214628720        3.67522566435178
C           -6.05300994418279       -5.54432177236984        2.69107645592498
C           -4.92780309827957       -7.26109158903297        4.09313769903035
C           -4.79544836176074       -7.37711070230422        1.59830779473802
C            6.15155903770034       -5.66307308352471        4.01721735816077
C            4.76665263011741       -7.57872861891676        4.77472753691665
C            5.19348268137151       -7.21263014698132        2.33076626208198
C           -1.09898323647153        2.74185856264225        4.05957467102638
C           -0.16434816572896        1.98772686835355        6.24141667424864
C            1.35856577611322        2.67561676338374        4.39519876475930
H            2.19591097347435        0.28686277996310        4.48097864793622
H           -2.08633837102733        0.35707929542241        3.99878002733724
H            4.53318179990122       -3.81631411537040        4.12867256326365
H            2.44428043619968       -7.42562173256260        3.06779830822668
H           -2.28070074306497       -7.38319878495221        2.66837676909000
H           -4.44017422635517       -3.68897210792990        3.16214998976046
H            1.63084879295268        2.53937100615517        3.35396522750661
H            1.25212612166642        3.74220380853062        4.58246220229720
H            2.17268768965633        2.31388443015336        5.01674750381352
H           -0.18048934741793        3.01832920665386        6.59138770737141
H            0.64304547053608        1.46337087124485        6.74680437570235
H           -1.10570310628766        1.51550906608147        6.51280791041743
H           -2.07304791583661        2.40796882476701        4.40632364338206