116
 energy: -22.819950569805 gnorm: 0.405321807236 xtb: 6.6.1 (8d0f1dd)
C           -0.00641576737517        5.03492964690014        1.87593174267155
C           -0.10349543850126        3.74635569702577        1.38850829490969
C            0.41852555992144        2.65923910237151        2.09219869878581
C            1.46976552379812        2.77117896928501        3.05657617535553
C            1.48989813285304        4.07258902496808        3.64237233734297
C            0.81516472460363        5.16285037215028        3.10357247407710
C            0.08557890403996        1.27377581288276        1.75020888251042
C            1.12250474526391        0.31110518061025        1.84322449680407
C            2.37550959777239        0.75998401574666        2.56051041527291
N            2.58135695209880        2.00687245240130        3.01366346626730
C           -1.17288250468454        0.79917209293631        1.28585532734053
C           -1.20488064114965       -0.52760297443748        0.65581207639652
N           -0.04438931923880       -1.31413312270790        0.58340287971528
C            1.06917077413434       -0.91933524961525        1.16724509291322
C            1.98363069134776       -1.94598667780605        1.42526879451162
C            3.16304655293445       -1.56694930067414        2.17800362318221
C            3.23653606831731       -0.32151568049792        2.82163581471709
C           -2.48514491172331        1.46622496609826        1.49825849549971
C           -3.67263384347137        0.92193714986888        0.94357885986848
C           -3.65256546735420       -0.19292987661496        0.16554079647299
C           -2.47503412736922       -0.84692621161687        0.06863286150462
O           -2.52993503633386        2.57950351703777        2.44956314771582
O           -0.75900953956443        3.62881261134611        0.22146646252104
C            0.67651042645358        6.37241151142586        3.95231801372619
C           -4.85348093228907       -0.51547416526241       -0.66707004417841
H            2.23224238074841        4.40121109279689        4.28595032103271
H           -0.49814892739942        5.82152314577902        1.31517185037193
H            4.08886015526154       -0.23429566804633        3.35828529915167
H            1.90854492248516       -2.88421785373799        1.01961770662311
H           -2.64938330316667       -1.79703894765429       -0.42784613738052
H           -4.58217269041088        1.55785203192065        0.83917086560173
O           -0.13451629787110        7.10564206774498        3.48973760924571
O            1.45261604570953        6.55948880988021        5.01027396714699
C            1.04126010832731        7.79056498881890        5.51778461725627
C            4.18691369088711       -2.61929851144348        2.29848841936237
O            5.35437640665516       -2.31089624851800        2.61018834793474
O            3.57523138060157       -3.83812275331956        2.24161229438403
C            4.53873586730769       -4.77228994579608        2.64366982726434
O           -4.77489155010148       -1.60335176523959       -1.21416823122315
O           -5.94418439994795        0.42051305908153       -0.70560996332635
C           -7.00138912993885        0.15718277342758       -1.60415204334688
C           -3.04916479305191        3.69862200200798        1.89009115945352
C           -0.33446218252197        2.62075914608935       -0.73959505853453
H           -7.05963704722418       -0.93506621100324       -1.86409078829196
H           -6.68571926656343        0.45155658792766       -2.52479793761837
H           -7.99001034198713        0.66144967050456       -1.40408345047527
H            5.14761752821003       -4.25948360934739        3.41860798097391
H            5.34058930164943       -4.87542338527615        1.86367626227793
H            4.03970427278193       -5.58793722044122        3.11028742382187
H            0.38550497667761        2.94495398276273       -1.52070328018366
H           -1.24884406506956        2.35257659159000       -1.34193376621435
H            0.21038148702528        1.75818287509276       -0.35696315420610
H           -2.89471981773907        4.38263182768877        2.76027809998599
H           -4.08585969999730        3.60300972374574        1.58629914083010
H           -2.37860765961643        3.93069456784431        0.99752896530586
H            1.90619813422223        8.26528143178968        6.15366076525694
H            0.25230363733110        7.61351105632051        6.21815457114157
H            0.69603456672151        8.46896694901520        4.64891689182832
C           -5.31354391612805       -1.54579242529626        3.06431420787823
C           -3.90313702993266       -1.55279218226053        3.25750021468890
C           -3.28659859232574       -0.57712707032199        4.02633908998911
C           -4.08908347647218        0.58895555260872        4.35292439899228
C           -5.46280128187712        0.66892849693627        3.91750193585796
C           -6.08612108436239       -0.41244450509743        3.30363254317738
C           -2.02820336849913       -0.56243249079104        4.68059308304358
C           -1.52198206659339        0.60074049053023        5.25258434830884
C           -2.37009715871331        1.68528788166873        5.40602670135186
N           -3.66164457601682        1.68504896237234        5.02248417625744
C           -1.18223423156806       -1.73998645213282        4.85497289499389
C            0.25374869688229       -1.48783187148284        4.91831393709300
N            0.74447843078507       -0.18874445208531        5.17523872338743
C           -0.17527745388769        0.69874597383109        5.53231337402391
C            0.21124988649774        1.74847761506854        6.33733007370741
C           -0.60214219780212        2.75082784594240        6.69579912632817
C           -1.90328479536735        2.80929683847118        6.12275009761397
C           -1.61025862856148       -3.07536063850077        5.08908525902678
C           -0.71939059646903       -4.19935812051574        4.92582866267946
C            0.68949741402225       -3.86447786190269        5.03774835908728
C            1.13327601033728       -2.48437510703791        5.17318479523442
O           -2.85359670952951       -3.36058610903604        5.64404912671640
O           -3.05377315138471       -2.51062193491404        2.79684993329832
C           -7.57813178286077       -0.27550986944810        2.84312623573003
C            1.62826890441914       -4.93623632067120        5.34653091524182
H           -6.15619383589789        1.52048593774112        4.25135054888644
H           -5.74161063747678       -2.43912342570755        2.71458787678690
H           -2.57832818507520        3.60292487064503        6.47564394448012
H            1.20473900893155        1.52876729778047        6.72738997956329
H            2.12030716007113       -2.23629177113104        5.47530265671517
H           -1.03315065494427       -5.20469273815025        4.94746682127231
O           -8.18167770104623        0.76086359928971        3.15038137494040
O           -8.20693841985710       -1.30369455418157        2.11735417799957
C           -9.57048510981048       -1.05766645600828        1.96210030440254
C           -0.08383745765692        3.61837868799509        7.72296958840183
O           -0.71588406375061        4.57973490750526        8.24855151839162
O            1.19372954652011        3.41067050763902        8.10096202101331
C            1.82915917504042        4.70289146872222        8.40541731018600
O            2.66614484731163       -4.72411786973377        5.91829956577878
O            1.27441006321048       -6.24465198466328        5.02542961564242
C            2.31920176408958       -7.17701480030800        5.41309912264404
C           -2.94523372897415       -2.95603838037954        6.98727028871015
C           -3.69238186329806       -3.47361270070870        1.96224316039816
H            2.48489898244553       -7.60655416555598        4.44407848663108
H            1.84979262010714       -7.86592731382122        6.06041904107196
H            3.21357988384350       -6.67003366340841        5.74767169387844
H            1.35099518633698        5.56537266184227        7.93786966668688
H            2.80715727909805        4.60442322296347        8.02060149820978
H            1.96994740922940        4.87449688635081        9.52214804289797
H           -4.12297168086604       -4.15532766810856        2.68056656313203
H           -3.11253864377479       -4.13923881836331        1.23846978358883
H           -4.55186255417143       -3.01417528774742        1.44252310111640
H           -3.26830653980317       -1.91100844139281        7.04225582144371
H           -1.86124920787913       -2.86304138698894        7.33400204731735
H           -3.68682800653518       -3.62866303370040        7.45784849118652
H           -9.97652048816870       -1.96195930845658        1.52463808321684
H           -9.71403520945018       -0.19573971354412        1.33059828241269
H           -9.96945749746596       -0.96048607014931        2.96119354481460
116
 energy: -22.693683676147 gnorm: 0.494602664522 xtb: 6.6.1 (8d0f1dd)
C            1.11011978246194        5.35457082208037        1.73370872406759
C            0.60205933214483        4.12121280800993        1.24394017103168
C            0.64853629921762        2.99341909498773        2.23736871697146
C            1.63636194959244        3.33339051764284        3.30357677111572
C            1.64647583065243        4.62227311596475        3.88016124939975
C            1.40561952192372        5.71157907989017        3.13118926635750
C            0.37363813336547        1.58072797813844        2.02642236908760
C            1.43767648320359        0.70043525392560        2.25929154158176
C            2.54374206224426        1.22430784182488        3.01945615986358
N            2.52866748927725        2.37671138749800        3.74086349869963
C           -0.81909402588135        0.96129177073982        1.57267785587211
C           -0.76844392742849       -0.39134737144587        0.99436853316830
N            0.37230431760099       -1.08286926460119        0.86035522153796
C            1.41647208490473       -0.53049658137431        1.57170955548448
C            2.42515260350403       -1.46258614025393        1.83397794003690
C            3.44929729609548       -1.05968957244053        2.54680913893325
C            3.57039156448895        0.23649993834353        3.16076546397765
C           -2.12292808771036        1.53784401142628        1.72417404453135
C           -3.22876093027879        0.90805150763611        1.15182795938062
C           -3.14123286709057       -0.27903606150243        0.58139247211684
C           -1.92642842792976       -0.95765249490003        0.37653785773184
O           -2.05491567210691        2.63969506481617        2.53590984741052
O            0.07200021097574        3.83480018615914       -0.03347213236162
C            1.39087184945405        7.19155635681388        3.57076673645726
C           -4.33379965688128       -0.72850393697499       -0.01426568506607
H            2.07764545164830        4.81101779537597        4.80560945393549
H            1.51862761246816        6.15004009926554        1.09522623910470
H            4.51628247544037        0.48361920635268        3.63181070637816
H            2.55576395932865       -2.40617147117612        1.47865773034311
H           -1.83155133502772       -1.86801484631216       -0.03034070033542
H           -4.27497695829462        1.41689103860028        1.15304124773323
O            1.11712042268338        7.98554517487584        2.69399764727139
O            1.79973160052429        7.64001595320655        4.76797141751440
C            1.69186721156112        9.06916508635558        5.25598417187320
C            4.47375801429635       -2.14643940346496        2.84223901408124
O            5.27128628010971       -2.15301133069154        3.76490715379405
O            4.43962282678602       -3.33080178341102        2.07029921139107
C            5.56976720969497       -4.15838956635827        2.45261826520445
O           -3.97446300188310       -1.34339613091860       -1.08563717761926
O           -5.67370335535929       -0.51949249652936        0.29713906991372
C           -6.53118240617074       -0.71602975819391       -0.94504985210786
C           -3.29878535785474        3.31073984799929        2.91512977411932
C            0.92205732962633        2.87853158503689       -0.77489932837866
H           -5.86624986912407       -0.57973973884881       -1.86421944732490
H           -7.32851949918006        0.07956370413962       -1.12103615522287
H           -7.02628801938907       -1.63557981191814       -0.73656915503199
H            6.48341595339044       -3.53196891685693        2.58307832896248
H            5.93994121907221       -4.70238998229057        1.51166508896918
H            5.28716539948419       -4.95997695373365        3.06304157397300
H            0.92738120053088        3.30333744487245       -1.80305321327057
H            0.56256308099804        1.88142413393452       -0.62863947601893
H            1.99880990923450        2.98879332377675       -0.40843996910295
H           -3.91372460039773        2.75553844691653        3.67765023943957
H           -3.95045512345131        3.43439800089764        1.99795987174472
H           -3.05566214605337        4.27546794997514        3.57626511349332
H            2.74887819027356        9.48580815874390        5.23528051842542
H            1.16070310954382        9.06805959958393        6.21641422954178
H            1.07670026928914        9.58565900417751        4.56663523253437
C           -5.83041270934583       -1.50687297170944        3.14008176756060
C           -4.46301115551086       -1.60932272635456        3.40730494668213
C           -3.82442463819464       -0.65908748186048        4.16995476946331
C           -4.60648192715635        0.41024084489312        4.53304207482964
C           -5.95596276412152        0.50114411123022        4.13206539278660
C           -6.56762883680461       -0.45332901267476        3.42608220122752
C           -2.57760952430904       -1.01729502168926        4.92289318767139
C           -1.91938703774924        0.22701297287851        5.17552822025431
C           -2.72620029781470        1.38832799519322        5.44760894389072
N           -4.08706456473446        1.38004274583587        5.36928928698737
C           -1.64057696811151       -2.03010618910099        5.05971087004268
C           -0.28068086730897       -1.86767578094422        4.73376090865453
N            0.30210080882352       -0.71273391662813        4.94881631272520
C           -0.50892961973986        0.27198206297581        5.16471289845969
C            0.10107002690060        1.50111749421140        5.59816694279140
C           -0.71115283278133        2.59453449258908        5.95043187310897
C           -2.03323118141638        2.44968169506765        5.86658001319246
C           -2.12281064449157       -3.37580629423926        5.17125007504150
C           -1.30790222896228       -4.42228676717015        4.93203095224709
C            0.08169915377178       -4.30508261080826        4.66153978809084
C            0.58736315454517       -2.96994952024059        4.56526827962208
O           -3.45625962512901       -3.65486513967844        5.51483402741427
O           -3.73064703815251       -2.66580219073750        3.05864489037856
C           -8.05390569976863       -0.32538612333022        3.34613994635753
C            0.94463672405925       -5.49169717596390        4.49418712007837
H           -6.38581005579382        1.34236198218964        4.59511106758297
H           -6.38009214461730       -2.28679710981570        2.49185024489654
H           -2.57860037418238        3.29436539137262        6.11659977515762
H            1.08214792270476        1.76874176127316        5.44144582293107
H            1.54851008830947       -2.79605667575497        4.39976307646396
H           -1.63801833255854       -5.35408120993725        5.11069473646186
O           -8.50925334480927        0.70280779999765        3.83299843107146
O           -8.59988075208568       -1.47394532206568        2.76964617159834
C           -9.99984821908551       -1.79631102802650        2.82181197366557
C           -0.30136062938089        3.88361333037486        6.55525902824751
O           -1.02948017022138        4.84199563327522        6.47750315749470
O            0.93131175670662        3.92816717318165        7.14946647013149
C            1.46104995864757        5.17671739202180        7.45069339629281
O            2.16349827378535       -5.21884243990227        4.37164798126195
O            0.22971483470111       -6.66690709302210        4.50214027221431
C            1.12399585287589       -7.81398670258698        4.20374006931895
C           -3.78039480966261       -4.48018302198254        6.71332015395037
C           -4.35105539119958       -3.63614080181243        2.16726806380760
H            1.83199631165626       -7.73990096760873        3.34286911643727
H            0.53612217183855       -8.81347298949029        4.11480414059597
H            1.84251958004965       -7.75826854204850        5.11943193144919
H            1.62201354844182        5.51664881942185        8.52106029291686
H            1.00570150051347        6.05175866484109        6.82583056808577
H            2.51982456384755        5.19095608997772        7.28424396766339
H           -3.83805348014505       -4.54978333060367        2.34709414056111
H           -4.29156533988264       -3.09156639661219        1.28845543144468
H           -5.40947667109964       -3.87791979899129        2.50026298719463
H           -2.75484918605719       -4.95837486764085        7.14969759638512
H           -4.52444477193217       -5.28644712816480        6.53901757673855
H           -4.21683478867937       -3.91543178266206        7.56707147324015
H          -10.63365606729189       -0.97235541461910        3.15099744120137
H           -9.94502049318633       -2.64133501270850        3.59673803327691
H          -10.06583956327139       -2.21751324854383        1.81796305018673
116
 energy: -22.779228033792 gnorm: 0.446250103815 xtb: 6.6.1 (8d0f1dd)
C            0.87578278350750        5.65898907972181        1.60125266729257
C            0.43408698828404        4.33450714857514        1.33467878603307
C            1.11318729400893        3.31593681579190        2.08315413094179
C            2.28148186620314        3.67837965751648        2.83720177430317
C            2.60224762937584        4.99691779612493        3.15040540907052
C            1.83544269956900        6.03054958823593        2.52522146107405
C            0.69926525647006        1.90565496124454        1.93330494397455
C            1.78447150655945        1.00588300528200        2.28578462190890
C            2.94787792268287        1.47434381807015        2.91915586551269
N            3.07859517371633        2.74020957779470        3.27973043879057
C           -0.57778351899907        1.33695368420494        1.76423688511480
C           -0.56486037565243       -0.12100619121925        1.81037987530271
N            0.46774871633680       -0.97913196005255        1.88307980565228
C            1.59746401985554       -0.37686726942213        2.21190192369657
C            2.62265949987552       -1.20573609327875        2.44775784355285
C            3.83325528830299       -0.80742009502704        3.03493740435698
C            3.96052930572154        0.53907695839320        3.30803362018985
C           -1.73315699367476        2.07753235835794        1.87596640007051
C           -2.92269922893072        1.46103578745269        1.34886246429154
C           -2.90112889065879        0.09344828814008        0.95775448966363
C           -1.80366974502051       -0.69953836084882        1.45463062189489
O           -1.93658772708215        3.40725658712214        2.41835777143201
O           -0.28861860994735        4.02037278835012        0.19573218249923
C            2.36599141282272        7.43834024527257        2.57362729388182
C           -4.05966130872323       -0.50830998679943        0.35294556938195
H            3.33324435385272        5.24213356891583        3.90859249570315
H            0.57123546219845        6.56367336978632        1.07938533204000
H            4.85171761549831        0.91129684289085        3.73231345556930
H            2.21690895425054       -2.19390822124278        2.51911227512235
H           -1.93198622162369       -1.71420860281712        1.64305101650502
H           -3.80463384379940        1.91276537751494        1.02563652569778
O            2.25436090777802        8.21709446450303        1.64116149942479
O            3.24680128282026        7.80129043575510        3.60343427395708
C            3.79525936281127        9.07790112244078        3.59783067508705
C            4.61530528576574       -1.79935124638770        3.78344100921963
O            5.54678449408286       -1.35359848885245        4.46013180109490
O            4.23528429477333       -3.16789368960722        3.63793260762753
C            4.98151465780026       -3.90074703189545        4.40687457460566
O           -4.05600192189861       -1.51631535742234       -0.29761954153834
O           -5.14284665381408        0.32454976945527        0.53580139353242
C           -6.23487499248098        0.05678489167909       -0.30208872019137
C           -3.13022908653300        4.02207153578737        3.11862304973024
C           -1.49624859764358        4.80886083751746        0.10236415905726
H           -7.14063338614679        0.65256647986854       -0.21281399106923
H           -6.61099848634537       -0.97415962679148        0.06233838930863
H           -6.05262159798980        0.19484925677474       -1.38337906452935
H            4.94816319037023       -3.45963334184546        5.42229613153463
H            6.00676965390841       -3.96849214931277        4.08840142910343
H            4.31942009701959       -4.87184897483762        4.27237611561409
H           -2.00083524509006        5.12547710222337        0.98941996972706
H           -2.15816397297131        4.12441341704119       -0.51674178110764
H           -1.32080691991487        5.57554174882053       -0.59905953267863
H           -3.33664731316647        5.01050337547099        2.56685224123002
H           -2.75426774143113        4.54310188991644        4.00912539120047
H           -3.89956395357056        3.39096767655903        3.38998320097333
H            4.65884662812128        9.24581736823331        4.28355144167976
H            2.92787792119844        9.74209626094421        3.67965717353897
H            4.23020239703169        9.12176922613565        2.57238116137083
C           -6.06760284842069       -2.23185508654202        3.17174448749984
C           -4.72751256798166       -2.31342074361985        3.53391314714950
C           -4.12800484435191       -1.31950623215167        4.37931116110057
C           -4.84990030418687       -0.14160523936298        4.63641708226370
C           -6.16919286776614       -0.08169902298845        4.22360604183961
C           -6.80216391268845       -1.13181110046232        3.68772191336817
C           -2.80626705799597       -1.34030201788295        4.80047928846808
C           -2.20001326948916       -0.10103420802900        5.13870756125131
C           -3.00905473998517        1.02259101318954        5.39512227747567
N           -4.33588486118519        0.94032752328669        5.37019192884270
C           -1.90250000627316       -2.40676611496090        4.61543204678155
C           -0.51442715621192       -2.20762716990292        4.55725573512527
N            0.05201582106820       -0.95630030104882        4.76681204918141
C           -0.78865376774110        0.05090713800449        5.13530015077593
C           -0.24887238680263        1.34721598448305        5.32363530882174
C           -1.02558677577070        2.29958101788751        5.89115023093522
C           -2.41204255129286        2.18305269153107        5.94063827558704
C           -2.51619932723704       -3.73735088047062        4.89926300764882
C           -1.62680700600526       -4.81270982182147        4.52477784628333
C           -0.19454069109833       -4.61795199767624        4.42615917109399
C            0.36349115741386       -3.32377940048702        4.55355734864587
O           -3.84048091657028       -4.13433457195600        5.35341899846111
O           -3.89659602295242       -3.17755023726849        2.92921867007362
C           -8.23956348401052       -0.95468114343974        3.52283226997303
C            0.83040413588455       -5.63517101755725        3.98384162275979
H           -6.75082933995603        0.82113635379452        4.42410409330051
H           -6.38965832756663       -2.98861918698757        2.39119941758748
H           -3.06514357110639        3.10189430533741        5.97413346654887
H            0.68725281970231        1.40324512738534        4.87628841107286
H            1.37377804700308       -3.23125967766807        4.60634444254207
H           -2.03051448540151       -5.71200325217782        4.40221560337921
O           -8.63476603706338        0.11857925503542        3.86468553934496
O           -8.89317535210581       -2.04118353623874        2.89744950818346
C          -10.17283415826510       -2.29976572779325        3.39571132803701
C           -0.39807883150180        3.58398326755612        6.15491508891330
O           -0.78330652173941        4.63427729652300        5.68100109903100
O            0.74626663122121        3.62283740621575        6.94922147378897
C            0.90291383505757        4.96683735198775        7.18058479322426
O            1.99658856659010       -5.42586806451565        3.81393695115266
O            0.20802597678766       -6.80934441062859        3.77325433359832
C            1.15716352905398       -7.81658277144219        3.46421511329806
C           -3.96813178911075       -5.48610110456160        5.36619639465326
C           -4.43347279868198       -4.32223473941549        2.19295998926270
H            2.09452362579854       -7.50422341039684        2.98624423342137
H            0.57835847225000       -8.53343984686971        2.83764288024434
H            1.55295832073954       -8.20812825056628        4.37699051809597
H            1.94367146503022        4.96682514513555        7.58288759217587
H            0.11188813568154        5.33709271282083        7.83195315566637
H            1.10631422699022        5.40342680600753        6.14225563521218
H           -3.73973136091204       -5.07319807391984        2.46362444749787
H           -4.23035712216092       -4.06685556536633        1.14721812512674
H           -5.44991939024037       -4.45348044176944        2.40977243182125
H           -3.07817842140950       -6.17339803375870        5.80513879986797
H           -4.21565618484549       -5.64964299123642        4.33839543203481
H           -4.92979808717388       -5.72477388915037        5.89711898140807
H          -10.16507590877104       -3.39201654026540        3.45378654425145
H          -11.02508976371764       -2.08378960402282        2.66206211431371
H          -10.35807282508231       -1.96152245805907        4.31294586137557
116
 energy: -22.804909235482 gnorm: 0.430754686372 xtb: 6.6.1 (8d0f1dd)
C            1.14886590578475        5.89124736506861        0.79973035611666
C            0.62058003041668        4.63182917891395        0.61765601712496
C            1.03927374537952        3.68501268520134        1.72238198522198
C            2.24463564494485        3.98740862566274        2.46925621290660
C            2.62337702645685        5.25793921044965        2.57872204791507
C            2.00981577258847        6.18782111199457        1.82482080215342
C            0.42368810784241        2.46054758970988        1.96829286598802
C            1.29031044661397        1.50486253566731        2.56987732409078
C            2.42929144736171        1.89425707609858        3.27709156204144
N            2.96251266239557        3.19229305356101        3.24163998398585
C           -0.89696377790955        2.03366087351443        1.67727344924261
C           -1.23478427849308        0.67697307035422        1.70785409373935
N           -0.27804858221824       -0.20618172058815        2.03465551764388
C            0.86143701723838        0.12220148365579        2.62032774892854
C            1.67994655464975       -0.78331050601688        3.29223954366566
C            2.89172881052672       -0.38762053327664        3.83401012341233
C            3.35581511282090        0.89333432099267        3.76700064491171
C           -2.10626087839439        2.94921424687743        1.73393244622268
C           -3.39647258099984        2.38818661750684        1.59154971019852
C           -3.58629979589874        1.04683600762030        1.31891484027137
C           -2.56495484077292        0.16619475856266        1.43171576756019
O           -1.85811149737146        4.27399883865464        1.96511956347911
O           -0.28529666102838        4.35631894162326       -0.41842421842011
C            2.56408393838531        7.54779918596416        1.94510742996384
C           -4.99705799271351        0.61826372354639        0.94407237834071
H            3.42436297012710        5.48479253606957        3.27004749431393
H            0.61336270918677        6.66853743107251        0.20900970781533
H            4.37909278050639        1.11321284664615        4.12041573608063
H            1.67942489271672       -1.85060714855308        2.91226596966350
H           -2.63572153031145       -0.91423958016977        1.33471143590260
H           -4.17177049346774        3.06927129449897        1.61538066746982
O            2.08777401958953        8.47581454363053        1.32644916283482