116
 energy: -22.928061455056 gnorm: 0.329736929581 xtb: 6.6.1 (8d0f1dd)
C           -3.31122850772930        0.79849766164622       -0.92477639677520
C           -2.44380812530352       -0.12270372891954       -0.27661132624697
C           -1.41337090092821        0.39579727573559        0.56335275196199
C           -0.89266158675590        1.65801491088749        0.27377586709581
C           -1.72665675402493        2.51431363229076       -0.49448366572522
C           -2.95444148494349        2.13954154133227       -1.01494489940871
C           -0.74098268209890       -0.43411532818871        1.49825021926784
C            0.56872586496315        0.03782116815119        1.86248088067890
C            1.03782416582094        1.29402317993033        1.50887470833621
N            0.31238977034758        2.07067427098208        0.65193736800696
C           -1.29695700510141       -1.39996043042223        2.41574187746061
C           -0.38243517664656       -2.18060797534842        3.13232615520648
N            0.91308504082021       -1.90366887689689        3.30325166013478
C            1.37712470144904       -0.74872102533751        2.81811050966982
C            2.52149331701875       -0.17739833758153        3.39379298866852
C            2.95849061756259        1.02681208890480        2.95105897606587
C            2.24288949469137        1.78498308775960        2.03503020483770
C           -2.74860936222260       -1.74497937691422        2.38401158947411
C           -3.09416315450955       -2.91614440870436        3.00571134491758
C           -2.16786021984049       -3.77788778654213        3.63251872101904
C           -0.85708937311598       -3.40495313382985        3.68547234358092
O           -3.71994433332149       -0.94984598373544        1.67726658385724
O           -2.55702603277562       -1.47241711578389       -0.57241635275616
C           -3.84297843593025        3.13357444054366       -1.60938954875544
C           -2.68769581069131       -5.03867041417370        4.30484659386931
H           -1.39666850744143        3.51251503834900       -0.76806311868865
H           -4.27662633836220        0.55105838579656       -1.33106614114542
H            2.66329581305412        2.73912661909249        1.72562431984580
H            3.05775395548473       -0.69369546277216        4.16536137542516
H           -0.24710966264510       -4.12034095424229        4.22946223699121
H           -4.11477991332403       -3.04712728052358        3.03244694615357
O           -4.21824883374556        4.03433712717988       -0.87713382485991
O           -4.44510595673734        2.90643496899600       -2.81853501752979
C           -5.44216520282800        3.83300025693726       -3.02488532025093
C            4.23586651889298        1.50004220933226        3.59165660008449
O            5.05927614697201        0.66079890002952        3.91714215179376
O            4.47001334453535        2.86385149488593        3.72605651435371
C            5.79457498613219        3.08584475587818        4.15829123132174
O           -3.82227255313510       -5.27347675879771        4.16636005494405
O           -1.85023202017753       -5.79767454267276        5.06656077253571
C           -2.55119635829503       -6.86252441382958        5.62930343183426
C           -5.07197156564436       -1.42399175670916        1.58830531863830
C           -1.33089900128490       -2.23622472573986       -0.99264499351172
H           -2.54510546830388       -7.76426885143998        4.99136022291012
H           -3.57194749219491       -6.44405511486021        5.74196173723541
H           -2.09133598235598       -7.02043774843818        6.64022264233588
H            5.72707967266424        3.46798026205549        5.10135971236643
H            6.34060091246885        3.78468702308830        3.50069950143490
H            6.17933064298187        2.03010500085905        4.19342358084693
H           -0.91862729772622       -2.57650129080332       -0.01361370304871
H           -0.49769766914251       -1.60651221708571       -1.34094446550576
H           -1.52632419730509       -2.94569707152159       -1.75361447637286
H           -5.11788846557077       -2.41810833635233        1.17520213188926
H           -5.67929807973498       -0.69619639428435        1.04301666067831
H           -5.57598832326623       -1.42383358739762        2.57928294206544
H           -6.13050215934830        3.76035386975488       -2.23272855695873
H           -5.86615610071888        3.45938329385866       -4.02668959924245
H           -5.13479557532099        4.87790991548477       -2.98314551356402
C           -1.38192942069774        3.73616555005018        2.91232598411686
C           -1.84821468128685        2.59982427735607        3.49755545445181
C           -1.05946531454833        2.05730632010638        4.60922730982276
C            0.19893954712228        2.69376791964407        4.86302140881997
C            0.50425395911860        3.94630308659851        4.28768785650746
C           -0.26031777722226        4.46998310053134        3.25072669343212
C           -1.20488993561782        0.74454293276906        5.14851520323437
C           -0.06287609782692        0.02744069315890        5.60930570802864
C            1.19208754369866        0.71421540266195        5.78882868583885
N            1.19428660993148        2.06344359410476        5.62744624321596
C           -2.41361422770794        0.07928500213936        5.25249410304426
C           -2.45851584031083       -1.32662100968547        5.60237876023992
N           -1.29466212405906       -1.98318595734370        5.89916817085159
C           -0.14475655767527       -1.32117560077092        5.98824682881008
C            0.97209270935794       -1.98958449505532        6.53157704134458
C            2.21982707914082       -1.36973967291181        6.68703967237737
C            2.30561929262884       -0.09745313075593        6.26436900324455
C           -3.73018485967715        0.71367583494582        5.25810242262992
C           -4.89964478833448       -0.06184623426677        5.21204641615509
C           -4.82617965800088       -1.39228978090841        5.46901303780036
C           -3.67144193418464       -1.98914944386360        5.67265433266067
O           -3.75568638935321        2.07705011038914        5.52067969627343
O           -2.94192434743730        1.91263938797883        3.01658762327703
C            0.21273512614467        5.50086066357994        2.34765104514621
C           -6.06660304520411       -2.17604633098929        5.80641622556876
H            1.41756699010566        4.38133362238595        4.66974005703471
H           -1.82880610647429        4.11982501512100        2.06992133318584
H            3.26888037378556        0.32655662585251        6.31721410015598
H            0.87146188387207       -3.08471526305024        6.57830423410869
H           -3.67716811065157       -3.05999292755990        5.83019634570050
H           -5.77379677507622        0.43595144608221        4.71017130754348
O            1.34459852619901        5.82615848916894        2.44941456579099
O           -0.74718748219123        6.07961784856304        1.59848183464284
C           -0.21473095568964        7.24015934882472        1.05753806029483
C            3.53228080814219       -2.00967610361154        7.02506769044485
O            3.64093082622715       -3.14437803815732        7.50071391725347
O            4.56565258381079       -1.22937033368332        6.69086985080897
C            5.72579357310716       -1.80692399125161        7.22246151275881
O           -7.04801223588612       -1.95726935745904        5.14194115322235
O           -6.01514389321278       -2.93743591896022        6.94765316328794
C           -7.21292732384718       -3.62681918543340        7.15115816329978
C           -4.95459780685163        2.65960679932188        5.86868674392943
C           -3.68284113682406        2.59129188358641        2.05479246020704
H           -7.43119628931628       -4.22607794725959        6.20622607140901
H           -8.06548455146707       -2.91765848248592        7.29781126410398
H           -7.07314693247270       -4.33087306029711        7.91223421050944
H            6.57332189837178       -1.29353136199234        6.78341268688262
H            5.74663761932316       -2.84282155125561        6.88089468184451
H            5.69426191474290       -1.72781984964892        8.29460302186842
H           -4.10481209541493        3.44288266176275        2.60483747673152
H           -4.49244774344916        1.87419893016926        1.82433103764650
H           -3.18901540870812        2.85154642679373        1.06781919454921
H           -5.55414326821421        2.76698137191684        4.93950725322359
H           -4.78658370641210        3.62090640967288        6.25983200635257
H           -5.43485580473958        1.97242995129449        6.65265772412460
H            0.89164886030839        7.38838561720231        1.13776105146914
H           -0.62894889903848        8.04195665205089        1.64837664327952
H           -0.59282546386754        7.45699159724320        0.03719083132488
116
 energy: -22.827211220222 gnorm: 0.411185832704 xtb: 6.6.1 (8d0f1dd)
C           -3.17504942121620        0.61488149625808       -1.54553457673575
C           -2.58420017462070       -0.20960984766819       -0.58271432711033
C           -1.66395310529200        0.36595149820287        0.37012733871735
C           -1.33737182640951        1.75938619577015        0.30920732969874
C           -1.92990174772022        2.52365356982586       -0.75317555310617
C           -2.84957011997873        1.93776688391827       -1.65758360652108
C           -1.12396951679983       -0.45144572285163        1.47038359176004
C            0.21179578335286       -0.07019269651719        1.79540335737110
C            0.57450923492948        1.34364442256276        1.57675550298759
N           -0.22126112107424        2.28466409788076        0.99833315393044
C           -1.64149300750679       -1.69899028520239        2.05838925722521
C           -0.74101025192123       -2.56041770183895        2.84319528516533
N            0.56121921640268       -2.09002444634943        3.04574794287524
C            1.03889626828546       -0.91511448746793        2.60512487589334
C            2.16670102277108       -0.33013161836777        3.18383783229561
C            2.59488821368919        0.97066793179074        2.98187694955884
C            1.68235261995009        1.79119655338502        2.29401243323935
C           -3.10403484308917       -2.01299835247268        2.05223436568249
C           -3.50534061563303       -3.21043734614702        2.61461810805460
C           -2.53055824288452       -4.17371264314751        3.11012662204381
C           -1.24489496651653       -3.78038506860365        3.30048103393252
O           -4.07153893580857       -1.06183112084702        1.72826326131675
O           -2.93891862812616       -1.58219205792421       -0.77946796372612
C           -3.11060169570035        2.73038823869550       -2.88765964694142
C           -3.00343061843218       -5.47513356722880        3.54896448019442
H           -1.66875869950105        3.55369291587636       -0.81512715522305
H           -3.47154441636618        0.00372771634450       -2.44357569466414
H            2.07349266040545        2.83181095901176        2.22902316823932
H            2.68362576948537       -0.84212117694138        3.99729265449944
H           -0.43549277240854       -4.47150886362207        3.59847696855637
H           -4.54525959681449       -3.31534181060637        2.84799841719624
O           -2.76806520697030        3.86183195169238       -2.99668727850842
O           -3.85767469306252        2.07957322540048       -3.87098676545056
C           -4.24752464131823        2.98965678877056       -4.89598632249233
C            3.82127075529190        1.34969932650687        3.60625793553340
O            4.55174471425249        0.60149087543034        4.30378424506048
O            4.24003359784978        2.56335835955138        3.30054396215236
C            5.55814401188115        2.82003758565545        3.73787472659127
O           -4.24848108976962       -5.69912850977606        3.53849070600442
O           -2.13324230938409       -6.48763135783940        3.87016769804766
C           -2.69039002871325       -7.70402453774046        3.41386161147282
C           -5.44905025601730       -1.32497374164292        2.12296608300526
C           -2.45138147098048       -2.33600514295808       -1.85929583585456
H           -2.03188714547368       -8.53037368902372        3.82788912613118
H           -2.89066358542173       -7.87062214222670        2.30264918423152
H           -3.70297639610248       -7.83350115171603        3.84223569935004
H            5.79409350717331        3.82257467049317        4.05060659538979
H            6.09695954164052        2.70454074875248        2.81916921536449
H            5.98582657827353        2.01277246668317        4.26243193129634
H           -3.12178625293580       -3.15915389442051       -2.11684039993655
H           -1.44669534136138       -2.74897350830876       -1.60256658764930
H           -2.40148761297591       -1.76415441944783       -2.71658727396746
H           -6.03592884140851       -2.00093361287344        1.63266726527503
H           -6.04464254990969       -0.46052129656114        1.91666226168301
H           -5.45836131685622       -1.47667379005748        3.14844407097732
H           -3.35393441949690        3.55212907956952       -5.04051449009974
H           -5.09415296910004        3.79187983328352       -4.70960607420893
H           -4.51275337708458        2.43687034344542       -5.87087621146431
C           -1.52333616080223        3.96287594512087        3.51462569267446
C           -1.68597770664782        2.77578191974624        4.19764981017340
C           -0.72162573878221        2.37928393070387        5.16040629663161
C            0.62240455276352        3.00577289651843        5.13487854836221
C            0.74851771496021        4.21646876760045        4.49044578026392
C           -0.30468018013710        4.67608478147893        3.65366012975616
C           -0.85486480031913        1.16231111046596        5.89721794044098
C            0.31996419034596        0.50911074394530        6.39723890956368
C            1.51980456255554        1.23273704708328        6.38505799647265
N            1.66906017274272        2.49992247713861        5.94379591169094
C           -2.18458201577008        0.56761352649836        6.21972814646878
C           -2.04021886445605       -0.83258581901894        6.56874576950892
N           -0.85735348167878       -1.50366695124148        6.88820225329089
C            0.30018799938862       -0.87180542390950        6.80605821833057
C            1.46138943421012       -1.57901311994499        7.10003427299612
C            2.58539969625598       -0.76652716565297        7.24497321617248
C            2.66878902716014        0.64449599482481        6.98785210893371
C           -3.47602034636778        1.22233883215071        6.31713628413398
C           -4.69462735809820        0.43746409508018        6.31899489990907
C           -4.54168941785445       -0.93679184918196        6.47206887045525
C           -3.28139569692754       -1.56158349429816        6.72116567272330
O           -3.44846510688894        2.58556905771009        6.73118682452731
O           -2.61329185275458        1.77269859142790        3.91951026272441
C           -0.11473567928342        5.75401396811713        2.66670142702836
C           -5.74772347387274       -1.79181038842058        6.31335312047539
H            1.71333400036244        4.65136941835454        4.38426187699454
H           -2.08065974841859        4.27000213250610        2.69033242979983
H            3.60876613549571        1.16397171298541        6.78040424088592
H            1.47751175867442       -2.56174058725336        7.15646546187896
H           -3.19462172871720       -2.65666500455003        6.75053049347356
H           -5.46590800770731        0.91189460612493        5.81986077599517
O            0.65508279777958        6.64711540025967        2.91292436431062
O           -1.05053341335643        5.81797939381162        1.67269646631606
C           -1.04368756594652        6.98295598699560        0.83045126651310
C            3.80637730457531       -1.69761281470254        7.30409807791889
O            3.79468830141567       -2.93218418180261        7.39054862143745
O            4.98624948150332       -0.97958597274861        7.19942759774121
C            5.99795566101247       -1.88630716284415        7.29284821844718
O           -6.84197052539737       -1.16318700379611        6.37089239254469
O           -5.68786036133427       -3.12029850660945        6.16866400609384
C           -6.96445998162070       -3.68758324284112        6.08414993079069
C           -4.64258197832875        3.22943853843650        7.19404806688859
C           -3.55630111628397        1.89970512830900        2.87112051491110
H           -7.86279227877679       -2.90772205325963        5.88145793062669
H           -7.10589168337626       -4.23061890870560        7.05035955407631
H           -6.90478104477519       -4.59778671737128        5.42653317079686
H            6.98132492081900       -1.47770082261268        7.48643006445582
H            6.15609372029109       -2.38378095222320        6.28494071685888
H            5.80923145835463       -2.58955157447951        8.19552203660728
H           -4.10221805563974        2.78526097311844        3.15660410115870
H           -4.16184813408290        0.97111671437694        2.90376447930984
H           -3.06667389545745        2.02436100565509        1.89759538038970
H           -4.37153140376455        3.97763612349016        7.99248469991983
H           -5.19124406004543        2.44463113868975        7.76791286676704
H           -5.05962208207389        3.61294251661521        6.30564654379848
H           -0.74282403270522        7.85695890474540        1.29554725158980
H           -2.11267868810869        7.07748977015392        0.60204114752655
H           -0.33979400418825        6.82747757098023       -0.08540472385440
116
 energy: -22.866521277032 gnorm: 0.382614309491 xtb: 6.6.1 (8d0f1dd)
C           -3.43056602962708        0.65724534836298       -1.52501052199299
C           -2.94839267203653       -0.12808439470225       -0.45343757086975
C           -2.00069431800476        0.44321176687096        0.52653856444377
C           -1.38693647566092        1.68168673225577        0.14500776982694
C           -1.84725738291006        2.35267108630705       -1.04361259453826
C           -2.89492958236152        1.90441279917443       -1.81414307154547
C           -1.38214078103334       -0.25874218324054        1.64411601643102
C           -0.06946293783782       -0.01218781440784        1.89506896343340
C            0.57689386714916        1.12072697962118        1.26086382499528
N           -0.05181775145581        2.01315842270148        0.40837892876953
C           -1.97637606177288       -1.30597971348454        2.35583863952734
C           -1.20395460221288       -2.16550655277770        3.14894016675955
N            0.13454191674284       -2.04803682883984        3.23305771667678
C            0.66003548842520       -0.91111685722022        2.69506169620347
C            1.89383012834384       -0.46813505382491        3.05135203828166
C            2.48797312874224        0.68959687333700        2.66588456782805
C            1.83475187971369        1.46102297821826        1.77845301473999
C           -3.39735278740468       -1.39211638555346        2.33588252448845
C           -3.88714380856489       -2.66739002411173        2.64548424570227
C           -3.05488385405749       -3.70947354473725        3.12556328853187
C           -1.73686011208264       -3.41643108756689        3.37094411040721
O           -4.22025350315863       -0.37187109913610        1.97948991197878
O           -3.33765029695404       -1.50709112897048       -0.32533026803973
C           -3.35790120990670        2.69264953326402       -3.00858400223545
C           -3.52758924494416       -5.10010118771730        3.45637135903644
H           -1.36522768406262        3.27970537483216       -1.33098929426127
H           -4.38034932035977        0.43444888267664       -2.15658510345268
H            2.25686066971863        2.38345221006775        1.35106628655845
H            2.43644061514563       -0.99380232331539        3.85225724358151
H           -1.09878752610346       -4.15360919430127        3.89851812599196
H           -4.93099943741616       -3.02081320382976        2.54598580241435
O           -3.24221326917472        3.91784816316391       -3.05639510878232
O           -3.92570952410437        1.84473033635067       -3.92507070323478
C           -4.09700077060203        2.56176569062581       -5.02664947253861
C            3.77451141652342        1.22919835750073        3.26462569206059
O            4.27139207181934        0.72536452948713        4.26534001900682
O            4.20821583370555        2.40467793715106        2.57393514299212
C            5.21771109353570        3.05201532860087        3.40136960549513
O           -4.69143717474941       -5.32365437163075        3.20516277624039
O           -2.52989716491344       -5.98667408704693        3.90119276645694
C           -2.96273704506333       -7.30644603353814        4.16128077593540
C           -5.62871396991485       -0.61118913265969        1.87996024023446
C           -4.26496794937806       -2.00704805295607       -1.28393902556854
H           -2.00467390625877       -7.79830803104248        4.30093132637277
H           -3.40235010900412       -7.78290638368106        3.31907821149396
H           -3.64964630250450       -7.41464703956447        4.94826862596954
H            6.11519166303881        2.60190328877664        3.26162909354175
H            4.86362437675465        2.92913059637618        4.37968375861365
H            5.24076165429162        4.11800031261032        3.20076467772900
H           -3.71996570034054       -1.74479408375179       -2.27916991716175
H           -5.03835900891841       -1.22255637062558       -1.17478285582349
H           -4.38114961246955       -3.08312490910956       -1.13919281161741
H           -5.83673032307973       -1.66527911587966        1.80948294041151
H           -6.15142737631318       -0.07319861702004        1.12197547496383
H           -5.99333700616147       -0.24731368081388        2.82799563782814
H           -5.17500642699019        2.75322689597475       -4.94257805102572
H           -3.96474485082321        1.93417168194202       -5.81165858322947
H           -3.43296609355450        3.36425501948384       -5.01223272726202
C           -1.09195953631920        3.82116471494455        3.21385546829522
C           -1.33431569844485        2.66175622630645        3.88689079153891
C           -0.42396722095556        2.20645520738914        4.94579290153636
C            0.85050282586498        2.79814314920312        5.15176687933092
C            0.89585803346919        4.03178925734057        4.51195067862699
C            0.02294865224534        4.55449348580936        3.61157194494351
C           -0.61777192390925        1.00185716110315        5.65945619059636
C            0.60327112239015        0.49849248716015        6.17008362834105
C            1.69988858420666        1.28374544422338        6.56939546363657
N            1.81790941225264        2.49014402714240        5.98335347668169
C           -1.87900019814814        0.27404207419281        5.81145957670015
C           -1.69597250900830       -1.10183438844363        6.16028045138377
N           -0.55826638832385       -1.57518503835521        6.52674486827327
C            0.55206707533799       -0.79567170669657        6.66689630738567
C            1.62202252840833       -1.39697775432065        7.33767856590291
C            2.73049499373718       -0.58274934838481        7.64987872507470
C            2.77084368630943        0.73226551803824        7.30924610310909
C           -3.21277518512583        0.70983722921710        5.78550408856674
C           -4.20882085282915       -0.22435769005654        5.81424864072656
C           -4.11338111932420       -1.59360442422855        5.88076151718776
C           -2.80141167172414       -2.06268446285975        5.98902040169124
O           -3.66208612787274        2.06025513358409        5.92106229348051
O           -2.32088649112542        1.78386819774841        3.56418433075033
C            0.21509544092168        5.90155336708296        2.98735300158045
C           -5.33547561704483       -2.48202094519627        5.85159054733486
H            1.86759253060373        4.55905189220300        4.50096886676998
H           -1.59675365374678        4.16638448169564        2.34671209349878
H            3.64060209691399        1.33432128144992        7.38206903574959
H            1.67517438124951       -2.40551413675706        7.31617895299690
H           -2.70316752644733       -3.05517308958703        6.10736501187207
H           -5.21516054480357        0.11572672674001        5.82383325421339
O            1.30810957401033        6.44435829758194        2.94830724229010
O           -0.89658350997901        6.50153039422946        2.30553079612441
C           -0.46287090059051        7.42079753104207        1.39112841069377
C            3.95000063861633       -1.35567119693824        8.10960096539947
O            3.90132803389279       -2.55476202833271        8.15781967569728
O            5.14776740233232       -0.62862668267471        8.29883774487974
C            6.14673998089616       -1.37700363050849        8.89763116352641
O           -6.48523215829722       -2.11379220385808        5.80895577464725
O           -4.93845244221004       -3.84076730400214        5.93320836859808
C           -6.07782185169985       -4.55599613738375        5.76048178884484
C           -4.57419745398146        2.18424408092846        7.03794223056450
C           -3.24153344656863        2.22102502012586        2.69938278959947
H           -5.86608974752334       -5.64254747844894        5.76543257705765
H           -6.45217011309626       -4.45150569126915        4.79759936747731
H           -6.72697244307575       -4.11974419920207        6.53730147321271
H            7.05227125492257       -0.78226799753908        8.98085465699153
H            6.30299620361809       -2.22421913785022        8.32222766684542
H            5.92137094204123       -1.60946001129584        9.94289792450339
H           -3.47004217427887        3.28912351617736        2.57806851610739
H           -4.16855835740641        1.67221893346527        2.91398397051026
H           -2.80305139156738        2.20270200966866        1.73205851430577
H           -4.70514759373694        3.22674474979720        7.23909616401267
H           -4.21589844205322        1.57144598861358        7.83761318597781
H           -5.57269872559158        1.83597744174992        6.78255808715031
H           -1.38078620199525        7.73241269284670        0.95426400541731
H            0.21429931879140        6.94800484262045        0.69637329060719
H            0.08867574383109        8.21998080711445        1.86429329714486
116
 energy: -22.866585893633 gnorm: 0.381882036113 xtb: 6.6.1 (8d0f1dd)
C           -3.48170188732441        0.45676047298154       -1.79826077568372
C           -2.93175008551811       -0.50706198468078       -1.03455639530826
C           -1.84202909481513        0.03054048765479       -0.23496700508413
C           -1.29549302187298        1.34063155779510       -0.41875266879657
C           -1.94716262215011        2.21801535872588       -1.30627494993889
C           -3.00055205908898        1.72901432759151       -2.05819784190181
C           -1.27734196278688       -0.73990219891560        0.88464952551155
C            0.01092562002301       -0.43255994817649        1.33718495927870
C            0.43230148755807        0.89765650186555        1.13593475290276
N           -0.19319666178107        1.72299878223155        0.28069647281562
C           -1.91765900584592       -1.77157564005404        1.74079723767821
C           -1.07508434334501       -2.52380726543488        2.52801677485746
N            0.26500167879967       -2.38446861022944        2.65497605542054
C            0.76281532561749       -1.28667601765793        2.17031458580021
C            1.91702634977144       -0.75501705714166        2.77982486941467
C            2.41087000098932        0.48947338071068        2.46874832863588
C            1.64821630412822        1.37387917708884        1.67879561586235
C           -3.34491228347344       -1.91457402236041        1.75050660645939
C           -3.86398876569025       -2.87733957628050        2.57839342072954
C           -3.03354570242028       -3.86804746391225        3.07538103675831
C           -1.68783377774455       -3.64960336556299        3.14846296578813
O           -4.13682449103362       -0.93432247072178        1.09429159510666
O           -3.32775840496306       -1.83975094348734       -1.18427121915017
C           -3.81481245488644        2.69924578409062       -2.82569224757033
C           -3.47367151602035       -5.04759903349980        3.87044189596932
H           -1.54789112325481        3.15637476313289       -1.69035625030252
H           -4.39342985155499        0.17981526717247       -2.40381870623439
H            2.06820596564512        2.35413906842955        1.41923024831896
H            2.34297454797186       -1.40942399684552        3.58120788089779
H           -1.05616899538863       -4.22676860237853        3.86652768607064
H           -4.94992412428459       -2.87761850848188        2.71066334397651
O           -3.21430113223893        3.78126452676179       -3.09631079631705