Optimization of monomers started
      -----------------------------------------------------------      
     |                   =====================                   |     
     |                           x T B                           |     
     |                   =====================                   |     
     |                         S. Grimme                         |     
     |          Mulliken Center for Theoretical Chemistry        |     
     |                    University of Bonn                     |     
      -----------------------------------------------------------      

   * xtb version 6.7.1 (edcfbbe) compiled by 'runner@Mac-1732539442253.local' on 2024-11-25

   xtb is free software: you can redistribute it and/or modify it under
   the terms of the GNU Lesser General Public License as published by
   the Free Software Foundation, either version 3 of the License, or
   (at your option) any later version.
   
   xtb is distributed in the hope that it will be useful,
   but WITHOUT ANY WARRANTY; without even the implied warranty of
   MERCHANTABILITY or FITNESS FOR A PARTICULAR PURPOSE.  See the
   GNU Lesser General Public License for more details.
   
   Cite this work as:
   * C. Bannwarth, E. Caldeweyher, S. Ehlert, A. Hansen, P. Pracht,
     J. Seibert, S. Spicher, S. Grimme, WIREs Comput. Mol. Sci., 2020, 11,
     e01493. DOI: 10.1002/wcms.1493
   
   for GFN2-xTB:
   * C. Bannwarth, S. Ehlert and S. Grimme., J. Chem. Theory Comput., 2019,
     15, 1652-1671. DOI: 10.1021/acs.jctc.8b01176
   for GFN1-xTB:
   * S. Grimme, C. Bannwarth, P. Shushkov, J. Chem. Theory Comput., 2017,
     13, 1989-2009. DOI: 10.1021/acs.jctc.7b00118
   for GFN0-xTB:
   * P. Pracht, E. Caldeweyher, S. Ehlert, S. Grimme, ChemRxiv, 2019, preprint.
     DOI: 10.26434/chemrxiv.8326202.v1
   for GFN-FF:
   * S. Spicher and S. Grimme, Angew. Chem. Int. Ed., 2020, 59, 15665-15673.
     DOI: 10.1002/anie.202004239
   
   for ALPB and GBSA implicit solvation:
   * S. Ehlert, M. Stahn, S. Spicher, S. Grimme, J. Chem. Theory Comput.,
     2021, 17, 4250-4261. DOI: 10.1021/acs.jctc.1c00471
   
   for ddCOSMO and CPCM-X implicit solvation:
   * M. Stahn, S. Ehlert, S. Grimme, J. Phys. Chem. A,
     2023, XX, XXXX-XXXX. DOI: 10.1021/acs.jpca.3c04382
   
   for DFT-D4:
   * E. Caldeweyher, C. Bannwarth and S. Grimme, J. Chem. Phys., 2017,
     147, 034112. DOI: 10.1063/1.4993215
   * E. Caldeweyher, S. Ehlert, A. Hansen, H. Neugebauer, S. Spicher,
     C. Bannwarth and S. Grimme, J. Chem. Phys., 2019, 150, 154122.
     DOI: 10.1063/1.5090222
   * E. Caldeweyher, J.-M. Mewes, S. Ehlert and S. Grimme, Phys. Chem. Chem. Phys.
     2020, 22, 8499-8512. DOI: 10.1039/D0CP00502A
   
   for sTDA-xTB:
   * S. Grimme and C. Bannwarth, J. Chem. Phys., 2016, 145, 054103.
     DOI: 10.1063/1.4959605
   
   in the mass-spec context:
   * V. Asgeirsson, C. Bauer and S. Grimme, Chem. Sci., 2017, 8, 4879.
     DOI: 10.1039/c7sc00601b
   * J. Koopman and S. Grimme, ACS Omega 2019, 4, 12, 15120-15133.
     DOI: 10.1021/acsomega.9b02011
   
   for metadynamics refer to:
   * S. Grimme, J. Chem. Theory Comput., 2019, 155, 2847-2862
     DOI: 10.1021/acs.jctc.9b00143
   
   for SPH calculations refer to:
   * S. Spicher and S. Grimme, J. Chem. Theory Comput., 2021, 17, 1701-1714
     DOI: 10.1021/acs.jctc.0c01306
   
   for ONIOM refer to:
   * C. Plett, A. Katbashev, S. Ehlert, S. Grimme, M. Bursch,
     Phys. Chem. Chem. Phys., 2023, 25, 17860-17868. DOI: 10.1039/D3CP02178E
   
   for DIPRO refer to:
   * J. Kohn, N. Gildemeister, S. Grimme, D. Fazzi, A. Hansen,
     J. Chem. Phys., 2023, just accepted.
   
   for PTB refer to:
   * S. Grimme, M. Mueller, A. Hansen, J. Chem. Phys., 2023, 158, 124111.
     DOI: 10.1063/5.0137838
   
   with help from (in alphabetical order)
   P. Atkinson, C. Bannwarth, F. Bohle, G. Brandenburg, E. Caldeweyher
   M. Checinski, S. Dohm, S. Ehlert, S. Ehrlich, I. Gerasimov, C. Hölzer
   A. Katbashev, J. Kohn, J. Koopman, C. Lavigne, S. Lehtola, F. März, M. Müller,
   F. Musil, H. Neugebauer, J. Pisarek, C. Plett, P. Pracht, F. Pultar,
   J. Seibert, P. Shushkov, S. Spicher, M. Stahn, M. Steiner, T. Strunk,
   J. Stückrath, T. Rose, and J. Unsleber
   
 * started run on 2025/03/10 at 14:52:14.929     
   ID    Z sym.   atoms
    1    6 C      1-9, 11, 12, 14-21, 25-33, 35, 36, 38-45, 48-71
    2    7 N      10, 13, 34, 37
    3    8 O      22, 23, 46, 47
    4    5 B      24
    5    1 H      72-137

           -------------------------------------------------
          |                Calculation Setup                |
           -------------------------------------------------

          program call               : xtb Base1tBu.mol --opt --chrg 0 --uhf 1 --tight --spinpol --tblite
          coordinate file            : Base1tBu.mol
          omp threads                :                     8

########################################################################
[WARNING] Please study the warnings concerning your input carefully
-2- prog_main: Charge in sdf/mol input was overwritten
-1- prog_main_parseArguments: Unknown option '--tight' provided
########################################################################
repulsion energy          3.2090722321784E+00 Eh
dispersion energy         3.5956337761325E-03 Eh
interaction energy        0.0000000000000E+00 Eh
number of electrons       3.6100000000000E+02 e
integral cutoff           1.9311100799991E+01 bohr

------------------------------------------------------------
  cycle        total energy    energy error   density error
------------------------------------------------------------
      1     -194.1166666330  -1.9732933E+02   1.0151847E-01
      2     -191.9702656157   2.1464010E+00   7.6509153E-02
      3     -183.2465914748   8.7236741E+00   9.6160515E-02
      4     -187.5389681637  -4.2923767E+00   8.2993526E-02
      5     -194.3789747086  -6.8400065E+00   4.0672749E-02
      6     -194.8602747524  -4.8130004E-01   2.2051328E-02
      7     -194.7777188246   8.2555928E-02   2.3266824E-02
      8     -194.9051969849  -1.2747816E-01   1.5686825E-02
      9     -194.9503535852  -4.5156600E-02   1.1195889E-02
     10     -194.9490306811   1.3229041E-03   7.0118803E-03
     11     -194.9580932862  -9.0626051E-03   4.5528831E-03
     12     -194.9579370827   1.5620343E-04   5.5374407E-03
     13     -194.9611052353  -3.1681526E-03   4.2897596E-03
     14     -194.9639854276  -2.8801923E-03   2.8755858E-03
     15     -194.9654343746  -1.4489470E-03   1.6308700E-03
     16     -194.9657449243  -3.1054977E-04   1.1811120E-03
     17     -194.9656041242   1.4080017E-04   1.2375549E-03
     18     -194.9658439399  -2.3981575E-04   7.0271926E-04
     19     -194.9659752183  -1.3127838E-04   2.0507855E-04
     20     -194.9659658298   9.3884774E-06   2.1142731E-04
     21     -194.9659701855  -4.3556704E-06   1.9306662E-04
     22     -194.9659824282  -1.2242757E-05   4.7745732E-05
     23     -194.9659826163  -1.8810104E-07   3.4914744E-05
     24     -194.9659828491  -2.3278082E-07   1.8536130E-05
------------------------------------------------------------

electronic energy        -1.9817865071507E+02 Eh
total energy             -1.9496598284912E+02 Eh

 total:                                  13.216 sec
 - repulsion                              0.001 sec (  0%)
 - dispersion                             0.059 sec (  0%)
 - coulomb                                0.009 sec (  0%)
 - hamiltonian                            0.054 sec (  0%)
 - scc                                   13.093 sec ( 99%)

      ----------------------------------------------------------- 
     |                   =====================                   |
     |                        A N C O P T                        |
     |                   =====================                   |
     |               Approximate Normal Coordinate               |
     |                Rational Function Optimizer                |
      ----------------------------------------------------------- 
      ----------------------------------------------------------- 
     |                   =====================                   |
     |                        A N C O P T                        |
     |                   =====================                   |
     |               Approximate Normal Coordinate               |
     |                Rational Function Optimizer                |
      ----------------------------------------------------------- 

          ...................................................
          :                      SETUP                      :
          :.................................................:
          :   optimization level            normal          :
          :   max. optcycles                   411          :
          :   ANC micro-cycles                  20          :
          :   degrees of freedom               405          :
          :.................................................:
          :   RF solver                   davidson          :
          :   write xtbopt.log                true          :
          :   linear?                        false          :
          :   energy convergence         0.5000000E-05 Eh   :
          :   grad. convergence          0.1000000E-02 Eh/α :
          :   maxmium RF displ.          1.0000000          :
          :   Hlow (freq-cutoff)         0.1000000E-01      :
          :   Hmax (freq-cutoff)         5.0000000          :
          :   S6 in model hess.         20.0000000          :
          ...................................................

generating ANC from exact Hessian ...
Using Lindh-Hessian (1995)
 Shifting diagonal of input Hessian by    1.1664657831475000E-002
 Lowest  eigenvalues of input Hessian
    0.010000    0.010251    0.010624    0.011290    0.011469    0.000000
    0.000000    0.000000    0.000000    0.000000    0.000000    0.011707
    0.011746    0.011811    0.011912    0.011972    0.012037    0.012230
 Highest eigenvalues
    2.329077    2.462783    2.516340    2.516772    2.690956    2.703279


........................................................................
.............................. CYCLE    1 ..............................
........................................................................
------------------------------------------------------------
  cycle        total energy    energy error   density error
------------------------------------------------------------
      1     -194.9659541964  -1.9817862E+02   2.2950643E-04
      2     -194.9642253066   1.7288898E-03   1.8803487E-03
      3     -194.9657360505  -1.5107439E-03   7.1017762E-04
      4     -194.9659826585  -2.4660804E-04   2.9115298E-05
      5     -194.9659827591  -1.0061925E-07   2.2997010E-05
      6     -194.9659829311  -1.7203885E-07   9.8264280E-06
------------------------------------------------------------

 total:                                   3.227 sec
 * total energy  :  -194.9659829 Eh     change       -0.8203043E-07 Eh
   gradient norm :     0.6936680 Eh/α   predicted     0.0000000E+00 (-100.00%)
   displ. norm   :     0.6091860 α      lambda       -0.3478815E+00
   maximum displ.:     0.1518396 α      in ANC's #260, #285, #264, ...

........................................................................
.............................. CYCLE    2 ..............................
........................................................................
------------------------------------------------------------
  cycle        total energy    energy error   density error
------------------------------------------------------------
      1     -195.2133136930  -1.9835531E+02   9.2276235E-03
      2     -194.8565258774   3.5678782E-01   2.3776842E-02
      3     -195.2250189058  -3.6849303E-01   6.4444628E-03
      4     -195.1639560038   6.1062902E-02   1.1861970E-02
      5     -195.2056906982  -4.1734694E-02   8.3704434E-03
      6     -195.2273701110  -2.1679413E-02   4.2950186E-03
      7     -195.2277502015  -3.8009046E-04   3.3983948E-03
      8     -195.2306864011  -2.9361997E-03   2.5831548E-03
      9     -195.2308685532  -1.8215205E-04   2.4007652E-03
     10     -195.2316519546  -7.8340140E-04   1.7145445E-03
     11     -195.2317830670  -1.3111237E-04   1.3872560E-03
     12     -195.2318366012  -5.3534205E-05   1.2140680E-03
     13     -195.2321193491  -2.8274795E-04   6.8228025E-04
     14     -195.2322042451  -8.4895980E-05   2.4115145E-04
     15     -195.2322012512   2.9939004E-06   1.7827539E-04
     16     -195.2322090490  -7.7977758E-06   1.2049602E-04
     17     -195.2322095775  -5.2855509E-07   5.1652110E-05
     18     -195.2322098953  -3.1778853E-07   4.5820519E-05
     19     -195.2322105809  -6.8561647E-07   1.1734550E-05
------------------------------------------------------------

 total:                                   9.845 sec
 * total energy  :  -195.2322106 Eh     change       -0.2662276E+00 Eh
   gradient norm :     0.3457762 Eh/α   predicted    -0.2386278E+00 ( -10.37%)
   displ. norm   :     0.6757914 α      lambda       -0.2002623E+00
   maximum displ.:     0.1732634 α      in ANC's #260, #257, #285, ...

........................................................................
.............................. CYCLE    3 ..............................
........................................................................
------------------------------------------------------------
  cycle        total energy    energy error   density error
------------------------------------------------------------
      1     -195.3606168000  -1.9855720E+02   1.0176607E-02
      2     -195.0328371002   3.2777970E-01   2.3192995E-02
      3     -195.3789319374  -3.4609484E-01   5.8664066E-03
      4     -195.3335905414   4.5341396E-02   1.0088225E-02
      5     -195.3513607446  -1.7770203E-02   9.1357902E-03
      6     -195.3719665301  -2.0605785E-02   6.1930883E-03
      7     -195.3773131903  -5.3466602E-03   4.1553328E-03
      8     -195.3811839363  -3.8707460E-03   2.8038789E-03
      9     -195.3819440624  -7.6012608E-04   2.2159539E-03
     10     -195.3827095354  -7.6547301E-04   1.4619859E-03
     11     -195.3828200148  -1.1047940E-04   1.2381910E-03
     12     -195.3829247354  -1.0472067E-04   9.5504514E-04
     13     -195.3830481119  -1.2337649E-04   6.3451281E-04
     14     -195.3831226422  -7.4530259E-05   2.3915730E-04
     15     -195.3831327834  -1.0141217E-05   6.6495302E-05
     16     -195.3831320345   7.4890929E-07   8.8586250E-05
     17     -195.3831326137  -5.7923418E-07   4.7277227E-05
     18     -195.3831330985  -4.8472123E-07   7.0641330E-06
------------------------------------------------------------

 total:                                  10.357 sec
 * total energy  :  -195.3831331 Eh     change       -0.1509225E+00 Eh
   gradient norm :     0.1601044 Eh/α   predicted    -0.1458605E+00 (  -3.35%)
   displ. norm   :     0.7329722 α      lambda       -0.1019341E+00
   maximum displ.:     0.1651365 α      in ANC's #82, #85, #94, ...

........................................................................
.............................. CYCLE    4 ..............................
........................................................................
------------------------------------------------------------
  cycle        total energy    energy error   density error
------------------------------------------------------------
      1     -195.4599153832  -1.9866844E+02   7.9282900E-03
      2     -195.4149308648   4.4984518E-02   1.0285352E-02
      3     -195.4013361319   1.3594733E-02   1.2454418E-02
      4     -195.4411859269  -3.9849795E-02   7.4844575E-03
      5     -195.4549257667  -1.3739840E-02   4.2702046E-03
      6     -195.4597313609  -4.8055942E-03   4.0694634E-03
      7     -195.4596181887   1.1317221E-04   4.0456183E-03
      8     -195.4602097930  -5.9160425E-04   3.7009709E-03
      9     -195.4648248267  -4.6150337E-03   4.6785336E-04
     10     -195.4649120174  -8.7190773E-05   2.6909801E-04
     11     -195.4649342914  -2.2274014E-05   1.6049504E-04
     12     -195.4649320016   2.2898429E-06   1.4339880E-04
     13     -195.4649262799   5.7216993E-06   1.5512569E-04
     14     -195.4649334972  -7.2172779E-06   8.4644605E-05
     15     -195.4649353853  -1.8881424E-06   3.9195531E-05
     16     -195.4649357553  -3.6998335E-07   1.5846644E-05
------------------------------------------------------------

 total:                                   9.260 sec
 * total energy  :  -195.4649358 Eh     change       -0.8180266E-01 Eh
   gradient norm :     0.1047509 Eh/α   predicted    -0.7834922E-01 (  -4.22%)
   displ. norm   :     0.7744659 α      lambda       -0.6567612E-01
   maximum displ.:     0.1946128 α      in ANC's #82, #30, #22, ...

........................................................................
.............................. CYCLE    5 ..............................
........................................................................
------------------------------------------------------------
  cycle        total energy    energy error   density error
------------------------------------------------------------
      1     -195.5172413131  -1.9871152E+02   6.7550611E-03
      2     -195.4930433525   2.4197961E-02   8.6533515E-03
      3     -195.4643985354   2.8644817E-02   1.1956587E-02
      4     -195.5061342403  -4.1735705E-02   5.6809247E-03
      5     -195.5175251204  -1.1390880E-02   2.1824113E-03
      6     -195.5186743086  -1.1491882E-03   1.4143623E-03
      7     -195.5196021717  -9.2786315E-04   5.5751936E-04
      8     -195.5194722815   1.2989021E-04   7.8401052E-04
      9     -195.5196233523  -1.5107083E-04   3.7930823E-04
     10     -195.5196565063  -3.3154000E-05   2.5217576E-04
     11     -195.5196810021  -2.4495735E-05   5.4725028E-05
     12     -195.5196811338  -1.3173468E-07   5.3662370E-05
     13     -195.5196819547  -8.2093922E-07   1.5994976E-05
------------------------------------------------------------

 total:                                   5.867 sec
 * total energy  :  -195.5196820 Eh     change       -0.5474620E-01 Eh
   gradient norm :     0.0795115 Eh/α   predicted    -0.5253427E-01 (  -4.04%)
   displ. norm   :     0.8106878 α      lambda       -0.4737337E-01
   maximum displ.:     0.2286354 α      in ANC's #30, #22, #82, ...

........................................................................
.............................. CYCLE    6 ..............................
........................................................................
------------------------------------------------------------
  cycle        total energy    energy error   density error
------------------------------------------------------------
      1     -195.5593669722  -1.9873728E+02   5.5938045E-03
      2     -195.5393731227   1.9993849E-02   7.6469510E-03
      3     -195.5111382569   2.8234866E-02   1.1316095E-02
      4     -195.5456016595  -3.4463403E-02   5.3362891E-03
      5     -195.5565877779  -1.0986118E-02   2.5884232E-03
      6     -195.5603114233  -3.7236453E-03   5.8715616E-04
      7     -195.5604359620  -1.2453878E-04   2.8524200E-04
      8     -195.5604544646  -1.8502586E-05   1.9465524E-04
      9     -195.5604603935  -5.9288501E-06   1.0903504E-04
     10     -195.5604566769   3.7165667E-06   1.3607590E-04
     11     -195.5604638832  -7.2063181E-06   2.6512060E-05
     12     -195.5604639438  -6.0605942E-08   1.6808734E-05
------------------------------------------------------------

 total:                                   7.155 sec
 * total energy  :  -195.5604639 Eh     change       -0.4078199E-01 Eh
   gradient norm :     0.0619162 Eh/α   predicted    -0.3925397E-01 (  -3.75%)
   displ. norm   :     0.8438352 α      lambda       -0.3719719E-01
   maximum displ.:     0.2536697 α      in ANC's #22, #30, #24, ...

........................................................................
.............................. CYCLE    7 ..............................
........................................................................
------------------------------------------------------------
  cycle        total energy    energy error   density error
------------------------------------------------------------
      1     -195.5928927445  -1.9875125E+02   4.5216911E-03
      2     -195.5851013747   7.7913697E-03   5.0532305E-03
      3     -195.5679172061   1.7184169E-02   7.9354865E-03
      4     -195.5850463576  -1.7129151E-02   3.8611433E-03
      5     -195.5876128835  -2.5665260E-03   3.6140225E-03
      6     -195.5928986456  -5.2857621E-03   1.0444689E-03
      7     -195.5932899387  -3.9129308E-04   3.9232481E-04
      8     -195.5933364444  -4.6505679E-05   1.3533450E-04
      9     -195.5933390681  -2.6237150E-06   8.7584525E-05
     10     -195.5933414803  -2.4121966E-06   4.2011324E-05
     11     -195.5933415552  -7.4944921E-08   3.1615843E-05
     12     -195.5933417704  -2.1512543E-07   1.8294847E-05
------------------------------------------------------------

 total:                                   7.239 sec
 * total energy  :  -195.5933418 Eh     change       -0.3287783E-01 Eh
   gradient norm :     0.0495287 Eh/α   predicted    -0.3184191E-01 (  -3.15%)
   displ. norm   :     0.8687056 α      lambda       -0.3126072E-01
   maximum displ.:     0.2835158 α      in ANC's #22, #30, #24, ...

........................................................................
.............................. CYCLE    8 ..............................
........................................................................
------------------------------------------------------------
  cycle        total energy    energy error   density error
------------------------------------------------------------
      1     -195.6205479054  -1.9876329E+02   3.9785972E-03
      2     -195.6157038806   4.8440247E-03   4.1382028E-03
      3     -195.5778043969   3.7899484E-02   1.0541455E-02
      4     -195.6140074624  -3.6203065E-02   3.6033547E-03
      5     -195.6187673435  -4.7598811E-03   2.0686927E-03
      6     -195.6202544260  -1.4870825E-03   1.2377439E-03
      7     -195.6207465196  -4.9209359E-04   5.5865133E-04
      8     -195.6208558072  -1.0928754E-04   1.3866267E-04
      9     -195.6208588543  -3.0471523E-06   7.6828384E-05
     10     -195.6208584812   3.7313390E-07   7.8083169E-05
     11     -195.6208600999  -1.6187682E-06   3.9468199E-05
     12     -195.6208605228  -4.2280996E-07   1.4774391E-05
------------------------------------------------------------

 total:                                   8.527 sec
 * total energy  :  -195.6208605 Eh     change       -0.2751875E-01 Eh
   gradient norm :     0.0431359 Eh/α   predicted    -0.2742586E-01 (  -0.34%)
   displ. norm   :     0.8929938 α      lambda       -0.2766165E-01
   maximum displ.:     0.2863401 α      in ANC's #22, #30, #24, ...

........................................................................
.............................. CYCLE    9 ..............................
........................................................................
------------------------------------------------------------
  cycle        total energy    energy error   density error
------------------------------------------------------------
      1     -195.6423610394  -1.9876641E+02   3.8324625E-03
      2     -195.6044348660   3.7926173E-02   9.9306655E-03
      3     -195.6337715332  -2.9336667E-02   5.1122434E-03
      4     -195.6327868740   9.8465918E-04   4.6117528E-03
      5     -195.6427336900  -9.9468161E-03   1.1800365E-03
      6     -195.6431955698  -4.6187973E-04   5.0328496E-04
      7     -195.6432953146  -9.9744808E-05   2.3661050E-04
      8     -195.6433025215  -7.2069420E-06   1.6526102E-04
      9     -195.6433085418  -6.0202409E-06   8.3691122E-05
     10     -195.6433105062  -1.9644592E-06   2.9322803E-05
     11     -195.6433105070  -7.6877882E-10   2.8720043E-05
     12     -195.6433106958  -1.8886104E-07   1.6934281E-05
------------------------------------------------------------

 total:                                   8.263 sec
 * total energy  :  -195.6433107 Eh     change       -0.2245017E-01 Eh
   gradient norm :     0.0537756 Eh/α   predicted    -0.2486005E-01 (  10.73%)
   displ. norm   :     0.8567778 α      lambda       -0.2414371E-01
   maximum displ.:     0.3056931 α      in ANC's #22, #30, #24, ...

........................................................................
.............................. CYCLE   10 ..............................
........................................................................
------------------------------------------------------------
  cycle        total energy    energy error   density error
------------------------------------------------------------
      1     -195.6624022824  -1.9877354E+02   2.9828375E-03
      2     -195.6595924011   2.8098813E-03   3.2188688E-03
      3     -195.6418899374   1.7702464E-02   7.1395271E-03
      4     -195.6610127178  -1.9122780E-02   1.8360062E-03
      5     -195.6618296022  -8.1688442E-04   1.2705608E-03
      6     -195.6624662356  -6.3663339E-04   4.4747072E-04
      7     -195.6625610769  -9.4841368E-05   1.2922322E-04
      8     -195.6625664724  -5.3955026E-06   6.4064041E-05
      9     -195.6625671503  -6.7781957E-07   2.7801524E-05
     10     -195.6625671213   2.8978832E-08   2.6420440E-05
     11     -195.6625672947  -1.7347483E-07   1.2678529E-05
------------------------------------------------------------

 total:                                   7.708 sec
 * total energy  :  -195.6625673 Eh     change       -0.1925660E-01 Eh
   gradient norm :     0.0476408 Eh/α   predicted    -0.2093342E-01 (   8.71%)
   displ. norm   :     0.8486226 α      lambda       -0.2084531E-01
   maximum displ.:     0.2983693 α      in ANC's #22, #24, #30, ...

........................................................................
.............................. CYCLE   11 ..............................
........................................................................
------------------------------------------------------------
  cycle        total energy    energy error   density error
------------------------------------------------------------
      1     -195.6776357640  -1.9876734E+02   3.1212396E-03
      2     -195.6769117932   7.2397076E-04   2.4225525E-03
      3     -195.6588650526   1.8046741E-02   6.7593716E-03
      4     -195.6661614447  -7.2963921E-03   5.5082711E-03
      5     -195.6765638305  -1.0402386E-02   1.7346792E-03
      6     -195.6776645916  -1.1007611E-03   7.8187502E-04
      7     -195.6779715388  -3.0694724E-04   2.0686799E-04
      8     -195.6779800015  -8.4626826E-06   1.1964767E-04
      9     -195.6779849520  -4.9505181E-06   3.7037263E-05
     10     -195.6779849587  -6.6720816E-09   3.0514263E-05
     11     -195.6779852482  -2.8950402E-07   1.4621450E-05
------------------------------------------------------------

 total:                                   7.459 sec
 * total energy  :  -195.6779852 Eh     change       -0.1541795E-01 Eh
   gradient norm :     0.0549402 Eh/α   predicted    -0.1792866E-01 (  16.28%)
   displ. norm   :     0.8160959 α      lambda       -0.1743704E-01
   maximum displ.:     0.2881173 α      in ANC's #22, #24, #34, ...

........................................................................
.............................. CYCLE   12 ..............................
........................................................................
------------------------------------------------------------
  cycle        total energy    energy error   density error
------------------------------------------------------------
      1     -195.6920314871  -1.9877257E+02   2.4845320E-03
      2     -195.6892950729   2.7364142E-03   2.8540170E-03
      3     -195.6786947110   1.0600362E-02   5.8245000E-03
      4     -195.6819674786  -3.2727677E-03   4.9386735E-03
      5     -195.6918724790  -9.9050004E-03   9.8268884E-04
      6     -195.6922452310  -3.7275194E-04   3.4245306E-04
      7     -195.6922971323  -5.1901305E-05   1.5329256E-04
      8     -195.6923042704  -7.1381382E-06   7.0016129E-05
      9     -195.6923033214   9.4904280E-07   7.8202783E-05
     10     -195.6923056120  -2.2906584E-06   2.0058437E-05
     11     -195.6923056520  -3.9944666E-08   1.3837795E-05
------------------------------------------------------------

 total:                                   7.833 sec
 * total energy  :  -195.6923057 Eh     change       -0.1432040E-01 Eh
   gradient norm :     0.0320184 Eh/α   predicted    -0.1452517E-01 (   1.43%)
   displ. norm   :     0.8471828 α      lambda       -0.1443721E-01
   maximum displ.:     0.3144500 α      in ANC's #22, #24, #18, ...

........................................................................
.............................. CYCLE   13 ..............................
........................................................................
------------------------------------------------------------
  cycle        total energy    energy error   density error
------------------------------------------------------------
      1     -195.7042502446  -1.9877022E+02   2.5302968E-03
      2     -195.7013318592   2.9183854E-03   3.1277345E-03
      3     -195.6889789758   1.2352883E-02   6.2265803E-03
      4     -195.7012454530  -1.2266477E-02   2.3522645E-03
      5     -195.7032860587  -2.0406058E-03   1.5274763E-03
      6     -195.7043353225  -1.0492638E-03   2.4696987E-04
      7     -195.7043565103  -2.1187744E-05   8.1019057E-05
      8     -195.7043571863  -6.7604128E-07   6.2963860E-05
      9     -195.7043577803  -5.9401620E-07   4.6048797E-05
     10     -195.7043582509  -4.7063151E-07   2.3414134E-05
     11     -195.7043584026  -1.5169289E-07   1.0972620E-05
------------------------------------------------------------

 total:                                   6.274 sec
 * total energy  :  -195.7043584 Eh     change       -0.1205275E-01 Eh
   gradient norm :     0.0294281 Eh/α   predicted    -0.1239955E-01 (   2.88%)
   displ. norm   :     0.8568541 α      lambda       -0.1205782E-01
   maximum displ.:     0.3043042 α      in ANC's #22, #24, #18, ...

........................................................................
.............................. CYCLE   14 ..............................
........................................................................
------------------------------------------------------------
  cycle        total energy    energy error   density error
------------------------------------------------------------
      1     -195.7146400144  -1.9877137E+02   2.4645373E-03
      2     -195.7005935496   1.4046465E-02   6.1954181E-03
      3     -195.7102769735  -9.6834239E-03   3.5416243E-03
      4     -195.7108041878  -5.2721427E-04   2.9848503E-03
      5     -195.7141460357  -3.3418479E-03   1.2424128E-03
      6     -195.7148425759  -6.9654018E-04   4.1239887E-04
      7     -195.7148885818  -4.6005923E-05   2.4180028E-04
      8     -195.7149049773  -1.6395537E-05   1.2386172E-04
      9     -195.7149102434  -5.2660217E-06   3.5702769E-05
     10     -195.7149104677  -2.2438553E-07   1.6768514E-05
------------------------------------------------------------

 total:                                   4.505 sec
 * total energy  :  -195.7149105 Eh     change       -0.1055207E-01 Eh
   gradient norm :     0.0225245 Eh/α   predicted    -0.1045533E-01 (  -0.92%)
   displ. norm   :     0.8656870 α      lambda       -0.1005586E-01
   maximum displ.:     0.3001000 α      in ANC's #22, #19, #18, ...

........................................................................
.............................. CYCLE   15 ..............................
........................................................................
------------------------------------------------------------
  cycle        total energy    energy error   density error
------------------------------------------------------------
      1     -195.7236014438  -1.9876702E+02   2.5866350E-03
      2     -195.7124155059   1.1185938E-02   5.4323337E-03
      3     -195.7147118395  -2.2963336E-03   4.9526224E-03
      4     -195.7179001038  -3.1882643E-03   3.3700518E-03
      5     -195.7229284814  -5.0283776E-03   1.3738742E-03
      6     -195.7237718088  -8.4332737E-04   2.7326571E-04
      7     -195.7237993676  -2.7558800E-05   9.9500781E-05
      8     -195.7238013616  -1.9939964E-06   6.4343931E-05
      9     -195.7238015143  -1.5275810E-07   4.9649141E-05
     10     -195.7238016987  -1.8435821E-07   3.1184188E-05
     11     -195.7238019770  -2.7833585E-07   1.2530360E-05
------------------------------------------------------------

 total:                                   5.100 sec
 * total energy  :  -195.7238020 Eh     change       -0.8891509E-02 Eh
   gradient norm :     0.0215721 Eh/α   predicted    -0.8795952E-02 (  -1.07%)
   displ. norm   :     0.8774742 α      lambda       -0.9251637E-02
   maximum displ.:     0.2731758 α      in ANC's #22, #18, #19, ...

........................................................................
.............................. CYCLE   16 ..............................
........................................................................
------------------------------------------------------------
  cycle        total energy    energy error   density error
------------------------------------------------------------
      1     -195.7307733999  -1.9877015E+02   2.9354446E-03
      2     -195.7075124666   2.3260933E-02   7.7702105E-03
      3     -195.7273376563  -1.9825190E-02   3.4013979E-03
      4     -195.7267917617   5.4589464E-04   3.0619722E-03
      5     -195.7302746603  -3.4828986E-03   1.4831993E-03
      6     -195.7311568444  -8.8218412E-04   5.9872539E-04
      7     -195.7311861493  -2.9304970E-05   5.0924539E-04
      8     -195.7312769992  -9.0849822E-05   1.4925173E-04
      9     -195.7312841933  -7.1941331E-06   3.0062236E-05
     10     -195.7312842677  -7.4359690E-08   2.2895611E-05
     11     -195.7312843653  -9.7637837E-08   1.6117847E-05
------------------------------------------------------------

 total:                                   7.193 sec
 * total energy  :  -195.7312844 Eh     change       -0.7482388E-02 Eh
   gradient norm :     0.0347655 Eh/α   predicted    -0.8187517E-02 (   9.42%)
   displ. norm   :     0.8238201 α      lambda       -0.8233066E-02
   maximum displ.:     0.2468356 α      in ANC's #22, #19, #18, ...

........................................................................
.............................. CYCLE   17 ..............................
........................................................................
------------------------------------------------------------
  cycle        total energy    energy error   density error
------------------------------------------------------------
      1     -195.7377607005  -1.9876767E+02   2.7179871E-03
      2     -195.7364653170   1.2953835E-03   2.3854303E-03
      3     -195.7322317695   4.2335474E-03   3.5245436E-03
      4     -195.7184809036   1.3750866E-02   6.7153134E-03
      5     -195.7375705803  -1.9089677E-02   9.9023678E-04
      6     -195.7379034401  -3.3285975E-04   3.4679247E-04
      7     -195.7379494069  -4.5966768E-05   1.7505851E-04
      8     -195.7379542893  -4.8824825E-06   1.3256718E-04
      9     -195.7379566435  -2.3541613E-06   9.2021921E-05
     10     -195.7379587597  -2.1162094E-06   4.6041226E-05
     11     -195.7379594740  -7.1434334E-07   1.2393417E-05
------------------------------------------------------------

 total:                                   7.378 sec
 * total energy  :  -195.7379595 Eh     change       -0.6675109E-02 Eh
   gradient norm :     0.0220193 Eh/α   predicted    -0.6910352E-02 (   3.52%)
   displ. norm   :     0.8232161 α      lambda       -0.6555646E-02
   maximum displ.:     0.2264687 α      in ANC's #22, #19, #8, ...

........................................................................
.............................. CYCLE   18 ..............................
........................................................................
------------------------------------------------------------
  cycle        total energy    energy error   density error
------------------------------------------------------------
      1     -195.7432097812  -1.9876149E+02   2.8170238E-03
      2     -195.7191989080   2.4010873E-02   7.7622377E-03
      3     -195.7342058239  -1.5006916E-02   5.0193690E-03
      4     -195.7361911558  -1.9853320E-03   3.8482905E-03
      5     -195.7429244971  -6.7333412E-03   1.0921580E-03
      6     -195.7435035634  -5.7906628E-04   2.4941825E-04
      7     -195.7435177678  -1.4204402E-05   1.4837360E-04
      8     -195.7435233233  -5.5555059E-06   8.3104169E-05
      9     -195.7435237877  -4.6437893E-07   6.0888264E-05
     10     -195.7435243433  -5.5567085E-07   3.4596427E-05
     11     -195.7435246367  -2.9340939E-07   1.4716017E-05
------------------------------------------------------------

 total:                                   7.248 sec
 * total energy  :  -195.7435246 Eh     change       -0.5565163E-02 Eh
   gradient norm :     0.0195048 Eh/α   predicted    -0.5499156E-02 (  -1.19%)
   displ. norm   :     0.8267950 α      lambda       -0.5771882E-02
   maximum displ.:     0.2447113 α      in ANC's #14, #19, #8, ...

........................................................................
.............................. CYCLE   19 ..............................
........................................................................
------------------------------------------------------------
  cycle        total energy    energy error   density error
------------------------------------------------------------
      1     -195.7483795808  -1.9876973E+02   2.6749573E-03
      2     -195.7464081728   1.9714080E-03   2.7531537E-03
      3     -195.7223833952   2.4024778E-02   7.9490063E-03
      4     -195.7317451213  -9.3617261E-03   6.1829008E-03
      5     -195.7479742108  -1.6229090E-02   1.0290202E-03
      6     -195.7483869449  -4.1273404E-04   5.2322780E-04
      7     -195.7484687666  -8.1821675E-05   2.8052457E-04
      8     -195.7484946636  -2.5897023E-05   1.0484413E-04
      9     -195.7484978173  -3.1536918E-06   4.5554440E-05
     10     -195.7484978074   9.8519024E-09   3.3494687E-05
     11     -195.7484982034  -3.9596216E-07   9.2598636E-06
------------------------------------------------------------

 total:                                   8.544 sec
 * total energy  :  -195.7484982 Eh     change       -0.4973567E-02 Eh
   gradient norm :     0.0161664 Eh/α   predicted    -0.4858765E-02 (  -2.31%)
   displ. norm   :     0.8454936 α      lambda       -0.5282752E-02
   maximum displ.:     0.2657435 α      in ANC's #14, #8, #19, ...

........................................................................
.............................. CYCLE   20 ..............................
........................................................................
------------------------------------------------------------
  cycle        total energy    energy error   density error
------------------------------------------------------------
      1     -195.7525300362  -1.9876573E+02   3.0248435E-03
      2     -195.7495520087   2.9780275E-03   3.1586453E-03
      3     -195.7248681359   2.4683873E-02   8.0662975E-03
      4     -195.7417910382  -1.6922902E-02   4.8110545E-03
      5     -195.7517250694  -9.9340312E-03   1.4444071E-03
      6     -195.7525462285  -8.2115910E-04   5.8304222E-04
      7     -195.7525200583   2.6170205E-05   6.2145600E-04
      8     -195.7525521271  -3.2068829E-05   5.3631021E-04
      9     -195.7526327829  -8.0655739E-05   2.7220026E-04
     10     -195.7526613304  -2.8547550E-05   3.5142244E-05
     11     -195.7526614355  -1.0504158E-07   3.2652864E-05
     12     -195.7526616467  -2.1125234E-07   1.9390161E-05
------------------------------------------------------------

 total:                                   6.949 sec
 * total energy  :  -195.7526616 Eh     change       -0.4163443E-02 Eh
   gradient norm :     0.0255448 Eh/α   predicted    -0.4529595E-02 (   8.79%)
   displ. norm   :     0.7752365 α      lambda       -0.5073581E-02
   maximum displ.:     0.2876195 α      in ANC's #14, #8, #31, ...
 * RMSD in coord.:     1.1210544 α      energy gain  -0.7866788E+00 Eh

generating ANC from exact Hessian ...
Using Lindh-Hessian (1995)
 Shifting diagonal of input Hessian by    1.0425062058527492E-002
 Lowest  eigenvalues of input Hessian
    0.010000    0.000000    0.000000    0.000000    0.000000    0.000000
    0.000000    0.010463    0.010520    0.010567    0.010629    0.010723
    0.010843    0.010877    0.010898    0.010960    0.011221    0.011230
 Highest eigenvalues
    2.080679    2.082146    2.187310    2.193992    2.196232    2.201280


........................................................................
.............................. CYCLE   21 ..............................
........................................................................
------------------------------------------------------------
  cycle        total energy    energy error   density error
------------------------------------------------------------
      1     -195.7560877780  -1.9877402E+02   2.6986947E-03
      2     -195.7249798395   3.1107938E-02   8.7071243E-03
      3     -195.7477559483  -2.2776109E-02   4.7695984E-03
      4     -195.7506073323  -2.8513840E-03   3.5704678E-03
      5     -195.7559820200  -5.3746877E-03   1.0126469E-03
      6     -195.7563221603  -3.4014026E-04   5.9530102E-04
      7     -195.7564224087  -1.0024848E-04   3.2619181E-04
      8     -195.7564614114  -3.9002696E-05   9.7047513E-05
      9     -195.7564624817  -1.0703054E-06   7.3789841E-05
     10     -195.7564639352  -1.4534281E-06   3.6992457E-05
     11     -195.7564643802  -4.4507547E-07   1.4924261E-05
------------------------------------------------------------

 total:                                   7.614 sec
 * total energy  :  -195.7564644 Eh     change       -0.3802734E-02 Eh
   gradient norm :     0.0210085 Eh/α   predicted     0.0000000E+00 (-100.00%)
   displ. norm   :     0.3404673 α      lambda       -0.2740843E-02
   maximum displ.:     0.1180724 α      in ANC's #9, #6, #27, ...

........................................................................
.............................. CYCLE   22 ..............................
........................................................................
------------------------------------------------------------
  cycle        total energy    energy error   density error
------------------------------------------------------------
      1     -195.7587894380  -1.9878029E+02   1.4994325E-03
      2     -195.7583005512   4.8888685E-04   1.3499806E-03
      3     -195.7413823098   1.6918241E-02   6.4181492E-03
      4     -195.7585543863  -1.7172076E-02   7.2521627E-04
      5     -195.7586327672  -7.8380898E-05   6.1942164E-04
      6     -195.7587918001  -1.5903284E-04   2.1437110E-04
      7     -195.7587873951   4.4049483E-06   2.2733821E-04
      8     -195.7587981066  -1.0711462E-05   1.5831145E-04
      9     -195.7588066951  -8.5885041E-06   5.8830575E-05
     10     -195.7588080615  -1.3664460E-06   7.5534615E-06
     11     -195.7588080799  -1.8388789E-08   3.1521131E-06
------------------------------------------------------------

 total:                                   8.651 sec
 * total energy  :  -195.7588081 Eh     change       -0.2343700E-02 Eh
   gradient norm :     0.0095171 Eh/α   predicted    -0.1529316E-02 ( -34.75%)
   displ. norm   :     0.7314686 α      lambda       -0.4182270E-02
   maximum displ.:     0.2618587 α      in ANC's #9, #27, #6, ...

........................................................................
.............................. CYCLE   23 ..............................
........................................................................
------------------------------------------------------------
  cycle        total energy    energy error   density error
------------------------------------------------------------
      1     -195.7622245543  -1.9878484E+02   2.8938252E-03
      2     -195.7612314416   9.9311275E-04   2.3906491E-03
      3     -195.7183340743   4.2897367E-02   1.0147938E-02
      4     -195.7606056067  -4.2271532E-02   1.9312453E-03
      5     -195.7617573638  -1.1517571E-03   1.1292352E-03
      6     -195.7621413201  -3.8395624E-04   5.9430768E-04
      7     -195.7622712089  -1.2988880E-04   2.2095813E-04
      8     -195.7622826233  -1.1414390E-05   1.4115077E-04
      9     -195.7622902371  -7.6138232E-06   5.2749205E-05
     10     -195.7622898816   3.5551898E-07   5.7711642E-05
     11     -195.7622908593  -9.7771570E-07   2.9823517E-05
     12     -195.7622911107  -2.5141529E-07   1.3934501E-05
------------------------------------------------------------

 total:                                  10.565 sec
 * total energy  :  -195.7622911 Eh     change       -0.3483031E-02 Eh
   gradient norm :     0.0177862 Eh/α   predicted    -0.3210696E-02 (  -7.82%)
   displ. norm   :     0.7770567 α      lambda       -0.3577885E-02
   maximum displ.:     0.2910100 α      in ANC's #9, #27, #11, ...

........................................................................
.............................. CYCLE   24 ..............................
........................................................................
------------------------------------------------------------
  cycle        total energy    energy error   density error
------------------------------------------------------------
      1     -195.7654343081  -1.9878495E+02   2.8347513E-03
      2     -195.7562772606   9.1570475E-03   4.8805723E-03
      3     -195.7449521868   1.1325074E-02   7.0687992E-03
      4     -195.7644401607  -1.9487974E-02   1.6050157E-03
      5     -195.7651829831  -7.4282240E-04   9.0157825E-04
      6     -195.7654328523  -2.4986921E-04   5.3388814E-04
      7     -195.7654160486   1.6803712E-05   5.8096248E-04
      8     -195.7654236788  -7.6301916E-06   5.4723932E-04
      9     -195.7655340668  -1.1038803E-04   1.3139580E-04
     10     -195.7655407718  -6.7049218E-06   1.3137578E-05
     11     -195.7655407927  -2.0982355E-08   9.6193802E-06
------------------------------------------------------------

 total:                                   5.352 sec
 * total energy  :  -195.7655408 Eh     change       -0.3249682E-02 Eh
   gradient norm :     0.0237634 Eh/α   predicted    -0.2869137E-02 ( -11.71%)
   displ. norm   :     0.8178163 α      lambda       -0.3958545E-02
   maximum displ.:     0.3154654 α      in ANC's #9, #11, #6, ...

........................................................................
.............................. CYCLE   25 ..............................
........................................................................
------------------------------------------------------------
  cycle        total energy    energy error   density error
------------------------------------------------------------
      1     -195.7690414476  -1.9878633E+02   2.7993402E-03
      2     -195.7641323205   4.9091271E-03   3.8309413E-03
      3     -195.7416230537   2.2509267E-02   8.1240544E-03
      4     -195.7677529796  -2.6129926E-02   1.7958598E-03
      5     -195.7687399268  -9.8694723E-04   9.3549457E-04
      6     -195.7690126356  -2.7270882E-04   4.9533487E-04
      7     -195.7691133662  -1.0073055E-04   1.7280130E-04
      8     -195.7691120978   1.2683301E-06   1.8256074E-04
      9     -195.7691254040  -1.3306118E-05   3.4436229E-05
     10     -195.7691249300   4.7397873E-07   4.5334328E-05
     11     -195.7691255463  -6.1634407E-07   2.4594914E-05
     12     -195.7691257473  -2.0099858E-07   9.7195645E-06
------------------------------------------------------------

 total:                                   5.790 sec
 * total energy  :  -195.7691257 Eh     change       -0.3584955E-02 Eh
   gradient norm :     0.0179763 Eh/α   predicted    -0.3303056E-02 (  -7.86%)
   displ. norm   :     0.8340818 α      lambda       -0.3852835E-02
   maximum displ.:     0.3301144 α      in ANC's #9, #11, #6, ...

........................................................................
.............................. CYCLE   26 ..............................
........................................................................
------------------------------------------------------------
  cycle        total energy    energy error   density error
------------------------------------------------------------
      1     -195.7725043347  -1.9878952E+02   2.8293550E-03
      2     -195.7663152623   6.1890725E-03   4.1057173E-03
      3     -195.7486551309   1.7660131E-02   7.4873977E-03
      4     -195.7716159741  -2.2960843E-02   1.5436171E-03
      5     -195.7722100462  -5.9407214E-04   9.2492486E-04
      6     -195.7724812243  -2.7117804E-04   5.5185619E-04
      7     -195.7724636174   1.7606859E-05   5.9934111E-04
      8     -195.7724574674   6.1500604E-06   5.9657213E-04
      9     -195.7725824340  -1.2496660E-04   1.7586231E-04
     10     -195.7725947012  -1.2267263E-05   2.0810591E-05
     11     -195.7725948089  -1.0766053E-07   1.3092488E-05
------------------------------------------------------------

 total:                                   4.844 sec
 * total energy  :  -195.7725948 Eh     change       -0.3469062E-02 Eh
   gradient norm :     0.0124352 Eh/α   predicted    -0.3266617E-02 (  -5.84%)
   displ. norm   :     0.8425578 α      lambda       -0.3513013E-02
   maximum displ.:     0.3425980 α      in ANC's #9, #11, #6, ...

........................................................................
.............................. CYCLE   27 ..............................
........................................................................
------------------------------------------------------------
  cycle        total energy    energy error   density error
------------------------------------------------------------
      1     -195.7756541196  -1.9879430E+02   2.8139226E-03
      2     -195.7644876750   1.1166445E-02   5.3247841E-03
      3     -195.7575171468   6.9705281E-03   6.6335619E-03
      4     -195.7751101000  -1.7592953E-02   1.1703250E-03
      5     -195.7755128958  -4.0279581E-04   7.2414232E-04
      6     -195.7756931782  -1.8028242E-04   4.5752032E-04
      7     -195.7757044392  -1.1261015E-05   4.4076466E-04
      8     -195.7756899992   1.4439989E-05   4.6620974E-04
      9     -195.7757589526  -6.8953389E-05   1.9677643E-04
     10     -195.7757736543  -1.4701684E-05   1.8667440E-05
     11     -195.7757737425  -8.8159680E-08   7.6624766E-06
------------------------------------------------------------

 total:                                   4.381 sec
 * total energy  :  -195.7757737 Eh     change       -0.3178934E-02 Eh
   gradient norm :     0.0102150 Eh/α   predicted    -0.3003456E-02 (  -5.52%)
   displ. norm   :     0.8656713 α      lambda       -0.3226481E-02
   maximum displ.:     0.3562610 α      in ANC's #9, #11, #6, ...

........................................................................
.............................. CYCLE   28 ..............................
........................................................................
------------------------------------------------------------
  cycle        total energy    energy error   density error
------------------------------------------------------------
      1     -195.7786590079  -1.9879590E+02   2.7854710E-03
      2     -195.7771590969   1.4999110E-03   2.4397389E-03
      3     -195.7451437840   3.2015313E-02   8.4610922E-03
      4     -195.7766938797  -3.1550096E-02   2.0217274E-03
      5     -195.7782718000  -1.5779203E-03   1.0134579E-03
      6     -195.7786062685  -3.3446857E-04   6.0328723E-04
      7     -195.7785193088   8.6959774E-05   7.5976182E-04
      8     -195.7785199176  -6.0878546E-07   7.4647264E-04
      9     -195.7787197916  -1.9987409E-04   1.4635246E-04
     10     -195.7787232786  -3.4869311E-06   1.2638024E-04
     11     -195.7787277401  -4.4615257E-06   5.4062698E-05
     12     -195.7787287939  -1.0538232E-06   1.2492098E-05
     13     -195.7787284453   3.4861611E-07   3.3275875E-05
     14     -195.7787287083  -2.6295595E-07   1.9114653E-05
------------------------------------------------------------

 total:                                   5.800 sec
 * total energy  :  -195.7787287 Eh     change       -0.2954966E-02 Eh
   gradient norm :     0.0126256 Eh/α   predicted    -0.2822227E-02 (  -4.49%)
   displ. norm   :     0.8539178 α      lambda       -0.3330251E-02
   maximum displ.:     0.3523013 α      in ANC's #9, #11, #6, ...

........................................................................
.............................. CYCLE   29 ..............................
........................................................................
------------------------------------------------------------
  cycle        total energy    energy error   density error
------------------------------------------------------------
      1     -195.7812258818  -1.9881207E+02   2.7024932E-03
      2     -195.7658457900   1.5380092E-02   6.1679626E-03
      3     -195.7711512913  -5.3055013E-03   5.0607913E-03
      4     -195.7800226415  -8.8713501E-03   1.6129720E-03
      5     -195.7809856562  -9.6301471E-04   9.6600652E-04
      6     -195.7813685654  -3.8290921E-04   3.5967040E-04
      7     -195.7813669506   1.6147583E-06   3.6849349E-04
      8     -195.7813721521  -5.2014765E-06   3.3998374E-04
      9     -195.7814041175  -3.1965365E-05   1.8302893E-04
     10     -195.7814165594  -1.2441957E-05   4.2177970E-05
     11     -195.7814171023  -5.4286136E-07   1.9072389E-05
------------------------------------------------------------

 total:                                   4.231 sec
 * total energy  :  -195.7814171 Eh     change       -0.2688394E-02 Eh
   gradient norm :     0.0200016 Eh/α   predicted    -0.2879294E-02 (   7.10%)
   displ. norm   :     0.8497098 α      lambda       -0.3301596E-02
   maximum displ.:     0.3468709 α      in ANC's #9, #6, #11, ...

........................................................................
.............................. CYCLE   30 ..............................
........................................................................
------------------------------------------------------------
  cycle        total energy    energy error   density error
------------------------------------------------------------
      1     -195.7839980115  -1.9880258E+02   2.7086515E-03
      2     -195.7830492454   9.4876616E-04   2.1680755E-03
      3     -195.7574304202   2.5618825E-02   7.8733406E-03
      4     -195.7623233320  -4.8929117E-03   6.8683062E-03
      5     -195.7839407163  -2.1617384E-02   7.0968167E-04
      6     -195.7841144118  -1.7369554E-04   2.1987358E-04
      7     -195.7841276741  -1.3262288E-05   1.3582255E-04
      8     -195.7841305775  -2.9034579E-06   1.0132536E-04
      9     -195.7841334388  -2.8612199E-06   5.5020329E-05
     10     -195.7841341835  -7.4477143E-07   2.9078326E-05
     11     -195.7841343511  -1.6755411E-07   1.8841763E-05
------------------------------------------------------------

 total:                                   4.124 sec
 * total energy  :  -195.7841344 Eh     change       -0.2717249E-02 Eh
   gradient norm :     0.0177689 Eh/α   predicted    -0.2842687E-02 (   4.62%)
   displ. norm   :     0.7723809 α      lambda       -0.2741374E-02
   maximum displ.:     0.3128766 α      in ANC's #6, #9, #11, ...

........................................................................
.............................. CYCLE   31 ..............................
........................................................................
------------------------------------------------------------
  cycle        total energy    energy error   density error
------------------------------------------------------------
      1     -195.7865577149  -1.9880015E+02   2.2141854E-03
      2     -195.7856599098   8.9780501E-04   1.9852424E-03
      3     -195.7551643024   3.0495607E-02   8.5611134E-03
      4     -195.7793471783  -2.4182876E-02   3.8707064E-03
      5     -195.7863342158  -6.9870376E-03   8.2659302E-04
      6     -195.7865964181  -2.6220226E-04   2.8128143E-04
      7     -195.7866291710  -3.2752948E-05   7.6089906E-05
      8     -195.7866297486  -5.7751612E-07   6.6085558E-05
      9     -195.7866311245  -1.3759261E-06   2.7248150E-05
     10     -195.7866313347  -2.1027031E-07   1.5208031E-05
------------------------------------------------------------

 total:                                   4.184 sec
 * total energy  :  -195.7866313 Eh     change       -0.2496984E-02 Eh
   gradient norm :     0.0164684 Eh/α   predicted    -0.2188407E-02 ( -12.36%)
   displ. norm   :     0.7825709 α      lambda       -0.3305256E-02
   maximum displ.:     0.3093475 α      in ANC's #6, #11, #9, ...

........................................................................
.............................. CYCLE   32 ..............................
........................................................................
------------------------------------------------------------
  cycle        total energy    energy error   density error
------------------------------------------------------------
      1     -195.7893186413  -1.9881020E+02   2.3103631E-03
      2     -195.7850004912   4.3181501E-03   3.4469709E-03
      3     -195.7725981415   1.2402350E-02   6.3066722E-03
      4     -195.7874884714  -1.4890330E-02   2.0093524E-03
      5     -195.7888352934  -1.3468220E-03   1.1149445E-03
      6     -195.7893176858  -4.8239244E-04   4.9622552E-04
      7     -195.7893340912  -1.6405364E-05   4.5340901E-04
      8     -195.7893690356  -3.4944469E-05   3.3290305E-04
      9     -195.7894028242  -3.3788544E-05   1.5790527E-04
     10     -195.7894114354  -8.6112367E-06   5.3264246E-05
     11     -195.7894121526  -7.1715633E-07   2.9416919E-05
     12     -195.7894124278  -2.7526684E-07   9.0335809E-06
------------------------------------------------------------

 total:                                   6.763 sec
 * total energy  :  -195.7894124 Eh     change       -0.2781093E-02 Eh
   gradient norm :     0.0147588 Eh/α   predicted    -0.2664734E-02 (  -4.18%)
   displ. norm   :     0.8422959 α      lambda       -0.2867778E-02
   maximum displ.:     0.3577227 α      in ANC's #6, #11, #9, ...

........................................................................
.............................. CYCLE   33 ..............................
........................................................................
------------------------------------------------------------
  cycle        total energy    energy error   density error
------------------------------------------------------------
      1     -195.7918084957  -1.9880864E+02   2.4564067E-03
      2     -195.7914961941   3.1230151E-04   1.6704811E-03
      3     -195.7746266578   1.6869536E-02   6.0746328E-03
      4     -195.7735742664   1.0523914E-03   6.5266262E-03
      5     -195.7913343340  -1.7760068E-02   1.1465407E-03
      6     -195.7918827066  -5.4837253E-04   1.1562845E-04
      7     -195.7918806135   2.0931059E-06   1.4207800E-04
      8     -195.7918821626  -1.5490931E-06   1.2673094E-04
      9     -195.7918857071  -3.5445327E-06   8.1130537E-05
     10     -195.7918873963  -1.6891782E-06   4.1084068E-05
     11     -195.7918877999  -4.0364444E-07   2.4861353E-05
     12     -195.7918879719  -1.7194347E-07   1.2054333E-05
------------------------------------------------------------

 total:                                   7.112 sec
 * total energy  :  -195.7918880 Eh     change       -0.2475544E-02 Eh
   gradient norm :     0.0150419 Eh/α   predicted    -0.2451188E-02 (  -0.98%)
   displ. norm   :     0.7900422 α      lambda       -0.2648810E-02
   maximum displ.:     0.3323026 α      in ANC's #6, #3, #11, ...

........................................................................
.............................. CYCLE   34 ..............................
........................................................................
------------------------------------------------------------
  cycle        total energy    energy error   density error
------------------------------------------------------------
      1     -195.7940563439  -1.9881620E+02   2.3140373E-03
      2     -195.7938020064   2.5433751E-04   1.5851256E-03
      3     -195.7710068879   2.2795119E-02   7.0754153E-03
      4     -195.7886349620  -1.7628074E-02   3.5344676E-03
      5     -195.7935846115  -4.9496495E-03   1.0941532E-03
      6     -195.7940720237  -4.8741217E-04   2.9927410E-04
      7     -195.7940766261  -4.6024196E-06   2.8063054E-04
      8     -195.7940828314  -6.2053199E-06   2.4438955E-04
      9     -195.7940998602  -1.7028729E-05   1.2432818E-04
     10     -195.7941055951  -5.7349834E-06   2.4972000E-05
     11     -195.7941058171  -2.2196076E-07   9.2813684E-06
------------------------------------------------------------

 total:                                   5.572 sec
 * total energy  :  -195.7941058 Eh     change       -0.2217845E-02 Eh
   gradient norm :     0.0131236 Eh/α   predicted    -0.2151059E-02 (  -3.01%)
   displ. norm   :     0.7854321 α      lambda       -0.2193420E-02
   maximum displ.:     0.3713733 α      in ANC's #6, #3, #11, ...

........................................................................
.............................. CYCLE   35 ..............................
........................................................................
------------------------------------------------------------
  cycle        total energy    energy error   density error
------------------------------------------------------------
      1     -195.7959390977  -1.9881433E+02   2.0651600E-03
      2     -195.7957014816   2.3761610E-04   1.4262923E-03
      3     -195.7801838392   1.5517642E-02   5.8657211E-03
      4     -195.7851649619  -4.9811227E-03   5.0217605E-03
      5     -195.7956293776  -1.0464416E-02   8.9984557E-04
      6     -195.7959710758  -3.4169819E-04   1.8954356E-04
      7     -195.7959809698  -9.8939472E-06   1.2061160E-04
      8     -195.7959811613  -1.9147777E-07   1.1604443E-04
      9     -195.7959841291  -2.9678303E-06   7.5351998E-05
     10     -195.7959858457  -1.7165595E-06   3.0854066E-05
     11     -195.7959861298  -2.8417418E-07   1.4679025E-05
------------------------------------------------------------

 total:                                   7.064 sec
 * total energy  :  -195.7959861 Eh     change       -0.1880313E-02 Eh
   gradient norm :     0.0120114 Eh/α   predicted    -0.1773283E-02 (  -5.69%)
   displ. norm   :     0.7336860 α      lambda       -0.2056967E-02
   maximum displ.:     0.3609133 α      in ANC's #6, #3, #11, ...

........................................................................
.............................. CYCLE   36 ..............................
........................................................................
------------------------------------------------------------
  cycle        total energy    energy error   density error
------------------------------------------------------------
      1     -195.7974514920  -1.9881975E+02   1.8879029E-03
      2     -195.7872711927   1.0180299E-02   4.9876506E-03
      3     -195.7918210854  -4.5498927E-03   3.8162620E-03
      4     -195.7969113310  -5.0902456E-03   1.1495097E-03
      5     -195.7973433065  -4.3197547E-04   6.8895626E-04
      6     -195.7975057506  -1.6244407E-04   3.9170549E-04
      7     -195.7975432031  -3.7452498E-05   2.5031465E-04
      8     -195.7975567939  -1.3590837E-05   1.6263976E-04
      9     -195.7975648514  -8.0575071E-06   7.1409295E-05
     10     -195.7975665901  -1.7386581E-06   2.5596741E-05
     11     -195.7975668104  -2.2037122E-07   8.3845916E-06
------------------------------------------------------------

 total:                                   7.234 sec
 * total energy  :  -195.7975668 Eh     change       -0.1580681E-02 Eh
   gradient norm :     0.0172971 Eh/α   predicted    -0.1582112E-02 (   0.09%)
   displ. norm   :     0.7546026 α      lambda       -0.2102602E-02
   maximum displ.:     0.3745684 α      in ANC's #6, #3, #11, ...

........................................................................
.............................. CYCLE   37 ..............................
........................................................................
------------------------------------------------------------
  cycle        total energy    energy error   density error
------------------------------------------------------------
      1     -195.7990691926  -1.9882015E+02   1.7487844E-03
      2     -195.7966646050   2.4045876E-03   2.5902347E-03
      3     -195.7853295111   1.1335094E-02   5.7894532E-03
      4     -195.7947616487  -9.4321376E-03   2.9593330E-03
      5     -195.7990705589  -4.3089102E-03   3.5309084E-04
      6     -195.7991108515  -4.0292646E-05   1.3844337E-04
      7     -195.7991180988  -7.2473159E-06   6.2508193E-05
      8     -195.7991194102  -1.3113895E-06   2.6274363E-05
      9     -195.7991194573  -4.7069989E-08   1.7705758E-05
------------------------------------------------------------

 total:                                   6.720 sec
 * total energy  :  -195.7991195 Eh     change       -0.1552647E-02 Eh
   gradient norm :     0.0162167 Eh/α   predicted    -0.1649945E-02 (   6.27%)
   displ. norm   :     0.6777287 α      lambda       -0.1867392E-02
   maximum displ.:     0.3557244 α      in ANC's #6, #3, #8, ...

........................................................................
.............................. CYCLE   38 ..............................
........................................................................
------------------------------------------------------------
  cycle        total energy    energy error   density error
------------------------------------------------------------
      1     -195.8005701278  -1.9881647E+02   1.5259276E-03
      2     -195.7871648513   1.3405276E-02   5.6558436E-03
      3     -195.7986599693  -1.1495118E-02   2.3575683E-03
      4     -195.8002360064  -1.5760371E-03   9.8557165E-04
      5     -195.8005837988  -3.4779241E-04   5.4348325E-04
      6     -195.8006897559  -1.0595711E-04   2.6309837E-04
      7     -195.8007102345  -2.0478561E-05   1.3714120E-04
      8     -195.8007161565  -5.9220126E-06   5.8304380E-05
      9     -195.8007171804  -1.0239096E-06   2.3619015E-05
     10     -195.8007173979  -2.1753053E-07   5.6905669E-06
------------------------------------------------------------

 total:                                   9.551 sec
 * total energy  :  -195.8007174 Eh     change       -0.1597941E-02 Eh
   gradient norm :     0.0138341 Eh/α   predicted    -0.1362559E-02 ( -14.73%)
   displ. norm   :     0.7178884 α      lambda       -0.2423023E-02
   maximum displ.:     0.3854597 α      in ANC's #6, #3, #8, ...

........................................................................
.............................. CYCLE   39 ..............................
........................................................................
------------------------------------------------------------
  cycle        total energy    energy error   density error
------------------------------------------------------------
      1     -195.8023351434  -1.9882297E+02   1.7381388E-03
      2     -195.7843841203   1.7951023E-02   6.5382348E-03
      3     -195.8006469004  -1.6262780E-02   2.3165819E-03
      4     -195.8016586038  -1.0117034E-03   1.3690030E-03
      5     -195.8023396337  -6.8102985E-04   7.5175715E-04
      6     -195.8025396007  -1.9996702E-04   3.4356044E-04
      7     -195.8025778818  -3.8281068E-05   1.4587646E-04
      8     -195.8025839221  -6.0403866E-06   7.0932838E-05
      9     -195.8025857033  -1.7812100E-06   2.1251567E-05
     10     -195.8025858267  -1.2331105E-07   1.3760826E-05
------------------------------------------------------------

 total:                                   9.503 sec
 * total energy  :  -195.8025858 Eh     change       -0.1868429E-02 Eh
   gradient norm :     0.0157482 Eh/α   predicted    -0.1835884E-02 (  -1.74%)
   displ. norm   :     0.7930807 α      lambda       -0.2060696E-02
   maximum displ.:     0.4148752 α      in ANC's #6, #3, #8, ...

........................................................................
.............................. CYCLE   40 ..............................
........................................................................
------------------------------------------------------------
  cycle        total energy    energy error   density error
------------------------------------------------------------
      1     -195.8044179830  -1.9882217E+02   1.6242471E-03
      2     -195.8029989629   1.4190201E-03   2.0471388E-03
      3     -195.7877376832   1.5261280E-02   6.4024073E-03
      4     -195.8037176842  -1.5980001E-02   1.1926725E-03
      5     -195.8043549082  -6.3722405E-04   4.6372020E-04
      6     -195.8044435090  -8.8600767E-05   1.3717511E-04
      7     -195.8044470539  -3.5449262E-06   8.8511025E-05
      8     -195.8044490701  -2.0161815E-06   5.1457858E-05
      9     -195.8044496509  -5.8074355E-07   3.4388175E-05
     10     -195.8044496804  -2.9557413E-08   3.2007458E-05
     11     -195.8044498531  -1.7267706E-07   2.3691990E-05
     12     -195.8044499990  -1.4592877E-07   1.2734131E-05
------------------------------------------------------------

 total:                                  12.426 sec
 * total energy  :  -195.8044500 Eh     change       -0.1864172E-02 Eh
   gradient norm :     0.0157973 Eh/α   predicted    -0.1678423E-02 (  -9.96%)
   displ. norm   :     0.8268985 α      lambda       -0.2217315E-02
   maximum displ.:     0.4457269 α      in ANC's #6, #3, #8, ...

........................................................................
.............................. CYCLE   41 ..............................
........................................................................
------------------------------------------------------------
  cycle        total energy    energy error   density error
------------------------------------------------------------
      1     -195.8064056531  -1.9882249E+02   1.6421671E-03
      2     -195.8063554763   5.0176809E-05   1.0207869E-03
      3     -195.7890420578   1.7313418E-02   6.4731260E-03
      4     -195.8051811966  -1.6139139E-02   1.6512652E-03
      5     -195.8063312184  -1.1500219E-03   4.5556486E-04
      6     -195.8064235962  -9.2377723E-05   1.0918655E-04
      7     -195.8064234664   1.2977887E-07   1.0350936E-04
      8     -195.8064256712  -2.2048384E-06   7.2628845E-05
      9     -195.8064269161  -1.2448516E-06   4.5910601E-05
     10     -195.8064273291  -4.1300524E-07   3.0708488E-05
     11     -195.8064275042  -1.7511388E-07   2.1547159E-05
     12     -195.8064276071  -1.0286470E-07   1.3367949E-05
------------------------------------------------------------

 total:                                   8.924 sec
 * total energy  :  -195.8064276 Eh     change       -0.1977608E-02 Eh
   gradient norm :     0.0111747 Eh/α   predicted    -0.1866719E-02 (  -5.61%)
   displ. norm   :     0.8462632 α      lambda       -0.2182181E-02
   maximum displ.:     0.4513268 α      in ANC's #6, #3, #8, ...

........................................................................
.............................. CYCLE   42 ..............................
........................................................................
------------------------------------------------------------
  cycle        total energy    energy error   density error
------------------------------------------------------------
      1     -195.8083228256  -1.9882462E+02   1.6624124E-03
      2     -195.8082366862   8.6139326E-05   1.0710285E-03
      3     -195.7920385373   1.6198149E-02   6.1812308E-03
      4     -195.8070239573  -1.4985420E-02   1.7526421E-03
      5     -195.8082305137  -1.2065564E-03   5.0078990E-04
      6     -195.8083398194  -1.0930570E-04   1.1496018E-04
      7     -195.8083434950  -3.6756037E-06   6.4327058E-05
      8     -195.8083445762  -1.0811543E-06   3.6440902E-05
      9     -195.8083449773  -4.0116791E-07   2.0304848E-05
     10     -195.8083450947  -1.1734897E-07   1.1895679E-05
------------------------------------------------------------

 total:                                   5.516 sec
 * total energy  :  -195.8083451 Eh     change       -0.1917488E-02 Eh
   gradient norm :     0.0117011 Eh/α   predicted    -0.1872495E-02 (  -2.35%)
   displ. norm   :     0.8584056 α      lambda       -0.2057098E-02
   maximum displ.:     0.4572271 α      in ANC's #6, #3, #8, ...
 * RMSD in coord.:     1.1826142 α      energy gain  -0.5568345E-01 Eh

generating ANC from exact Hessian ...
Using Lindh-Hessian (1995)
 Shifting diagonal of input Hessian by    1.0089551215507879E-002
 Lowest  eigenvalues of input Hessian
    0.010000    0.000000    0.000000    0.000000    0.000000    0.000000
    0.000000    0.010125    0.010147    0.010244    0.010270    0.010416
    0.010489    0.010554    0.010593    0.010826    0.010892    0.010950
 Highest eigenvalues
    2.088914    2.093157    2.187073    2.187656    2.201953    2.205693


........................................................................
.............................. CYCLE   43 ..............................
........................................................................
------------------------------------------------------------
  cycle        total energy    energy error   density error
------------------------------------------------------------
      1     -195.8101899697  -1.9882525E+02   1.6373195E-03
      2     -195.8100493643   1.4060542E-04   1.1234820E-03
      3     -195.7855382651   2.4511099E-02   7.7583281E-03
      4     -195.8093546701  -2.3816405E-02   1.3800026E-03
      5     -195.8101289489  -7.7427882E-04   4.1661351E-04
      6     -195.8101977563  -6.8807370E-05   1.7381801E-04
      7     -195.8102071642  -9.4079364E-06   1.0500601E-04
      8     -195.8102100757  -2.9115015E-06   5.8043373E-05
      9     -195.8102110384  -9.6267610E-07   2.9940433E-05
     10     -195.8102111890  -1.5061275E-07   2.2071337E-05
     11     -195.8102112500  -6.0986764E-08   1.7459766E-05
------------------------------------------------------------

 total:                                   6.404 sec
 * total energy  :  -195.8102112 Eh     change       -0.1866155E-02 Eh
   gradient norm :     0.0123558 Eh/α   predicted     0.0000000E+00 (-100.00%)
   displ. norm   :     0.2184012 α      lambda       -0.8122388E-03
   maximum displ.:     0.1011904 α      in ANC's #7, #3, #1, ...

........................................................................
.............................. CYCLE   44 ..............................
........................................................................
------------------------------------------------------------
  cycle        total energy    energy error   density error
------------------------------------------------------------
      1     -195.8106679294  -1.9883077E+02   9.9346117E-04
      2     -195.7823658678   2.8302062E-02   8.3287037E-03
      3     -195.8109008631  -2.8534995E-02   4.0500966E-04
      4     -195.8108185884   8.2274719E-05   4.5962078E-04
      5     -195.8108896712  -7.1082815E-05   2.4630237E-04
      6     -195.8109189577  -2.9286485E-05   4.4704775E-05
      7     -195.8109196686  -7.1092782E-07   1.5311751E-05
------------------------------------------------------------

 total:                                   3.791 sec
 * total energy  :  -195.8109197 Eh     change       -0.7084186E-03 Eh
   gradient norm :     0.0056282 Eh/α   predicted    -0.4254973E-03 ( -39.94%)
   displ. norm   :     0.6137744 α      lambda       -0.1693821E-02
   maximum displ.:     0.2895021 α      in ANC's #7, #3, #1, ...

........................................................................
.............................. CYCLE   45 ..............................
........................................................................
------------------------------------------------------------
  cycle        total energy    energy error   density error
------------------------------------------------------------
      1     -195.8121224832  -1.9883735E+02   1.5697573E-03
      2     -195.7875088575   2.4613626E-02   7.7961329E-03
      3     -195.8112731436  -2.3764286E-02   1.7955045E-03
      4     -195.8110237699   2.4937370E-04   1.5889256E-03
      5     -195.8123128668  -1.2890969E-03   2.5184835E-04
      6     -195.8123323655  -1.9498676E-05   1.0583184E-04
      7     -195.8123358438  -3.4783704E-06   4.1795309E-05
      8     -195.8123361914  -3.4758148E-07   2.7087264E-05
      9     -195.8123363382  -1.4679893E-07   1.6672369E-05
------------------------------------------------------------

 total:                                   5.124 sec
 * total energy  :  -195.8123363 Eh     change       -0.1416670E-02 Eh
   gradient norm :     0.0092513 Eh/α   predicted    -0.1165958E-02 ( -17.70%)
   displ. norm   :     0.7436891 α      lambda       -0.1629852E-02
   maximum displ.:     0.3518538 α      in ANC's #7, #3, #1, ...

........................................................................
.............................. CYCLE   46 ..............................
........................................................................
------------------------------------------------------------
  cycle        total energy    energy error   density error
------------------------------------------------------------
      1     -195.8138288899  -1.9883787E+02   1.5382445E-03
      2     -195.8137608435   6.8046384E-05   1.0049829E-03
      3     -195.7938852106   1.9875633E-02   6.9688480E-03
      4     -195.8126174103  -1.8732200E-02   1.6161903E-03
      5     -195.8138163046  -1.1988943E-03   2.4473782E-04
      6     -195.8138402024  -2.3897791E-05   7.1639501E-05
      7     -195.8138402930  -9.0611877E-08   6.2970999E-05
      8     -195.8138414670  -1.1740028E-06   3.4642525E-05
      9     -195.8138417794  -3.1237659E-07   1.9004866E-05
------------------------------------------------------------

 total:                                   5.379 sec
 * total energy  :  -195.8138418 Eh     change       -0.1505441E-02 Eh
   gradient norm :     0.0142446 Eh/α   predicted    -0.1265749E-02 ( -15.92%)
   displ. norm   :     0.8268571 α      lambda       -0.1849384E-02
   maximum displ.:     0.3953384 α      in ANC's #7, #3, #1, ...

........................................................................
.............................. CYCLE   47 ..............................
........................................................................
------------------------------------------------------------
  cycle        total energy    energy error   density error
------------------------------------------------------------
      1     -195.8155079914  -1.9883455E+02   1.6865951E-03
      2     -195.8053490307   1.0158961E-02   5.1287707E-03
      3     -195.8142823320  -8.9333013E-03   1.9770183E-03
[...]
   (at your option) any later version.
   
   xtb is distributed in the hope that it will be useful,
   but WITHOUT ANY WARRANTY; without even the implied warranty of
   MERCHANTABILITY or FITNESS FOR A PARTICULAR PURPOSE.  See the
   GNU Lesser General Public License for more details.
   
   Cite this work as:
   * C. Bannwarth, E. Caldeweyher, S. Ehlert, A. Hansen, P. Pracht,
     J. Seibert, S. Spicher, S. Grimme, WIREs Comput. Mol. Sci., 2020, 11,
     e01493. DOI: 10.1002/wcms.1493
   
   for GFN2-xTB:
   * C. Bannwarth, S. Ehlert and S. Grimme., J. Chem. Theory Comput., 2019,
     15, 1652-1671. DOI: 10.1021/acs.jctc.8b01176
   for GFN1-xTB:
   * S. Grimme, C. Bannwarth, P. Shushkov, J. Chem. Theory Comput., 2017,
     13, 1989-2009. DOI: 10.1021/acs.jctc.7b00118
   for GFN0-xTB:
   * P. Pracht, E. Caldeweyher, S. Ehlert, S. Grimme, ChemRxiv, 2019, preprint.
     DOI: 10.26434/chemrxiv.8326202.v1
   for GFN-FF:
   * S. Spicher and S. Grimme, Angew. Chem. Int. Ed., 2020, 59, 15665-15673.
     DOI: 10.1002/anie.202004239
   
   for ALPB and GBSA implicit solvation:
   * S. Ehlert, M. Stahn, S. Spicher, S. Grimme, J. Chem. Theory Comput.,
     2021, 17, 4250-4261. DOI: 10.1021/acs.jctc.1c00471
   
   for ddCOSMO and CPCM-X implicit solvation:
   * M. Stahn, S. Ehlert, S. Grimme, J. Phys. Chem. A,
     2023, XX, XXXX-XXXX. DOI: 10.1021/acs.jpca.3c04382
   
   for DFT-D4:
   * E. Caldeweyher, C. Bannwarth and S. Grimme, J. Chem. Phys., 2017,
     147, 034112. DOI: 10.1063/1.4993215
   * E. Caldeweyher, S. Ehlert, A. Hansen, H. Neugebauer, S. Spicher,
     C. Bannwarth and S. Grimme, J. Chem. Phys., 2019, 150, 154122.
     DOI: 10.1063/1.5090222
   * E. Caldeweyher, J.-M. Mewes, S. Ehlert and S. Grimme, Phys. Chem. Chem. Phys.
     2020, 22, 8499-8512. DOI: 10.1039/D0CP00502A
   
   for sTDA-xTB:
   * S. Grimme and C. Bannwarth, J. Chem. Phys., 2016, 145, 054103.
     DOI: 10.1063/1.4959605
   
   in the mass-spec context:
   * V. Asgeirsson, C. Bauer and S. Grimme, Chem. Sci., 2017, 8, 4879.
     DOI: 10.1039/c7sc00601b
   * J. Koopman and S. Grimme, ACS Omega 2019, 4, 12, 15120-15133.
     DOI: 10.1021/acsomega.9b02011
   
   for metadynamics refer to:
   * S. Grimme, J. Chem. Theory Comput., 2019, 155, 2847-2862
     DOI: 10.1021/acs.jctc.9b00143
   
   for SPH calculations refer to:
   * S. Spicher and S. Grimme, J. Chem. Theory Comput., 2021, 17, 1701-1714
     DOI: 10.1021/acs.jctc.0c01306
   
   for ONIOM refer to:
   * C. Plett, A. Katbashev, S. Ehlert, S. Grimme, M. Bursch,
     Phys. Chem. Chem. Phys., 2023, 25, 17860-17868. DOI: 10.1039/D3CP02178E
   
   for DIPRO refer to:
   * J. Kohn, N. Gildemeister, S. Grimme, D. Fazzi, A. Hansen,
     J. Chem. Phys., 2023, just accepted.
   
   for PTB refer to:
   * S. Grimme, M. Mueller, A. Hansen, J. Chem. Phys., 2023, 158, 124111.
     DOI: 10.1063/5.0137838
   
   with help from (in alphabetical order)
   P. Atkinson, C. Bannwarth, F. Bohle, G. Brandenburg, E. Caldeweyher
   M. Checinski, S. Dohm, S. Ehlert, S. Ehrlich, I. Gerasimov, C. Hölzer
   A. Katbashev, J. Kohn, J. Koopman, C. Lavigne, S. Lehtola, F. März, M. Müller,
   F. Musil, H. Neugebauer, J. Pisarek, C. Plett, P. Pracht, F. Pultar,
   J. Seibert, P. Shushkov, S. Spicher, M. Stahn, M. Steiner, T. Strunk,
   J. Stückrath, T. Rose, and J. Unsleber
   
 * started run on 2025/03/10 at 16:18:52.568     
   ID    Z sym.   atoms
    1    6 C      1-9, 11, 12, 14-21, 25-33, 35, 36, 38-45, 48-71, 138-146,
                  148, 149, 151-158, 162-170, 172, 173, 175-182, 185-208
    2    7 N      10, 13, 34, 37, 147, 150, 171, 174
    3    8 O      22, 23, 46, 47, 159, 160, 183, 184
    4    5 B      24, 161
    5    1 H      72-137, 209-274

           -------------------------------------------------
          |                Calculation Setup                |
           -------------------------------------------------

          program call               : xtb opt_dimer.mol --dipro 0.3 --chrg 0 --uhf 2 --spinpol --tblite
          coordinate file            : opt_dimer.mol
          omp threads                :                     8


molecular fragmentation (1/2 indicates fragments):
111111111111111111111111111111111111111111111111111111111111111111111111
111111111111111111111111111111111111111111111111111111111111111112222222
222222222222222222222222222222222222222222222222222222222222222222222222
2222222222222222222222222222222222222222222222222222222222
# atoms in fragment 1/2:   137   137
 fragment masses (1/2) :      942.03      942.03
CMA distance (Bohr)    :  10.496
constraining FC (au)   :  0.0500
Wavefunction read from restart file
           -------------------------------------------------
          |                    D I P R O                    |
           -------------------------------------------------
Calculation for dimer 
--------------------- 
  
charge of dimer :   0.
unpaired e- of dimer :  2
repulsion energy          6.0553373229643E+00 Eh
dispersion energy         4.1735374442091E-02 Eh
number of electrons       7.2200000000000E+02 e
integral cutoff           1.9311100799991E+01 bohr

------------------------------------------------------------
  cycle        total energy    energy error   density error
------------------------------------------------------------
      1     -390.5683087167  -3.9666538E+02   1.3730523E-01
      2     -391.5322837411  -9.6397502E-01   7.1461993E-02
      3     -391.2253559722   3.0692777E-01   4.5365805E-02
      4     -391.0596334241   1.6572255E-01   3.5396331E-02
      5     -391.2730934945  -2.1346007E-01   2.6043903E-02
      6     -391.5205277051  -2.4743421E-01   1.6547464E-02
      7     -391.4792272287   4.1300476E-02   1.7073778E-02
      8     -391.6415313657  -1.6230414E-01   1.2609440E-02
      9     -391.7600664184  -1.1853505E-01   6.4969745E-03
     10     -391.7698520933  -9.7856749E-03   4.6296399E-03
     11     -391.7753971457  -5.5450524E-03   2.8211029E-03
     12     -391.7773524913  -1.9553456E-03   2.3432207E-03
     13     -391.7777574151  -4.0492389E-04   1.5761786E-03
     14     -391.7788708934  -1.1134783E-03   1.0096257E-03
     15     -391.7794962726  -6.2537914E-04   4.1052935E-04
     16     -391.7795739980  -7.7725415E-05   2.5624225E-04
     17     -391.7795799794  -5.9814059E-06   2.0981707E-04
     18     -391.7795933962  -1.3416867E-05   1.3068411E-04
     19     -391.7795984797  -5.0834711E-06   5.6959819E-05
     20     -391.7795999482  -1.4684690E-06   3.3922536E-05
     21     -391.7796003152  -3.6702988E-07   1.9813076E-05
------------------------------------------------------------

electronic energy        -3.9787667301263E+02 Eh
total energy             -3.9177960031522E+02 Eh

 total:                                  44.908 sec
 - repulsion                              0.001 sec (  0%)
 - dispersion                             0.049 sec (  0%)
 - coulomb                                0.014 sec (  0%)
 - hamiltonian                            0.128 sec (  0%)
 - scc                                   44.715 sec ( 99%)

Found 2 fragments!
Fragment 1:  1-137
Fragment 2:  138-274

[Info] Fragment spin read from .UHFfrag
Calculation for fragment 1
 ------------------------------
   
charge of fragment :   0.
unpaired e- of fragment :  1
------------------------------------------------------------
  cycle        total energy    energy error   density error
------------------------------------------------------------
      1     -195.2410028350  -1.9827152E+02   1.3766209E-01
      2     -195.6987204819  -4.5771765E-01   7.2141933E-02
      3     -195.2189101702   4.7981031E-01   5.3047165E-02
      4     -195.2104788400   8.4313302E-03   4.1373611E-02
      5     -195.7335913663  -5.2311253E-01   2.2118952E-02
      6     -195.8034497625  -6.9858396E-02   1.4234394E-02
      7     -195.8273493865  -2.3899624E-02   1.0303925E-02
      8     -195.8509149686  -2.3565582E-02   4.6456668E-03
      9     -195.8528101904  -1.8952218E-03   3.1247688E-03
     10     -195.8507093763   2.1008141E-03   3.1082439E-03
     11     -195.8521966644  -1.4872881E-03   2.1660227E-03
     12     -195.8538403318  -1.6436674E-03   5.9858074E-04
     13     -195.8539323992  -9.2067394E-05   2.7612834E-04
     14     -195.8539411280  -8.7287596E-06   1.4678155E-04
     15     -195.8539454650  -4.3370562E-06   5.1842580E-05
     16     -195.8539450443   4.2072622E-07   5.1190901E-05
     17     -195.8539457373  -6.9298414E-07   2.4664306E-05
     18     -195.8539459508  -2.1355777E-07   4.1343127E-06
------------------------------------------------------------

 total:                                   8.120 sec
Calculation for fragment 2
 ------------------------------
   
charge of fragment :   0.
unpaired e- of fragment :  1
------------------------------------------------------------
  cycle        total energy    energy error   density error
------------------------------------------------------------
      1     -195.2407765755  -1.9827120E+02   1.3729112E-01
      2     -195.6975333247  -4.5675675E-01   7.1772073E-02
      3     -195.2155763881   4.8195694E-01   5.3139693E-02
      4     -195.2121459647   3.4304234E-03   4.1152128E-02
      5     -195.7367169462  -5.2457098E-01   2.2033477E-02
      6     -195.8078298488  -7.1112903E-02   1.3508595E-02
      7     -195.8221081923  -1.4278344E-02   1.0936501E-02
      8     -195.8496860558  -2.7577864E-02   4.9337429E-03
      9     -195.8519618996  -2.2758438E-03   3.5268210E-03
     10     -195.8478828228   4.0790768E-03   4.2115691E-03
     11     -195.8527465111  -4.8636883E-03   1.7661644E-03
     12     -195.8537937843  -1.0472732E-03   4.9806758E-04
     13     -195.8538444677  -5.0683450E-05   2.6348743E-04
     14     -195.8538389532   5.5145284E-06   2.2868714E-04
     15     -195.8538526729  -1.3719660E-05   9.2710882E-05
     16     -195.8538552852  -2.6123750E-06   3.6874182E-05
     17     -195.8538548919   3.9332465E-07   4.7102294E-05
     18     -195.8538556477  -7.5578717E-07   1.9652400E-05
------------------------------------------------------------

 total:                                   5.824 sec
   
   ::::::::::::::::::::::::::::::::::::::::::::::
   ::     D I P R O      C O U P L I N G S     ::
   ::::::::::::::::::::::::::::::::::::::::::::::
   
energy threshhold for near-degenerate orbitals near HOMO and LUMO considered for DIPRO:  0.300 eV
no. of orbitals within energy window of frag 1         6
no. of orbitals within energy window of frag 2         6
   
  Fragment 1 SOMO-3  Fragment 2 SOMO-3
--------------------------------------
E_mon(orb) frag1 frag2              -9.757    -9.755 eV
J(AB):               -0.045 eV
S(AB):             0.00174638 Eh
|J(AB,eff)|:            0.028 eV
   
  Fragment 1 SOMO-3  Fragment 2 SOMO-2
--------------------------------------
E_mon(orb) frag1 frag2              -9.757    -9.745 eV
J(AB):               -0.018 eV
S(AB):             0.00070138 Eh
|J(AB,eff)|:            0.011 eV
   
  Fragment 1 SOMO-3  Fragment 2 SOMO-1
--------------------------------------
E_mon(orb) frag1 frag2              -9.757    -9.701 eV
J(AB):               -0.017 eV
S(AB):             0.00066456 Eh
|J(AB,eff)|:            0.011 eV
   
  Fragment 1 SOMO-3  Fragment 2 SOMO 
--------------------------------------
E_mon(orb) frag1 frag2              -9.757    -9.609 eV
J(AB):               -0.006 eV
S(AB):             0.00016532 Eh
|J(AB,eff)|:            0.004 eV
   
  Fragment 1 SOMO-3  Fragment 2 LUMO 
--------------------------------------
E_mon(orb) frag1 frag2              -9.757    -9.274 eV
J(AB):               -0.026 eV
S(AB):             0.00098861 Eh
|J(AB,eff)|:            0.017 eV
   
  Fragment 1 SOMO-3  Fragment 2 LUMO+1
--------------------------------------
E_mon(orb) frag1 frag2              -9.757    -9.237 eV
J(AB):                0.000 eV
S(AB):            -0.00009799 Eh
|J(AB,eff)|:            0.001 eV
   
  Fragment 1 SOMO-2  Fragment 2 SOMO-3
--------------------------------------
E_mon(orb) frag1 frag2              -9.745    -9.755 eV
J(AB):               -0.017 eV
S(AB):             0.00065488 Eh
|J(AB,eff)|:            0.011 eV
   
  Fragment 1 SOMO-2  Fragment 2 SOMO-2
--------------------------------------
E_mon(orb) frag1 frag2              -9.745    -9.745 eV
J(AB):               -0.005 eV
S(AB):             0.00024266 Eh
|J(AB,eff)|:            0.003 eV
   
  Fragment 1 SOMO-2  Fragment 2 SOMO-1
--------------------------------------
E_mon(orb) frag1 frag2              -9.745    -9.701 eV
J(AB):               -0.002 eV
S(AB):             0.00004030 Eh
|J(AB,eff)|:            0.002 eV
   
  Fragment 1 SOMO-2  Fragment 2 SOMO 
--------------------------------------
E_mon(orb) frag1 frag2              -9.745    -9.609 eV
J(AB):               -0.010 eV
S(AB):             0.00038735 Eh
|J(AB,eff)|:            0.006 eV
   
  Fragment 1 SOMO-2  Fragment 2 LUMO 
--------------------------------------
E_mon(orb) frag1 frag2              -9.745    -9.274 eV
J(AB):               -0.003 eV
S(AB):             0.00004350 Eh
|J(AB,eff)|:            0.002 eV
   
  Fragment 1 SOMO-2  Fragment 2 LUMO+1
--------------------------------------
E_mon(orb) frag1 frag2              -9.745    -9.237 eV
J(AB):                0.006 eV
S(AB):            -0.00020612 Eh
|J(AB,eff)|:            0.004 eV
   
  Fragment 1 SOMO-1  Fragment 2 SOMO-3
--------------------------------------
E_mon(orb) frag1 frag2              -9.702    -9.755 eV
J(AB):                0.017 eV
S(AB):            -0.00066534 Eh
|J(AB,eff)|:            0.011 eV
   
  Fragment 1 SOMO-1  Fragment 2 SOMO-2
--------------------------------------
E_mon(orb) frag1 frag2              -9.702    -9.745 eV
J(AB):                0.003 eV
S(AB):            -0.00005867 Eh
|J(AB,eff)|:            0.002 eV
   
  Fragment 1 SOMO-1  Fragment 2 SOMO-1
--------------------------------------
E_mon(orb) frag1 frag2              -9.702    -9.701 eV
J(AB):                0.003 eV
S(AB):            -0.00004298 Eh
|J(AB,eff)|:            0.002 eV
   
  Fragment 1 SOMO-1  Fragment 2 SOMO 
--------------------------------------
E_mon(orb) frag1 frag2              -9.702    -9.609 eV
J(AB):                0.005 eV
S(AB):            -0.00018818 Eh
|J(AB,eff)|:            0.003 eV
   
  Fragment 1 SOMO-1  Fragment 2 LUMO 
--------------------------------------
E_mon(orb) frag1 frag2              -9.702    -9.274 eV
J(AB):                0.014 eV
S(AB):            -0.00055461 Eh
|J(AB,eff)|:            0.009 eV
   
  Fragment 1 SOMO-1  Fragment 2 LUMO+1
--------------------------------------
E_mon(orb) frag1 frag2              -9.702    -9.237 eV
J(AB):                0.005 eV
S(AB):            -0.00022254 Eh
|J(AB,eff)|:            0.003 eV
   
  Fragment 1 SOMO   Fragment 2 SOMO-3
--------------------------------------
E_mon(orb) frag1 frag2              -9.609    -9.755 eV
J(AB):               -0.006 eV
S(AB):             0.00018048 Eh
|J(AB,eff)|:            0.004 eV
   
  Fragment 1 SOMO   Fragment 2 SOMO-2
--------------------------------------
E_mon(orb) frag1 frag2              -9.609    -9.745 eV
J(AB):               -0.010 eV
S(AB):             0.00041021 Eh
|J(AB,eff)|:            0.006 eV
   
  Fragment 1 SOMO   Fragment 2 SOMO-1
--------------------------------------
E_mon(orb) frag1 frag2              -9.609    -9.701 eV
J(AB):               -0.006 eV
S(AB):             0.00023104 Eh
|J(AB,eff)|:            0.003 eV
   
  Fragment 1 SOMO   Fragment 2 SOMO 
--------------------------------------
E_mon(orb) frag1 frag2              -9.609    -9.609 eV
J(AB):                0.083 eV
S(AB):            -0.00319726 Eh
|J(AB,eff)|:            0.052 eV
   
  Fragment 1 SOMO   Fragment 2 LUMO 
--------------------------------------
E_mon(orb) frag1 frag2              -9.609    -9.274 eV
J(AB):                0.004 eV
S(AB):            -0.00025507 Eh
|J(AB,eff)|:            0.002 eV
   
  Fragment 1 SOMO   Fragment 2 LUMO+1
--------------------------------------
E_mon(orb) frag1 frag2              -9.609    -9.237 eV
J(AB):               -0.026 eV
S(AB):             0.00094078 Eh
|J(AB,eff)|:            0.017 eV
   
  Fragment 1 LUMO   Fragment 2 SOMO-3
--------------------------------------
E_mon(orb) frag1 frag2              -9.274    -9.755 eV
J(AB):                0.026 eV
S(AB):            -0.00099624 Eh
|J(AB,eff)|:            0.017 eV
   
  Fragment 1 LUMO   Fragment 2 SOMO-2
--------------------------------------
E_mon(orb) frag1 frag2              -9.274    -9.745 eV
J(AB):                0.003 eV
S(AB):            -0.00005399 Eh
|J(AB,eff)|:            0.003 eV
   
  Fragment 1 LUMO   Fragment 2 SOMO-1
--------------------------------------
E_mon(orb) frag1 frag2              -9.274    -9.701 eV
J(AB):                0.015 eV
S(AB):            -0.00057941 Eh
|J(AB,eff)|:            0.009 eV
   
  Fragment 1 LUMO   Fragment 2 SOMO 
--------------------------------------
E_mon(orb) frag1 frag2              -9.274    -9.609 eV
J(AB):               -0.004 eV
S(AB):             0.00021820 Eh
|J(AB,eff)|:            0.002 eV
   
  Fragment 1 LUMO   Fragment 2 LUMO 
--------------------------------------
E_mon(orb) frag1 frag2              -9.274    -9.274 eV
J(AB):                0.088 eV
S(AB):            -0.00374447 Eh
|J(AB,eff)|:            0.054 eV
   
  Fragment 1 LUMO   Fragment 2 LUMO+1
--------------------------------------
E_mon(orb) frag1 frag2              -9.274    -9.237 eV
J(AB):                0.003 eV
S(AB):            -0.00013676 Eh
|J(AB,eff)|:            0.001 eV
   
  Fragment 1 LUMO+1  Fragment 2 SOMO-3
--------------------------------------
E_mon(orb) frag1 frag2              -9.237    -9.755 eV
J(AB):               -0.000 eV
S(AB):            -0.00007602 Eh
|J(AB,eff)|:            0.001 eV
   
  Fragment 1 LUMO+1  Fragment 2 SOMO-2
--------------------------------------
E_mon(orb) frag1 frag2              -9.237    -9.745 eV
J(AB):                0.006 eV
S(AB):            -0.00020922 Eh
|J(AB,eff)|:            0.004 eV
   
  Fragment 1 LUMO+1  Fragment 2 SOMO-1
--------------------------------------
E_mon(orb) frag1 frag2              -9.237    -9.701 eV
J(AB):               -0.005 eV
S(AB):             0.00024381 Eh
|J(AB,eff)|:            0.003 eV
   
  Fragment 1 LUMO+1  Fragment 2 SOMO 
--------------------------------------
E_mon(orb) frag1 frag2              -9.237    -9.609 eV
J(AB):               -0.026 eV
S(AB):             0.00095832 Eh
|J(AB,eff)|:            0.017 eV
   
  Fragment 1 LUMO+1  Fragment 2 LUMO 
--------------------------------------
E_mon(orb) frag1 frag2              -9.237    -9.274 eV
J(AB):               -0.001 eV
S(AB):             0.00006143 Eh
|J(AB,eff)|:            0.000 eV
   
  Fragment 1 LUMO+1  Fragment 2 LUMO+1
--------------------------------------
E_mon(orb) frag1 frag2              -9.237    -9.237 eV
J(AB):                0.091 eV
S(AB):            -0.00379328 Eh
|J(AB,eff)|:            0.056 eV
   
..............................................................................
:  total |J(AB,eff)| for hole transport (occ. MOs) :               0.064 eV  :
:  total |J(AB,eff)| for charge transport (unocc. MOs) :           0.077 eV  :
:  total |J(AB,eff)| for charge transfer (CT) :                    0.037 eV  :
..............................................................................
  
 Please remember, DIPRO is not available for restart!
   
normal termination of dipro
----------------------------------------------------------
 * finished run on 2025/03/10 at 16:19:51.730     
----------------------------------------------------------
 dipro:
 * wall-time:     0 d,  0 h,  0 min, 59.140 sec
 *  cpu-time:     0 d,  0 h,  2 min,  9.220 sec
 * ratio c/w:     2.185 speedup
Reorganization energy (electron): 0.03035388542653775 eV
Reorganization energy (hole): 0.036522083944353086 eV
Electron Transfer integral J: 0.077 eV
Hole Transfer integral J: 0.064 eV
