      -----------------------------------------------------------      
     |                   =====================                   |     
     |                           x T B                           |     
     |                   =====================                   |     
     |                         S. Grimme                         |     
     |          Mulliken Center for Theoretical Chemistry        |     
     |                    University of Bonn                     |     
      -----------------------------------------------------------      

   * xtb version 6.6.1 (8d0f1dd) compiled by 'runner@Mac-1690902418499.local' on 2023-08-01

   xtb is free software: you can redistribute it and/or modify it under
   the terms of the GNU Lesser General Public License as published by
   the Free Software Foundation, either version 3 of the License, or
   (at your option) any later version.
   
   xtb is distributed in the hope that it will be useful,
   but WITHOUT ANY WARRANTY; without even the implied warranty of
   MERCHANTABILITY or FITNESS FOR A PARTICULAR PURPOSE.  See the
   GNU Lesser General Public License for more details.
   
   Cite this work as:
   * C. Bannwarth, E. Caldeweyher, S. Ehlert, A. Hansen, P. Pracht,
     J. Seibert, S. Spicher, S. Grimme, WIREs Comput. Mol. Sci., 2020, 11,
     e01493. DOI: 10.1002/wcms.1493
   
   for GFN2-xTB:
   * C. Bannwarth, S. Ehlert and S. Grimme., J. Chem. Theory Comput., 2019,
     15, 1652-1671. DOI: 10.1021/acs.jctc.8b01176
   for GFN1-xTB:
   * S. Grimme, C. Bannwarth, P. Shushkov, J. Chem. Theory Comput., 2017,
     13, 1989-2009. DOI: 10.1021/acs.jctc.7b00118
   for GFN0-xTB:
   * P. Pracht, E. Caldeweyher, S. Ehlert, S. Grimme, ChemRxiv, 2019, preprint.
     DOI: 10.26434/chemrxiv.8326202.v1
   for GFN-FF:
   * S. Spicher and S. Grimme, Angew. Chem. Int. Ed., 2020, 59, 15665-15673.
     DOI: 10.1002/anie.202004239
   
   for ALPB and GBSA implicit solvation:
   * S. Ehlert, M. Stahn, S. Spicher, S. Grimme, J. Chem. Theory Comput.,
     2021, 17, 4250-4261. DOI: 10.1021/acs.jctc.1c00471
   
   for DFT-D4:
   * E. Caldeweyher, C. Bannwarth and S. Grimme, J. Chem. Phys., 2017,
     147, 034112. DOI: 10.1063/1.4993215
   * E. Caldeweyher, S. Ehlert, A. Hansen, H. Neugebauer, S. Spicher,
     C. Bannwarth and S. Grimme, J. Chem. Phys., 2019, 150, 154122.
     DOI: 10.1063/1.5090222
   * E. Caldeweyher, J.-M. Mewes, S. Ehlert and S. Grimme, Phys. Chem. Chem. Phys.
     2020, 22, 8499-8512. DOI: 10.1039/D0CP00502A
   
   for sTDA-xTB:
   * S. Grimme and C. Bannwarth, J. Chem. Phys., 2016, 145, 054103.
     DOI: 10.1063/1.4959605
   
   in the mass-spec context:
   * V. Asgeirsson, C. Bauer and S. Grimme, Chem. Sci., 2017, 8, 4879.
     DOI: 10.1039/c7sc00601b
   * J. Koopman and S. Grimme, ACS Omega 2019, 4, 12, 15120-15133.
     DOI: 10.1021/acsomega.9b02011
   
   for metadynamics refer to:
   * S. Grimme, J. Chem. Theory Comput., 2019, 155, 2847-2862
     DOI: 10.1021/acs.jctc.9b00143
   
   for SPH calculations refer to:
   * S. Spicher and S. Grimme, J. Chem. Theory Comput., 2021, 17, 1701-1714
     DOI: 10.1021/acs.jctc.0c01306
   
   with help from (in alphabetical order)
   P. Atkinson, C. Bannwarth, F. Bohle, G. Brandenburg, E. Caldeweyher
   M. Checinski, S. Dohm, S. Ehlert, S. Ehrlich, I. Gerasimov, C. Hölzer
   A. Katbashev, J. Koopman, C. Lavigne, S. Lehtola, F. März, M. Müller,
   F. Musil, H. Neugebauer, J. Pisarek, C. Plett, P. Pracht, F. Pultar,
   J. Seibert, P. Shushkov, S. Spicher, M. Stahn, M. Steiner, T. Strunk,
   J. Stückrath, T. Rose, and J. Unsleber
   
 * started run on 2025/03/14 at 12:40:28.090     

           -------------------------------------------------
          |                Calculation Setup                |
           -------------------------------------------------

          program call               : xtb scoord.19 --md --gfnff --input md_settings.inp
          coordinate file            : scoord.19
          omp threads                :                     8

   ID    Z sym.   atoms
    1    6 C      1-9, 11, 12, 14-21, 24, 25, 34, 35, 38, 41-43, 59-67, 69,
                  70, 72-79, 82, 83, 92, 93, 96, 99-101
    2    7 N      10, 13, 68, 71
    3    8 O      22, 23, 32, 33, 36, 37, 39, 40, 80, 81, 90, 91, 94, 95, 97,
                  98
    4    1 H      26-31, 44-58, 84-89, 102-116

molecular fragmentation (1/2 indicates fragments):
111111111111111111111111111111111111111111111111111111111122222222222222
22222222222222222222222222222222222222222222
# atoms in fragment 1/2:    58    58
 fragment masses (1/2) :      501.47      501.47
CMA distance (Bohr)    :   9.178
constraining FC (au)   :  0.0500

          ==================== Thresholds ====================
          CN  :   150.00000
          rep :   500.00000
          disp:  2500.00000
          HB1 :   250.00000
          HB2 :   450.00000

          Pauling EN used:
          Z : 1  EN :  2.20
          Z : 6  EN :  2.55
          Z : 7  EN :  3.04
          Z : 8  EN :  3.44
          electric field strengths (au): 0.000

           ------------------------------------------------- 
          |           Force Field Initialization            |
           ------------------------------------------------- 

          distances ...
          ----------------------------------------
          generating topology and atomic info file ...
          pair mat ...
          computing topology distances matrix with Floyd-Warshall algo ...
          making topology EEQ charges ...
          #fragments for EEQ constrain: 2
          ----------------------------------------
          generating topology and atomic info file ...
          pair mat ...
          computing topology distances matrix with Floyd-Warshall algo ...
          making topology EEQ charges ...
          rings ...
          # BATM   1140
          # H in HB   42
          doing iterative Hueckel for 2 subsystem(s) ...

  atom   neighbors  erfCN metchar sp-hybrid imet pi  qest     coordinates
    1  C       3    2.80   0.00         2    0    1  -0.013   -7.657093   -1.497420    0.265703
    2  C       3    2.84   0.00         2    0    1   0.104   -5.378229   -2.687931    0.572154
    3  C       3    2.81   0.00         2    0    1   0.014   -3.362783   -1.439094    2.104108
    4  C       3    2.86   0.00         2    0    1   0.068   -3.928196    1.140324    2.685910
    5  C       3    2.82   0.00         2    0    1  -0.010   -6.313406    2.370578    2.354193
    6  C       3    2.82   0.00         2    0    1   0.024   -7.996491    0.975009    0.897672
    7  C       3    2.81   0.00         2    0    1   0.003   -1.114145   -2.510978    3.190484
    8  C       3    2.83   0.00         2    0    1   0.018    0.817812   -0.836393    3.820731
    9  C       3    2.83   0.00         2    0    1   0.069    0.210208    1.868804    4.018573
   10  N       2    1.95   0.00         2    0    1  -0.182   -2.138453    2.709969    3.748254
   11  C       3    2.82   0.00         2    0    1   0.014   -0.507829   -5.248468    3.611601
   12  C       3    2.88   0.00         2    0    1   0.068    2.189683   -5.675533    3.319481
   13  N       2    1.97   0.00         2    0    1  -0.182    4.070574   -3.909711    3.649104
   14  C       3    2.87   0.00         2    0    1   0.069    3.329052   -1.684216    4.361089
   15  C       3    2.83   0.00         2    0    1  -0.009    5.252655    0.072827    4.999835
   16  C       3    2.81   0.00         2    0    1   0.024    4.662009    2.604705    5.319142
   17  C       3    2.81   0.00         2    0    1  -0.009    2.250848    3.473935    4.797510
   18  C       3    2.84   0.00         2    0    1   0.104   -2.365424   -7.309421    3.882515
   19  C       3    2.81   0.00         2    0    1  -0.013   -1.274529   -9.712281    3.743540
   20  C       3    2.81   0.00         2    0    1   0.024    1.390860  -10.148420    3.326570
   21  C       3    2.82   0.00         2    0    1  -0.010    3.007484   -8.182573    3.091549
   22  O       2    1.91   0.00         3    0    1  -0.326   -4.775650   -6.984758    4.453723
   23  O       2    1.92   0.00         3    0    1  -0.326   -4.771452   -4.942511   -0.776201
   24  C       3    2.83   0.00         2    0    1   0.224  -10.663950    2.331059    0.792179
   25  C       3    3.07   0.00         2    0    1   0.224    2.261389  -12.778183    2.788355
   26  H       1    0.97   0.00         0    0    0   0.083   -6.722726    4.319119    2.849070
   27  H       1    0.97   0.01         0    0    0   0.084   -8.827306   -2.485963   -1.143705
   28  H       1    0.98   0.00         0    0    0   0.084    2.138533    5.499220    4.926012
   29  H       1    0.98   0.00         0    0    0   0.084    7.196794   -0.316977    5.284385
   30  H       1    0.97   0.00         0    0    0   0.083    4.657776   -8.740380    2.028382
   31  H       1    0.98   0.00         0    0    0   0.084   -2.351902  -11.386194    3.724474
   32  O       1    0.98   0.00         2    0    1  -0.364  -12.551134    1.083237    0.119216
   33  O       2    1.92   0.00         3    0    1  -0.315  -10.884369    4.725078    1.443944
   34  C       4    3.51   0.00         3    0    0   0.037  -13.434012    5.633199    1.486226
   35  C       3    2.89   0.00         2    0    1   0.223    6.618864    4.298438    6.221702
   36  O       1    0.98   0.00         2    0    1  -0.365    6.323320    6.525775    6.123855
   37  O       2    1.92   0.00         3    0    1  -0.315    8.794370    3.321576    7.200842
   38  C       4    3.54   0.00         3    0    0   0.039   10.074305    5.139088    8.475633
   39  O       1    0.99   0.00         2    0    1  -0.364    0.933878  -14.450439    3.624913
   40  O       2    1.92   0.00         3    0    1  -0.315    4.248393  -13.061487    1.188261
   41  C       4    3.69   0.00         3    0    0   0.037    4.466786  -15.580882    1.188512
   42  C       4    3.51   0.00         3    0    0   0.033   -5.946519   -9.347368    5.261281
   43  C       4    3.50   0.00         3    0    0   0.033   -6.775037   -6.440185   -1.226926
   44  H       1    0.97   0.01         0    0    0   0.079    2.690337  -16.658406    1.003073
   45  H       1    0.98   0.00         0    0    0   0.079    5.139682  -16.182566    2.894680
   46  H       1    0.97   0.01         0    0    0   0.079    5.809152  -16.260411   -0.319958
   47  H       1    0.95   0.02         0    0    0   0.078   11.392438    6.296193    7.110420
   48  H       1    0.97   0.00         0    0    0   0.078   11.222087    4.147494    9.859476
   49  H       1    0.97   0.01         0    0    0   0.078    8.844529    6.210715    9.781193
   50  H       1    0.96   0.01         0    0    0   0.076   -8.675255   -5.562732   -1.770430
   51  H       1    0.96   0.01         0    0    0   0.076   -6.526104   -7.865507    0.381490
   52  H       1    0.97   0.00         0    0    0   0.076   -6.215212   -7.413167   -2.941932
   53  H       1    0.96   0.01         0    0    0   0.076   -4.977614  -10.817653    6.502214
   54  H       1    0.97   0.01         0    0    0   0.076   -6.633078  -10.211437    3.467491
   55  H       1    0.97   0.00         0    0    0   0.076   -7.667619   -8.849512    6.256726
   56  H       1    0.97   0.00         0    0    0   0.079  -13.633503    6.042174    3.486692
   57  H       1    0.96   0.01         0    0    0   0.079  -15.212507    4.607056    0.849059
   58  H       1    0.97   0.00         0    0    0   0.079  -13.300276    7.466971    0.578582
   59  C       3    2.79   0.00         2    0    1  -0.013   -2.576804   10.590985    9.030192
   60  C       3    2.80   0.00         2    0    1   0.104   -3.253402    8.217462    8.107934
   61  C       3    2.83   0.00         2    0    1   0.014   -1.976822    6.022481    9.335107
   62  C       3    2.92   0.00         2    0    1   0.068    0.313696    6.222901   10.569475
   63  C       3    2.83   0.00         2    0    1  -0.010    1.091914    8.674373   11.368554
   64  C       3    2.80   0.00         2    0    1   0.024   -0.483313   10.798857   10.802313
   65  C       3    2.85   0.00         2    0    1   0.003   -2.928026    3.539060    9.268372
   66  C       3    2.85   0.00         2    0    1   0.018   -1.258245    1.544723    9.652116
   67  C       3    2.90   0.00         2    0    1   0.069    1.276386    2.144511   10.282287
   68  N       2    1.97   0.00         2    0    1  -0.182    1.906025    4.394793   11.074356
   69  C       3    2.81   0.00         2    0    1   0.014   -5.658680    2.926379    9.450315
   70  C       3    2.83   0.00         2    0    1   0.068   -6.283824    0.474218    8.636306
   71  N       2    1.95   0.00         2    0    1  -0.182   -4.505425   -1.428670    8.617703
   72  C       3    2.82   0.00         2    0    1   0.069   -2.039419   -1.013668    9.084108
   73  C       3    2.82   0.00         2    0    1  -0.009   -0.399606   -3.046914    9.455517
   74  C       3    2.80   0.00         2    0    1   0.024    2.054248   -2.560079   10.474679
   75  C       3    2.83   0.00         2    0    1  -0.009    2.799585   -0.033513   10.500987
   76  C       3    2.80   0.00         2    0    1   0.104   -7.794079    4.508945   10.168542
   77  C       3    2.81   0.00         2    0    1  -0.013  -10.216593    3.895193    9.244512
   78  C       3    2.80   0.00         2    0    1   0.024  -10.761745    1.623330    7.870658
   79  C       3    2.83   0.00         2    0    1  -0.010   -8.753503   -0.036640    7.704749
   80  O       2    1.91   0.00         3    0    1  -0.326   -7.184091    6.154352   12.236786
   81  O       2    1.90   0.00         3    0    1  -0.326   -5.294179    7.700634    6.381015
   82  C       3    2.93   0.00         2    0    1   0.224    0.235507   13.210594   12.070918
   83  C       3    2.85   0.00         2    0    1   0.224  -13.179997    0.698643    7.053100
   84  H       1    0.98   0.00         0    0    0   0.083    2.916443    8.818156   12.231020
   85  H       1    0.96   0.01         0    0    0   0.084   -3.823623   12.294829    8.568686
   86  H       1    0.97   0.00         0    0    0   0.084    4.794977    0.296541   10.907765
   87  H       1    0.97   0.00         0    0    0   0.084   -0.707340   -5.026263    9.030469
   88  H       1    0.97   0.00         0    0    0   0.083   -8.971486   -1.920052    6.938144
   89  H       1    0.97   0.01         0    0    0   0.084  -11.888531    5.113110    9.617046
   90  O       1    0.98   0.00         2    0    1  -0.364   -0.616182   15.117398   11.127375
   91  O       2    1.92   0.00         3    0    1  -0.315    1.707517   13.071751   14.262680
   92  C       4    3.59   0.00         3    0    0   0.037    2.235455   15.474632   14.848719
   93  C       3    2.83   0.00         2    0    1   0.223    3.843862   -4.770767   10.275482
   94  O       1    0.98   0.00         2    0    1  -0.365    3.233070   -6.615142    9.005526
   95  O       2    1.91   0.00         3    0    1  -0.315    6.225464   -4.453604   11.376800
   96  C       4    3.50   0.00         3    0    0   0.039    7.924867   -6.268640   10.184063
   97  O       1    0.98   0.00         2    0    1  -0.364  -15.034977    2.075652    7.271191
   98  O       2    1.92   0.00         3    0    1  -0.315  -13.293481   -1.522619    5.823048
   99  C       4    3.50   0.00         3    0    0   0.037  -15.525510   -1.732693    4.338630
  100  C       4    3.48   0.00         3    0    0   0.033   -5.224463    5.523210   13.868770
  101  C       4    3.49   0.00         3    0    0   0.033   -5.220621    9.192067    4.059057
  102  H       1    0.95   0.02         0    0    0   0.079  -17.112415   -2.543398    5.688470
  103  H       1    0.97   0.00         0    0    0   0.079  -15.194377   -3.095549    2.859030
  104  H       1    0.98   0.00         0    0    0   0.079  -15.987769    0.129826    3.842061
  105  H       1    0.97   0.01         0    0    0   0.078    9.720730   -6.034973   11.197904
  106  H       1    0.98   0.00         0    0    0   0.078    7.796575   -6.180317    8.161486
  107  H       1    0.96   0.01         0    0    0   0.078    7.531119   -8.380757   10.634101
  108  H       1    0.97   0.01         0    0    0   0.076   -7.181526    9.894848    3.882342
  109  H       1    0.97   0.00         0    0    0   0.076   -4.837093    8.177559    2.313334
  110  H       1    0.98   0.00         0    0    0   0.076   -4.031653   10.820267    4.002583
  111  H       1    0.97   0.01         0    0    0   0.076   -5.072175    3.435238   13.685006
  112  H       1    0.98   0.00         0    0    0   0.076   -5.669693    6.183347   15.681194
  113  H       1    0.96   0.01         0    0    0   0.076   -3.308679    6.211943   13.158608
  114  H       1    0.96   0.01         0    0    0   0.079    4.131026   15.524984   15.955895
  115  H       1    0.98   0.00         0    0    0   0.079    0.759546   16.162207   15.922928
  116  H       1    0.98   0.00         0    0    0   0.079    2.645603   16.621270   13.237536

          #atoms :   116
          #bonds :   124
          #angl  :   206
          #tors  :   302
          #nmol  :   2
          #optfrag :   2
           ------------------------------------------------- 
          |                   G F N - F F                   |
          |          A general generic force-field          |
          |                  Version 1.0.3                  | 
           ------------------------------------------------- 
          Number of HB bonds (bound hydrogen)     18800
          Number of HB bonds (unbound hydrogen)   500
          Number of XB bonds                      0

 E+G (total)                   0 d,  0 h,  0 min,  0.002 sec
 distance/D3 list               ...        0 min,  0.000 sec (  0.659%)
 non bonded repulsion           ...        0 min,  0.000 sec (  4.031%)
 dCN                            ...        0 min,  0.000 sec (  5.059%)
 EEQ energy and q               ...        0 min,  0.000 sec ( 10.441%)
 D3                             ...        0 min,  0.000 sec ( 15.924%)
 EEQ gradient                   ...        0 min,  0.000 sec (  2.434%)
 bonds                          ...        0 min,  0.000 sec (  5.729%)
 bend and torsion               ...        0 min,  0.000 sec (  5.483%)
 bonded ATM                     ...        0 min,  0.000 sec (  3.127%)
 HB/XB (incl list setup)        ...        0 min,  0.001 sec ( 46.700%)

         :::::::::::::::::::::::::::::::::::::::::::::::::::::
         ::                     SUMMARY                     ::
         :::::::::::::::::::::::::::::::::::::::::::::::::::::
         :: total energy             -22.840415930917 Eh    ::
         :: gradient norm              0.400931437144 Eh/a0 ::
         ::.................................................::
         :: bond energy              -23.498106336983 Eh    ::
         :: angle energy               0.123875223457 Eh    ::
         :: torsion energy             0.087742359858 Eh    ::
         :: repulsion energy           1.583636326117 Eh    ::
         :: electrostat energy        -0.944084512649 Eh    ::
         :: dispersion energy         -0.154477022925 Eh    ::
         :: HB energy                 -0.006946192570 Eh    ::
         :: XB energy                  0.000000000000 Eh    ::
         :: bonded atm energy         -0.032055775221 Eh    ::
         :: external energy            0.000000000000 Eh    ::
         :: add. restraining           0.000000000000 Eh    ::
         :: total charge              -0.000000000000 e     ::
         :::::::::::::::::::::::::::::::::::::::::::::::::::::

           -------------------------------------------------
          |                Property Printout                |
           -------------------------------------------------

           -------------------------------------------------
          | TOTAL ENERGY              -22.840415930917 Eh   |
          | GRADIENT NORM               0.400931437144 Eh/α |
           -------------------------------------------------
           ------------------------------------------------- 
          |               Molecular Dynamics                |
           ------------------------------------------------- 
 trajectories on xtb.trj or xtb.trj.<n>

 MD time /ps        :   20.00
 dt /fs             :    2.00
 SCC accuracy       :    2.00
 temperature /K     :  500.00
 max steps          : 10000
 block length (av.) :  2500
 dumpstep(trj) /fs  :  500.00   250
 dumpstep(coords)/fs: 1000.00   500
 H atoms mass (amu) :     4
 # deg. of freedom  :   348
 SHAKE off
 Berendsen THERMOSTAT on
         time (ps)    <Epot>      Ekin   <T>   T     Etot
      0    0.00      0.00000   0.5748    0.    0.   -22.26564
est. speed in wall clock h for 100 ps :  0.02
    200    0.40    -22.60124   0.3612  718.  656.   -22.35271
    400    0.80    -22.66828   0.3056  672.  555.   -22.43776
    600    1.20    -22.69970   0.3036  644.  551.   -22.46965
    800    1.60    -22.71859   0.3022  621.  548.   -22.50491
   1000    2.00    -22.73211   0.2780  605.  505.   -22.52099
   1200    2.40    -22.74279   0.2750  592.  499.   -22.50505
   1400    2.80    -22.75131   0.2705  582.  491.   -22.52717
   1600    3.20    -22.75829   0.2694  573.  489.   -22.52152
   1800    3.60    -22.76414   0.2799  566.  508.   -22.52244
   2000    4.00    -22.76931   0.2749  561.  499.   -22.54569
   2200    4.40    -22.77351   0.2607  556.  473.   -22.55542
   2400    4.80    -22.77724   0.2844  552.  516.   -22.55035
block <Epot> / <T> :     -22.78785  549.     drift:  0.99D+02   Tbath : 500.
   2600    5.20    -22.77993   0.2890  547.  524.   -22.54214
   2800    5.60    -22.78256   0.2649  544.  481.   -22.52894
   3000    6.00    -22.78479   0.2926  541.  531.   -22.53509
   3200    6.40    -22.78658   0.2567  538.  466.   -22.55800
   3400    6.80    -22.78803   0.2797  536.  508.   -22.52907
   3600    7.20    -22.78952   0.2788  534.  506.   -22.54344
   3800    7.60    -22.79078   0.2601  532.  472.   -22.54297
   4000    8.00    -22.79173   0.2649  530.  481.   -22.53979
   4200    8.40    -22.79290   0.2943  529.  534.   -22.54885
   4400    8.80    -22.79388   0.2788  528.  506.   -22.53829
   4600    9.20    -22.79443   0.2840  526.  515.   -22.52831
   4800    9.60    -22.79511   0.2612  525.  474.   -22.54409
   5000   10.00    -22.79582   0.2906  524.  527.   -22.54334
block <Epot> / <T> :     -22.81292  499.     drift:  0.99D+02   Tbath : 500.
   5200   10.40    -22.79690   0.2562  524.  465.   -22.55378
   5400   10.80    -22.79761   0.2924  523.  531.   -22.52488
   5600   11.20    -22.79835   0.2836  522.  515.   -22.54117
   5800   11.60    -22.79885   0.2704  521.  491.   -22.55359
   6000   12.00    -22.79932   0.2892  520.  525.   -22.53989
   6200   12.40    -22.79989   0.2728  520.  495.   -22.55990
   6400   12.80    -22.80035   0.2734  519.  496.   -22.53367
   6600   13.20    -22.80078   0.2770  519.  503.   -22.53993
   6800   13.60    -22.80120   0.2694  518.  489.   -22.53047
   7000   14.00    -22.80163   0.2590  518.  470.   -22.53685
   7200   14.40    -22.80187   0.2877  517.  522.   -22.54415
   7400   14.80    -22.80216   0.2737  516.  497.   -22.52666
block <Epot> / <T> :     -22.81523  500.     drift:  0.99D+02   Tbath : 500.
   7600   15.20    -22.80247   0.2808  516.  510.   -22.52223
   7800   15.60    -22.80267   0.2877  516.  522.   -22.54126
   8000   16.00    -22.80304   0.2939  515.  533.   -22.51681
   8200   16.40    -22.80316   0.2805  515.  509.   -22.52388
   8400   16.80    -22.80346   0.2735  515.  496.   -22.54172
   8600   17.20    -22.80357   0.2740  514.  497.   -22.53619
   8800   17.60    -22.80366   0.2888  514.  524.   -22.53186
   9000   18.00    -22.80402   0.3104  514.  563.   -22.53933
   9200   18.40    -22.80434   0.2966  513.  538.   -22.53882
   9400   18.80    -22.80458   0.3044  513.  552.   -22.51537
   9600   19.20    -22.80476   0.2809  513.  510.   -22.53310
   9800   19.60    -22.80495   0.2958  513.  537.   -22.54217
 average properties 
 Epot               :  -22.805057784104413     
 Epot (accurate SCC):  -22.808078213101169     
 Ekin               :  0.28221888683526075     
 Etot               :  -22.522838897269153     
 T                  :   512.17103442202915     
 thermostating problem
 normal exit of md()
########################################################################
[WARNING] Runtime exception occurred
-1- gfnff_setup: Could not read topology file.
########################################################################
Note: The following floating-point exceptions are signalling: IEEE_UNDERFLOW_FLAG
normal termination of xtb

------------------------------------------------------------------------
 * finished run on 2025/03/14 at 12:40:43.964     
------------------------------------------------------------------------
 total:
 * wall-time:     0 d,  0 h,  0 min, 15.873 sec
 *  cpu-time:     0 d,  0 h,  0 min, 31.181 sec
 * ratio c/w:     1.964 speedup
 SCF:
 * wall-time:     0 d,  0 h,  0 min,  0.003 sec
 *  cpu-time:     0 d,  0 h,  0 min,  0.005 sec
 * ratio c/w:     1.701 speedup
 MD:
 * wall-time:     0 d,  0 h,  0 min, 15.855 sec
 *  cpu-time:     0 d,  0 h,  0 min, 31.166 sec
 * ratio c/w:     1.966 speedup

