190
 energy: -557.306291880445 gnorm: 0.332728986077 xtb: 6.7.1 (edcfbbe)
C            1.45040000000000        3.56790000000000        0.14540000000000
C            1.64330000000000        2.18200000000000        0.25340000000000
C            2.70640000000000        1.58200000000000       -0.49590000000000
C            3.37200000000000        2.41170000000000       -1.47540000000000
C            3.01400000000000        3.77310000000000       -1.66220000000000
C            2.11610000000000        4.31900000000000       -0.80740000000000
C            3.31300000000000        0.30130000000000       -0.25730000000000
C            4.54860000000000        0.04280000000000       -0.89490000000000
C            4.99560000000000        0.87420000000000       -1.95950000000000
N            4.38470000000000        2.01500000000000       -2.23510000000000
C            2.91200000000000       -0.69240000000000        0.69810000000000
C            3.97340000000000       -1.48470000000000        1.27320000000000
N            5.14510000000000       -1.65680000000000        0.68720000000000
C            5.39160000000000       -1.01950000000000       -0.45300000000000
C            6.56770000000000       -1.32430000000000       -1.17470000000000
C            6.87980000000000       -0.57570000000000       -2.28460000000000
C            6.15200000000000        0.51050000000000       -2.69560000000000
C            1.58970000000000       -1.01090000000000        1.09040000000000
C            1.41380000000000       -1.74090000000000        2.27020000000000
C            2.50090000000000       -2.19390000000000        3.00640000000000
C            3.76330000000000       -2.15600000000000        2.50890000000000
O            0.82730000000000        1.54360000000000        1.08530000000000
O            0.54460000000000       -0.68730000000000        0.32880000000000
C           -1.91990000000000       -1.54170000000000        2.56310000000000
C           -2.01540000000000       -0.69540000000000        1.44750000000000
C           -2.90680000000000       -1.06300000000000        0.38820000000000
C           -3.48540000000000       -2.38710000000000        0.44400000000000
C           -3.21430000000000       -3.27170000000000        1.52110000000000
C           -2.49780000000000       -2.79900000000000        2.56900000000000
C           -3.43900000000000       -0.19940000000000       -0.62970000000000
C           -4.54240000000000       -0.67970000000000       -1.37260000000000
C           -4.89170000000000       -2.05830000000000       -1.33060000000000
N           -4.34000000000000       -2.87360000000000       -0.44650000000000
C           -3.10690000000000        1.17620000000000       -0.87180000000000
C           -4.17580000000000        2.00910000000000       -1.37040000000000
N           -5.23040000000000        1.52810000000000       -2.00470000000000
C           -5.35460000000000        0.21110000000000       -2.13500000000000
C           -6.38210000000000       -0.30840000000000       -2.95420000000000
C           -6.58450000000000       -1.66780000000000       -2.98570000000000
C           -5.89320000000000       -2.55540000000000       -2.20310000000000
C           -1.83640000000000        1.78320000000000       -0.72680000000000
C           -1.78020000000000        3.17900000000000       -0.66180000000000
C           -2.92490000000000        3.95390000000000       -0.79690000000000
C           -4.09880000000000        3.42120000000000       -1.22270000000000
O           -1.28090000000000        0.41080000000000        1.49180000000000
O           -0.71860000000000        1.05700000000000       -0.72100000000000
B           -0.15690000000000        0.57860000000000        0.54180000000000
S            1.62440000000000        6.09040000000000       -1.03800000000000
F            1.19330000000000        6.26130000000000        0.53810000000000
F            3.13730000000000        6.65160000000000       -0.67070000000000
F            1.14030000000000        7.60060000000000       -1.25960000000000
F            2.05690000000000        6.08050000000000       -2.63770000000000
F            0.12000000000000        5.56180000000000       -1.48850000000000
S            2.25100000000000       -2.73730000000000        4.77350000000000
F            3.80290000000000       -3.30500000000000        4.91710000000000
F            2.80140000000000       -1.24770000000000        5.26700000000000
F            2.05580000000000       -3.12280000000000        6.32100000000000
F            0.71620000000000       -2.13410000000000        4.81850000000000
F            1.78430000000000       -4.25570000000000        4.37760000000000
S            8.39370000000000       -1.03460000000000       -3.25200000000000
F            7.58820000000000       -0.86490000000000       -4.68450000000000
F            7.99090000000000       -2.63660000000000       -3.21320000000000
F            9.69770000000000       -1.43760000000000       -4.09420000000000
F            9.28610000000000       -1.23190000000000       -1.87730000000000
F            8.88320000000000        0.53900000000000       -3.34820000000000
S           -2.12230000000000       -3.93780000000000        3.98160000000000
F           -2.31580000000000       -5.28920000000000        3.04200000000000
F           -3.71300000000000       -4.06130000000000        4.42160000000000
F           -1.73500000000000       -4.92440000000000        5.18200000000000
F           -1.93980000000000       -2.69580000000000        5.04160000000000
F           -0.53090000000000       -3.90200000000000        3.52190000000000
S           -2.89690000000000        5.73720000000000       -0.25020000000000
F           -4.40370000000000        6.04840000000000       -0.86980000000000
F           -3.62860000000000        5.27150000000000        1.16840000000000
F           -2.90350000000000        7.24680000000000        0.30010000000000
F           -1.43740000000000        5.56140000000000        0.49770000000000
F           -2.25910000000000        6.29320000000000       -1.65170000000000
S           -7.89520000000000       -2.33060000000000       -4.11750000000000
F           -7.37610000000000       -1.37070000000000       -5.35830000000000
F           -8.96460000000000       -1.15740000000000       -3.66500000000000
F           -9.02190000000000       -2.90470000000000       -5.10390000000000
F           -8.48890000000000       -3.32920000000000       -2.94460000000000
F           -6.90040000000000       -3.54320000000000       -4.63710000000000
H           -3.64200000000000       -4.25800000000000        1.48960000000000
H           -6.10400000000000       -3.61210000000000       -2.21380000000000
H           -6.98980000000000        0.36990000000000       -3.53040000000000
H           -1.36090000000000       -1.19110000000000        3.41690000000000
H           -0.82790000000000        3.64860000000000       -0.50210000000000
H            6.44510000000000        1.10780000000000       -3.54330000000000
H            0.41400000000000       -1.94660000000000        2.60390000000000
H            7.19870000000000       -2.13000000000000       -0.83720000000000
H            3.51680000000000        4.33050000000000       -2.43250000000000
H            4.61050000000000       -2.61630000000000        2.98560000000000
H           -4.96810000000000        4.00440000000000       -1.46980000000000
H            0.74690000000000        4.03410000000000        0.81780000000000
C            1.45040000000000        3.56790000000000        6.14540000000000
C            1.64330000000000        2.18200000000000        6.25340000000000
C            2.70640000000000        1.58200000000000        5.50410000000000
C            3.37200000000000        2.41170000000000        4.52460000000000
C            3.01400000000000        3.77310000000000        4.33780000000000
C            2.11610000000000        4.31900000000000        5.19260000000000
C            3.31300000000000        0.30130000000000        5.74270000000000
C            4.54860000000000        0.04280000000000        5.10510000000000
C            4.99560000000000        0.87420000000000        4.04050000000000
N            4.38470000000000        2.01500000000000        3.76490000000000
C            2.91200000000000       -0.69240000000000        6.69810000000000
C            3.97340000000000       -1.48470000000000        7.27320000000000
N            5.14510000000000       -1.65680000000000        6.68720000000000
C            5.39160000000000       -1.01950000000000        5.54700000000000
C            6.56770000000000       -1.32430000000000        4.82530000000000
C            6.87980000000000       -0.57570000000000        3.71540000000000
C            6.15200000000000        0.51050000000000        3.30440000000000
C            1.58970000000000       -1.01090000000000        7.09040000000000
C            1.41380000000000       -1.74090000000000        8.27020000000000
C            2.50090000000000       -2.19390000000000        9.00640000000000
C            3.76330000000000       -2.15600000000000        8.50890000000000
O            0.82730000000000        1.54360000000000        7.08530000000000
O            0.54460000000000       -0.68730000000000        6.32880000000000
C           -1.91990000000000       -1.54170000000000        8.56310000000000
C           -2.01540000000000       -0.69540000000000        7.44750000000000
C           -2.90680000000000       -1.06300000000000        6.38820000000000
C           -3.48540000000000       -2.38710000000000        6.44400000000000
C           -3.21430000000000       -3.27170000000000        7.52110000000000
C           -2.49780000000000       -2.79900000000000        8.56900000000000
C           -3.43900000000000       -0.19940000000000        5.37030000000000
C           -4.54240000000000       -0.67970000000000        4.62740000000000
C           -4.89170000000000       -2.05830000000000        4.66940000000000
N           -4.34000000000000       -2.87360000000000        5.55350000000000
C           -3.10690000000000        1.17620000000000        5.12820000000000
C           -4.17580000000000        2.00910000000000        4.62960000000000
N           -5.23040000000000        1.52810000000000        3.99530000000000
C           -5.35460000000000        0.21110000000000        3.86500000000000
C           -6.38210000000000       -0.30840000000000        3.04580000000000
C           -6.58450000000000       -1.66780000000000        3.01430000000000
C           -5.89320000000000       -2.55540000000000        3.79690000000000
C           -1.83640000000000        1.78320000000000        5.27320000000000
C           -1.78020000000000        3.17900000000000        5.33820000000000
C           -2.92490000000000        3.95390000000000        5.20310000000000
C           -4.09880000000000        3.42120000000000        4.77730000000000
O           -1.28090000000000        0.41080000000000        7.49180000000000
O           -0.71860000000000        1.05700000000000        5.27900000000000
B           -0.15690000000000        0.57860000000000        6.54180000000000
S            1.62440000000000        6.09040000000000        4.96200000000000
F            1.19330000000000        6.26130000000000        6.53810000000000
F            3.13730000000000        6.65160000000000        5.32930000000000
F            1.14030000000000        7.60060000000000        4.74040000000000
F            2.05690000000000        6.08050000000000        3.36230000000000
F            0.12000000000000        5.56180000000000        4.51150000000000
S            2.25100000000000       -2.73730000000000       10.77350000000000
F            3.80290000000000       -3.30500000000000       10.91710000000000
F            2.80140000000000       -1.24770000000000       11.26700000000000
F            2.05580000000000       -3.12280000000000       12.32100000000000
F            0.71620000000000       -2.13410000000000       10.81850000000000
F            1.78430000000000       -4.25570000000000       10.37760000000000
S            8.39370000000000       -1.03460000000000        2.74800000000000
F            7.58820000000000       -0.86490000000000        1.31550000000000
F            7.99090000000000       -2.63660000000000        2.78680000000000
F            9.69770000000000       -1.43760000000000        1.90580000000000
F            9.28610000000000       -1.23190000000000        4.12270000000000
F            8.88320000000000        0.53900000000000        2.65180000000000
S           -2.12230000000000       -3.93780000000000        9.98160000000000
F           -2.31580000000000       -5.28920000000000        9.04200000000000
F           -3.71300000000000       -4.06130000000000       10.42160000000000
F           -1.73500000000000       -4.92440000000000       11.18200000000000
F           -1.93980000000000       -2.69580000000000       11.04160000000000
F           -0.53090000000000       -3.90200000000000        9.52190000000000
S           -2.89690000000000        5.73720000000000        5.74980000000000
F           -4.40370000000000        6.04840000000000        5.13020000000000
F           -3.62860000000000        5.27150000000000        7.16840000000000
F           -2.90350000000000        7.24680000000000        6.30010000000000
F           -1.43740000000000        5.56140000000000        6.49770000000000
F           -2.25910000000000        6.29320000000000        4.34830000000000
S           -7.89520000000000       -2.33060000000000        1.88250000000000
F           -7.37610000000000       -1.37070000000000        0.64170000000000
F           -8.96460000000000       -1.15740000000000        2.33500000000000
F           -9.02190000000000       -2.90470000000000        0.89610000000000
F           -8.48890000000000       -3.32920000000000        3.05540000000000
F           -6.90040000000000       -3.54320000000000        1.36290000000000
H           -3.64200000000000       -4.25800000000000        7.48960000000000
H           -6.10400000000000       -3.61210000000000        3.78620000000000
H           -6.98980000000000        0.36990000000000        2.46960000000000
H           -1.36090000000000       -1.19110000000000        9.41690000000000
H           -0.82790000000000        3.64860000000000        5.49790000000000
H            6.44510000000000        1.10780000000000        2.45670000000000
H            0.41400000000000       -1.94660000000000        8.60390000000000
H            7.19870000000000       -2.13000000000000        5.16280000000000
H            3.51680000000000        4.33050000000000        3.56750000000000
H            4.61050000000000       -2.61630000000000        8.98560000000000
H           -4.96810000000000        4.00440000000000        4.53020000000000
H            0.74690000000000        4.03410000000000        6.81780000000000
190
 energy: -557.427024494084 gnorm: 0.186702766824 xtb: 6.7.1 (edcfbbe)
C            1.45000953154707        3.56871535105469        0.14580513111974
C            1.64406992189991        2.18323005833877        0.25330867871602
C            2.70639750237719        1.58266913235763       -0.49555346092329
C            3.37193457947360        2.41180596963717       -1.47472732922084
C            3.01386580643669        3.77252413402374       -1.66153907926246
C            2.11553512769348        4.31976816583384       -0.80679592567854
C            3.31417414970057        0.30212499118835       -0.25671977304647
C            4.54948248347952        0.04272225133720       -0.89339450871005
C            4.99606768762614        0.87426207443779       -1.95991340903552
N            4.38389567166663        2.01372080138012       -2.23571179426397
C            2.91297562410389       -0.69174373937002        0.69998044471469
C            3.97263113032334       -1.48398899628004        1.27052371903349
N            5.14373928074497       -1.65859723099634        0.68491949235366
C            5.39100534848107       -1.02174720497308       -0.45358412557871
C            6.56583679859148       -1.32830265032278       -1.17864170084530
C            6.87887760753401       -0.57650316236815       -2.28451237126571
C            6.15204328730015        0.51065857543318       -2.69594806065492
C            1.58851191983513       -1.00737989520326        1.09162759528516
C            1.40940813391857       -1.73881392508739        2.26947272150941
C            2.49840422753646       -2.20186412981077        2.98667754234644
C            3.76600920717484       -2.15309376429655        2.50739639502455
O            0.82832040808381        1.54195135436691        1.08873807630637
O            0.54538619246919       -0.68720469040336        0.33186203051868
C           -1.91952806412625       -1.54065668217415        2.56408192956738
C           -2.01614213966823       -0.69572622379107        1.44923915747437
C           -2.90942272639499       -1.06346150120159        0.39004990688337
C           -3.48819234843516       -2.38521165473330        0.44459359343150
C           -3.21674923685334       -3.27098473042552        1.51960823957177
C           -2.49469287246461       -2.79884347058897        2.56115941991340
C           -3.44001696969766       -0.19942044532527       -0.62977559617008
C           -4.54339292641990       -0.68052051264640       -1.37116740101052
C           -4.89295946765983       -2.05912086372638       -1.32915055277864
N           -4.33851801012113       -2.87443310604495       -0.44893211878386
C           -3.10709122446268        1.17669808139676       -0.87113747555372
C           -4.17549679199020        2.00914070675661       -1.37017167199288
N           -5.23036369579600        1.52699467516116       -2.00448242683717
C           -5.35576886736596        0.21078911051976       -2.13405605910247
C           -6.38242564503596       -0.30874984399624       -2.95395038075348
C           -6.58399021158421       -1.66818933627835       -2.98509664696831
C           -5.89346140914234       -2.55607133486266       -2.20354006536708
C           -1.83726998988835        1.78400188853849       -0.72583072696973
C           -1.78018115608578        3.17984527855298       -0.66107511540441
C           -2.92451583614403        3.95502454312089       -0.79571112257824
C           -4.09829577746090        3.42089577679210       -1.22251569102783
O           -1.28244103376605        0.41150248155015        1.49508461980002
O           -0.71846086096615        1.05634333411391       -0.71907659110456
B           -0.15790683509937        0.58027756747944        0.54214169530828
S            1.62338703100703        6.09148267425728       -1.03484684606026
F            1.19142774227099        6.26041894057218        0.53823015165287
F            3.13772460451581        6.65007651228566       -0.67085929908743
F            1.14037286277080        7.60105725678903       -1.26075117329959
F            2.05657431741478        6.08014212787856       -2.63559371380961
F            0.12043388399177        5.56071228093814       -1.48841068319382
S            2.22387610738885       -2.81511007019955        4.72555171878954
F            3.79982772655721       -3.31964194260705        4.90342727209168
F            2.76525270458811       -1.30444808600637        5.22437600338591
F            2.05513487757362       -3.17798909272295        6.28484948597516
F            0.69996337408476       -2.19276972840015        4.77200341833413
F            1.76952422530861       -4.32938225793889        4.35941096730390
S            8.39374866710716       -1.03459160301464       -3.24900227339317
F            7.58851500429255       -0.86496098611044       -4.68324507722398
F            7.99051512101924       -2.63695064283787       -3.21368803624816
F            9.69693706442069       -1.43716217000220       -4.09409960968186
F            9.28735655689337       -1.23225136177209       -1.87691889379061
F            8.88285518358585        0.53930223557795       -3.34838244559954
S           -2.09253853634569       -3.96195117388502        3.94637798545453
F           -2.29692985077331       -5.31599441385278        3.02437201051239
F           -3.68942404497439       -4.14055146937034        4.38013637415683
F           -1.71895910217247       -4.92727644234884        5.17145109195055
F           -1.88615286566147       -2.71560731989908        4.99881973613185
F           -0.49977613724592       -3.91294095626206        3.50940467155980
S           -2.89503859730308        5.73849235367726       -0.24741671438128
F           -4.40266918960246        6.04734935698227       -0.86852396459887
F           -3.62924008296359        5.26697783561017        1.16916365835401
F           -2.90411624038684        7.24739596493575        0.30037640443751
F           -1.43641852384440        5.55889905557756        0.49846108849966
F           -2.25973927060907        6.29274689396289       -1.65138873196655
S           -7.89563198579152       -2.33061127064856       -4.11447436531258
F           -7.37612960099401       -1.37133717436783       -5.35713977145674
F           -8.96489690186328       -1.15658830235895       -3.66547095378635
F           -9.02132529965690       -2.90429855550085       -5.10354350355414
F           -8.48912908243189       -3.33075171280593       -2.94467558212492
F           -6.90034213790133       -3.54265645853983       -4.63704141952143
H           -3.64273534450418       -4.25740359750859        1.48594982467601
H           -6.10515621032262       -3.61211767274678       -2.21260210262383
H           -6.99004925239600        0.36958658247906       -3.52999048786042
H           -1.35770872141679       -1.19002481812209        3.41520493697473
H           -0.82774508950259        3.64930486914522       -0.50284703801200
H            6.44548232288258        1.10835747554096       -3.54290473807235
H            0.41154519357430       -1.94766974197800        2.60126692460451
H            7.19829380266647       -2.13027645399046       -0.83777096051128
H            3.51655313164737        4.32981704747783       -2.43225239030906
H            4.61216859114315       -2.61883379884216        2.97929919738575
H           -4.96758801253662        4.00399002248988       -1.47015145262957
H            0.74741804172645        4.03577611976928        0.81837461335326
C            1.44717830211188        3.57094797000691        6.14621095541705
C            1.63820715781457        2.19439353681619        6.25505580978765
C            2.72282030647968        1.61074886779508        5.51607926507626
C            3.37519442350444        2.42246909687682        4.51404634436658
C            3.01309714313516        3.77797826111575        4.33523054510849
C            2.11641152726198        4.32125203713165        5.19231256888043
C            3.35812809049489        0.38354349013654        5.77676050921220
C            4.57843585834744        0.08433847400019        5.12357650560993
C            5.00547440588402        0.88913962606270        4.03914397869111
N            4.38695243768698        2.02111559112828        3.75735803035539
C            2.91613771930794       -0.68950998080280        6.69694519140125
C            3.99191203667349       -1.48559850945104        7.28986025014267
N            5.14716307373982       -1.65165540090990        6.69576991186276
C            5.40030659111372       -1.01086636798916        5.54788107765272
C            6.56502426117720       -1.32372787403622        4.82767464253824
C            6.87891745132867       -0.57376877458122        3.71365686286248
C            6.15427736417615        0.50875958639882        3.30079399583701
C            1.57079192542175       -0.97541077434246        7.14429784062870
C            1.40674256020996       -1.70973165821705        8.29792874828236
C            2.50569173433125       -2.18792754547765        9.01491670128614
C            3.76851121752855       -2.15054200590951        8.52198416293973
O            0.82718295615984        1.54829977964937        7.08990167020441
O            0.54733474002981       -0.66352788326038        6.36223717843464
C           -1.91926132254034       -1.54141941876052        8.56545772674325
C           -2.01849873196432       -0.69176849071178        7.45267512952679
C           -2.92161480777571       -1.04784159431050        6.40559633272771
C           -3.52672710367348       -2.35964164231736        6.48627796271372
C           -3.22882512777344       -3.26304756388254        7.53415615134212
C           -2.49575698733899       -2.79784576061797        8.57320354071095
C           -3.44436873477444       -0.19258615635042        5.37695276768149
C           -4.54493767559371       -0.67179628415822        4.62664200873933
C           -4.92144533837674       -2.03563681765473        4.68766871668393
N           -4.40772425783754       -2.82653011458173        5.61850841234097
C           -3.10639737112616        1.17738324457260        5.12422342668830
C           -4.17494905962558        2.01024590832143        4.62508448311327
N           -5.23309397612371        1.52966367765249        3.99645250387847
C           -5.35474252153332        0.21479346619432        3.85934904063639
C           -6.38218075960336       -0.30705204452139        3.04204625787187
C           -6.58414240874733       -1.66381854632135        3.01062012408446
C           -5.89920816630570       -2.54725802182457        3.80346932128178
C           -1.83648664789647        1.78509461591112        5.26953174030908
C           -1.78004374735681        3.17823266652850        5.33722309074621
C           -2.92551122617487        3.95382810935035        5.20282651706430
C           -4.09932189779592        3.42146784982720        4.77840722425978
O           -1.28290353380731        0.41480721746013        7.49645867310249
O           -0.71702328844624        1.05568778209296        5.27886149316824
B           -0.16567719048821        0.59557896947658        6.54816252429923
S            1.62242418865792        6.09130248656563        4.95855229695192
F            1.19425447856998        6.26097565730863        6.53655890720803
F            3.13611189230935        6.65016422051246        5.32889352450107
F            1.13989982860743        7.60132523081037        4.74092413866088
F            2.06015657359798        6.07718759658705        3.36245777265131
F            0.12015355350107        5.55909117059656        4.51136607170704
S            2.25042604669694       -2.73972839688831       10.77404194373256
F            3.80241393611127       -3.30460773236529       10.91669437559469
F            2.80133308457661       -1.24991975361678       11.26562433022622
F            2.05563863570833       -3.12389763571560       12.32152462260729
F            0.71767490872719       -2.13384717060359       10.81773812719810
F            1.78438604239001       -4.25600495091638       10.37776423797411
S            8.39532670826569       -1.03378049206577        2.75116401533915
F            7.59343597355547       -0.85773597590611        1.31675297043831
F            7.98885842869381       -2.63523759970928        2.78593431544393
F            9.69740802266999       -1.43758195478548        1.90759297809666
F            9.28701584005536       -1.23253635120815        4.12533280201074
F            8.88379285212567        0.53959071346149        2.65261435336543
S           -2.12070463399318       -3.93886795229826        9.97972573046320
F           -2.31668530025890       -5.28953363116556        9.04180668687069
F           -3.71150491583325       -4.06131530783613       10.42125902992272
F           -1.73440614436536       -4.92422362333302       11.18189191848618
F           -1.93901266512367       -2.69660317353941       11.04048176450819
F           -0.52948536655721       -3.90177617234272        9.52228240844210
S           -2.89675780951607        5.73779588619369        5.74571344045573
F           -4.40487858979542        6.04748085158831        5.13143595748039
F           -3.62751181254346        5.27172434857828        7.16660137648968
F           -2.90324275767157        7.24614910056937        6.30061000374624
F           -1.43831115954966        5.55996207953291        6.49722330268440
F           -2.25762220214779        6.29372827338686        4.34792220230169
S           -7.89518531551362       -2.33019601774567        1.88405609645147
F           -7.37059629352808       -1.37146703568216        0.63839718528181
F           -8.96463115671366       -1.15621384913223        2.33284042897188
F           -9.01937775081366       -2.90377522241907        0.89532492028661
F           -8.48886526427174       -3.33025981235148        3.05549508466685
F           -6.89701000649463       -3.54115259623158        1.36209238180514
H           -3.64140338238310       -4.25620262042615        7.49035581112365
H           -6.10287481966884       -3.60642912817568        3.78870363961455
H           -6.99021187408057        0.37065196219988        2.46782008791847
H           -1.35927711997664       -1.19121141079933        9.41804184561247
H           -0.82826839979217        3.64836978510884        5.49745018434797
H            6.44690839395968        1.10580464464069        2.45499994032813
H            0.40960477819085       -1.94981951234276        8.60832828383240
H            7.19459581389259       -2.13087323695299        5.16332618797100
H            3.51445577875047        4.33389847628126        3.56527224970420
H            4.61224769818724       -2.61989319060930        8.99058726517780
H           -4.96720160020965        4.00519704716358        4.52849670931295
H            0.74510589316173        4.03585784279128        6.81857366027694
190
 energy: -557.490300371931 gnorm: 0.086046472957 xtb: 6.7.1 (edcfbbe)
C            1.44957867655734        3.56946379362351        0.14672148464610