Optimization of monomers started
      -----------------------------------------------------------      
     |                   =====================                   |     
     |                           x T B                           |     
     |                   =====================                   |     
     |                         S. Grimme                         |     
     |          Mulliken Center for Theoretical Chemistry        |     
     |                    University of Bonn                     |     
      -----------------------------------------------------------      

   * xtb version 6.7.1 (edcfbbe) compiled by 'runner@Mac-1732539442253.local' on 2024-11-25

   xtb is free software: you can redistribute it and/or modify it under
   the terms of the GNU Lesser General Public License as published by
   the Free Software Foundation, either version 3 of the License, or
   (at your option) any later version.
   
   xtb is distributed in the hope that it will be useful,
   but WITHOUT ANY WARRANTY; without even the implied warranty of
   MERCHANTABILITY or FITNESS FOR A PARTICULAR PURPOSE.  See the
   GNU Lesser General Public License for more details.
   
   Cite this work as:
   * C. Bannwarth, E. Caldeweyher, S. Ehlert, A. Hansen, P. Pracht,
     J. Seibert, S. Spicher, S. Grimme, WIREs Comput. Mol. Sci., 2020, 11,
     e01493. DOI: 10.1002/wcms.1493
   
   for GFN2-xTB:
   * C. Bannwarth, S. Ehlert and S. Grimme., J. Chem. Theory Comput., 2019,
     15, 1652-1671. DOI: 10.1021/acs.jctc.8b01176
   for GFN1-xTB:
   * S. Grimme, C. Bannwarth, P. Shushkov, J. Chem. Theory Comput., 2017,
     13, 1989-2009. DOI: 10.1021/acs.jctc.7b00118
   for GFN0-xTB:
   * P. Pracht, E. Caldeweyher, S. Ehlert, S. Grimme, ChemRxiv, 2019, preprint.
     DOI: 10.26434/chemrxiv.8326202.v1
   for GFN-FF:
   * S. Spicher and S. Grimme, Angew. Chem. Int. Ed., 2020, 59, 15665-15673.
     DOI: 10.1002/anie.202004239
   
   for ALPB and GBSA implicit solvation:
   * S. Ehlert, M. Stahn, S. Spicher, S. Grimme, J. Chem. Theory Comput.,
     2021, 17, 4250-4261. DOI: 10.1021/acs.jctc.1c00471
   
   for ddCOSMO and CPCM-X implicit solvation:
   * M. Stahn, S. Ehlert, S. Grimme, J. Phys. Chem. A,
     2023, XX, XXXX-XXXX. DOI: 10.1021/acs.jpca.3c04382
   
   for DFT-D4:
   * E. Caldeweyher, C. Bannwarth and S. Grimme, J. Chem. Phys., 2017,
     147, 034112. DOI: 10.1063/1.4993215
   * E. Caldeweyher, S. Ehlert, A. Hansen, H. Neugebauer, S. Spicher,
     C. Bannwarth and S. Grimme, J. Chem. Phys., 2019, 150, 154122.
     DOI: 10.1063/1.5090222
   * E. Caldeweyher, J.-M. Mewes, S. Ehlert and S. Grimme, Phys. Chem. Chem. Phys.
     2020, 22, 8499-8512. DOI: 10.1039/D0CP00502A
   
   for sTDA-xTB:
   * S. Grimme and C. Bannwarth, J. Chem. Phys., 2016, 145, 054103.
     DOI: 10.1063/1.4959605
   
   in the mass-spec context:
   * V. Asgeirsson, C. Bauer and S. Grimme, Chem. Sci., 2017, 8, 4879.
     DOI: 10.1039/c7sc00601b
   * J. Koopman and S. Grimme, ACS Omega 2019, 4, 12, 15120-15133.
     DOI: 10.1021/acsomega.9b02011
   
   for metadynamics refer to:
   * S. Grimme, J. Chem. Theory Comput., 2019, 155, 2847-2862
     DOI: 10.1021/acs.jctc.9b00143
   
   for SPH calculations refer to:
   * S. Spicher and S. Grimme, J. Chem. Theory Comput., 2021, 17, 1701-1714
     DOI: 10.1021/acs.jctc.0c01306
   
   for ONIOM refer to:
   * C. Plett, A. Katbashev, S. Ehlert, S. Grimme, M. Bursch,
     Phys. Chem. Chem. Phys., 2023, 25, 17860-17868. DOI: 10.1039/D3CP02178E
   
   for DIPRO refer to:
   * J. Kohn, N. Gildemeister, S. Grimme, D. Fazzi, A. Hansen,
     J. Chem. Phys., 2023, just accepted.
   
   for PTB refer to:
   * S. Grimme, M. Mueller, A. Hansen, J. Chem. Phys., 2023, 158, 124111.
     DOI: 10.1063/5.0137838
   
   with help from (in alphabetical order)
   P. Atkinson, C. Bannwarth, F. Bohle, G. Brandenburg, E. Caldeweyher
   M. Checinski, S. Dohm, S. Ehlert, S. Ehrlich, I. Gerasimov, C. Hölzer
   A. Katbashev, J. Kohn, J. Koopman, C. Lavigne, S. Lehtola, F. März, M. Müller,
   F. Musil, H. Neugebauer, J. Pisarek, C. Plett, P. Pracht, F. Pultar,
   J. Seibert, P. Shushkov, S. Spicher, M. Stahn, M. Steiner, T. Strunk,
   J. Stückrath, T. Rose, and J. Unsleber
   
 * started run on 2025/03/04 at 12:32:13.076     
   ID    Z sym.   atoms
    1    6 C      1-9, 11, 12, 14-21, 34, 38, 41-43
    2    7 N      10, 13
    3    8 O      22, 23, 32, 33, 36, 37, 39, 40
    4   16 S      24, 25, 35
    5    1 H      26-31, 44-58

           -------------------------------------------------
          |                Calculation Setup                |
           -------------------------------------------------

          program call               : xtb Base3SO2Me.mol --opt tight --cycles 500 --chrg 0 --uhf 1 --spinpol --tblite
          coordinate file            : Base3SO2Me.mol
          omp threads                :                     8

Wavefunction read from restart file
repulsion energy          1.1532234384035E+00 Eh
dispersion energy         7.2386336977476E-04 Eh
interaction energy        0.0000000000000E+00 Eh
number of electrons       1.9300000000000E+02 e
integral cutoff           1.8403572253217E+01 bohr

------------------------------------------------------------
  cycle        total energy    energy error   density error
------------------------------------------------------------
      1     -110.0979353145  -1.1125188E+02   3.3313096E-02
      2     -110.1147469574  -1.6811643E-02   2.0249470E-02
      3     -110.1095826641   5.1642933E-03   1.4145937E-02
      4     -110.1194181119  -9.8354478E-03   7.3789547E-03
      5     -110.1220459153  -2.6278034E-03   4.9054334E-03
      6     -110.1249449670  -2.8990517E-03   2.1266107E-03
      7     -110.1251137586  -1.6879157E-04   1.1284499E-03
      8     -110.1251418535  -2.8094926E-05   7.5840737E-04
      9     -110.1251656692  -2.3815722E-05   3.4191060E-04
     10     -110.1251697636  -4.0943589E-06   1.9516793E-04
     11     -110.1251713216  -1.5580765E-06   8.6303244E-05
     12     -110.1251716696  -3.4800088E-07   4.2994742E-05
     13     -110.1251717064  -3.6726846E-08   1.9791778E-05
------------------------------------------------------------

electronic energy        -1.1127911900814E+02 Eh
total energy             -1.1012517170637E+02 Eh

 total:                                   0.523 sec
 - repulsion                              0.000 sec (  0%)
 - dispersion                             0.003 sec (  0%)
 - coulomb                                0.001 sec (  0%)
 - hamiltonian                            0.008 sec (  1%)
 - scc                                    0.511 sec ( 97%)

      ----------------------------------------------------------- 
     |                   =====================                   |
     |                        A N C O P T                        |
     |                   =====================                   |
     |               Approximate Normal Coordinate               |
     |                Rational Function Optimizer                |
      ----------------------------------------------------------- 
      ----------------------------------------------------------- 
     |                   =====================                   |
     |                        A N C O P T                        |
     |                   =====================                   |
     |               Approximate Normal Coordinate               |
     |                Rational Function Optimizer                |
      ----------------------------------------------------------- 

          ...................................................
          :                      SETUP                      :
          :.................................................:
          :   optimization level             tight          :
          :   max. optcycles                   500          :
          :   ANC micro-cycles                  20          :
          :   degrees of freedom               168          :
          :.................................................:
          :   RF solver                   davidson          :
          :   write xtbopt.log                true          :
          :   linear?                        false          :
          :   energy convergence         0.1000000E-05 Eh   :
          :   grad. convergence          0.8000000E-03 Eh/α :
          :   maxmium RF displ.          1.0000000          :
          :   Hlow (freq-cutoff)         0.1000000E-01      :
          :   Hmax (freq-cutoff)         5.0000000          :
          :   S6 in model hess.         20.0000000          :
          ...................................................

generating ANC from exact Hessian ...
Using Lindh-Hessian (1995)
 Shifting diagonal of input Hessian by    9.8479454768016401E-003
 Lowest  eigenvalues of input Hessian
    0.000000    0.000000    0.000000    0.000000    0.000000    0.000000
    0.010000    0.010087    0.010159    0.010214    0.010408    0.010619
    0.010799    0.011324    0.011655    0.012172    0.013096    0.013142
 Highest eigenvalues
    1.998203    2.001135    2.019775    2.051370    2.171033    2.174787


........................................................................
.............................. CYCLE    1 ..............................
........................................................................
------------------------------------------------------------
  cycle        total energy    energy error   density error
------------------------------------------------------------
      1     -110.1251715039  -1.1127912E+02   3.4350746E-05
      2     -110.1251714635   4.0327237E-08   3.6968718E-05
      3     -110.1251717174  -2.5391117E-07   6.6218388E-06
------------------------------------------------------------

 total:                                   0.137 sec
 * total energy  :  -110.1251717 Eh     change       -0.1107416E-07 Eh
   gradient norm :     0.2637163 Eh/α   predicted     0.0000000E+00 (-100.00%)
   displ. norm   :     0.4471233 α      lambda       -0.7224987E-01
   maximum displ.:     0.1662128 α      in ANC's #75, #56, #64, ...

........................................................................
.............................. CYCLE    2 ..............................
........................................................................
------------------------------------------------------------
  cycle        total energy    energy error   density error
------------------------------------------------------------
      1     -110.1769345484  -1.1137309E+02   1.0580404E-02
      2     -110.1781372899  -1.2027415E-03   5.8526920E-03
      3     -110.1781447988  -7.5089769E-06   3.2843925E-03
      4     -110.1782595409  -1.1474204E-04   1.4565933E-03
      5     -110.1784721449  -2.1260406E-04   4.7902520E-04
      6     -110.1784823747  -1.0229733E-05   2.3126368E-04
      7     -110.1784859774  -3.6027255E-06   9.7587937E-05
      8     -110.1784861679  -1.9053543E-07   6.8288462E-05
      9     -110.1784865088  -3.4081594E-07   3.4392199E-05
     10     -110.1784865590  -5.0261221E-08   1.4987765E-05
------------------------------------------------------------

 total:                                   0.439 sec
 * total energy  :  -110.1784866 Eh     change       -0.5331484E-01 Eh
   gradient norm :     0.1605636 Eh/α   predicted    -0.4338671E-01 ( -18.62%)
   displ. norm   :     0.4151697 α      lambda       -0.4004538E-01
   maximum displ.:     0.1381045 α      in ANC's #34, #36, #40, ...

........................................................................
.............................. CYCLE    3 ..............................
........................................................................
------------------------------------------------------------
  cycle        total energy    energy error   density error
------------------------------------------------------------
      1     -110.2002605013  -1.1144511E+02   8.3605795E-03
      2     -110.2018445966  -1.5840953E-03   5.3829473E-03
      3     -110.2020220697  -1.7747315E-04   3.0783222E-03
      4     -110.2018629295   1.5914021E-04   1.3959395E-03
      5     -110.2020908159  -2.2788636E-04   2.9095350E-04
      6     -110.2020950578  -4.2419129E-06   1.7145178E-04
      7     -110.2020959345  -8.7668023E-07   6.7667354E-05
      8     -110.2020960774  -1.4297602E-07   3.7692470E-05
      9     -110.2020961963  -1.1881762E-07   2.0616450E-05
     10     -110.2020962102  -1.3904810E-08   1.1064689E-05
------------------------------------------------------------

 total:                                   0.603 sec
 * total energy  :  -110.2020962 Eh     change       -0.2360965E-01 Eh
   gradient norm :     0.0324256 Eh/α   predicted    -0.2347393E-01 (  -0.57%)
   displ. norm   :     0.3815912 α      lambda       -0.5783134E-02
   maximum displ.:     0.1439341 α      in ANC's #34, #21, #33, ...

........................................................................
.............................. CYCLE    4 ..............................
........................................................................
------------------------------------------------------------
  cycle        total energy    energy error   density error
------------------------------------------------------------
      1     -110.2062701598  -1.1145959E+02   3.3240835E-03
      2     -110.2063002996  -3.0139820E-05   1.8698970E-03
      3     -110.2062717718   2.8527838E-05   6.5195413E-04
      4     -110.2062987045  -2.6932704E-05   3.2360969E-04
      5     -110.2063093679  -1.0663408E-05   1.0947275E-04
      6     -110.2063096679  -2.9998834E-07   6.4261083E-05
      7     -110.2063101284  -4.6052082E-07   2.6170226E-05
      8     -110.2063101524  -2.3985820E-08   1.5858111E-05
------------------------------------------------------------

 total:                                   0.269 sec
 * total energy  :  -110.2063102 Eh     change       -0.4213942E-02 Eh
   gradient norm :     0.0205697 Eh/α   predicted    -0.3312623E-02 ( -21.39%)
   displ. norm   :     0.4338400 α      lambda       -0.3279472E-02
   maximum displ.:     0.1855189 α      in ANC's #21, #8, #31, ...

........................................................................
.............................. CYCLE    5 ..............................
........................................................................
------------------------------------------------------------
  cycle        total energy    energy error   density error
------------------------------------------------------------
      1     -110.2084951899  -1.1146573E+02   2.9892155E-03
      2     -110.2085265542  -3.1364382E-05   1.6826807E-03
      3     -110.2085089414   1.7612880E-05   5.6593692E-04
      4     -110.2085250431  -1.6101703E-05   2.7828908E-04
      5     -110.2085333932  -8.3501130E-06   1.1619115E-04
      6     -110.2085338553  -4.6216672E-07   6.3558430E-05
      7     -110.2085342757  -4.2035020E-07   2.7038786E-05
      8     -110.2085342983  -2.2566681E-08   1.7965471E-05
------------------------------------------------------------

 total:                                   0.321 sec
 * total energy  :  -110.2085343 Eh     change       -0.2224146E-02 Eh
   gradient norm :     0.0126534 Eh/α   predicted    -0.1948365E-02 ( -12.40%)
   displ. norm   :     0.3596056 α      lambda       -0.1300705E-02
   maximum displ.:     0.1802174 α      in ANC's #8, #21, #4, ...

........................................................................
.............................. CYCLE    6 ..............................
........................................................................
------------------------------------------------------------
  cycle        total energy    energy error   density error
------------------------------------------------------------
      1     -110.2094921712  -1.1146961E+02   2.0833714E-03
      2     -110.2095049257  -1.2754447E-05   1.1705779E-03
      3     -110.2094923905   1.2535197E-05   4.4107881E-04
      4     -110.2095045017  -1.2111245E-05   1.9565094E-04
      5     -110.2095089551  -4.4533568E-06   7.4859964E-05
      6     -110.2095092489  -2.9388156E-07   4.0803359E-05
      7     -110.2095093880  -1.3903568E-07   1.7576751E-05
------------------------------------------------------------

 total:                                   0.258 sec
 * total energy  :  -110.2095094 Eh     change       -0.9750897E-03 Eh
   gradient norm :     0.0109407 Eh/α   predicted    -0.7344809E-03 ( -24.68%)
   displ. norm   :     0.4334113 α      lambda       -0.1097499E-02
   maximum displ.:     0.2518736 α      in ANC's #8, #21, #4, ...

........................................................................
.............................. CYCLE    7 ..............................
........................................................................
------------------------------------------------------------
  cycle        total energy    energy error   density error
------------------------------------------------------------
      1     -110.2103467687  -1.1147095E+02   2.4445526E-03
      2     -110.2103596564  -1.2887684E-05   1.3333392E-03
      3     -110.2103459428   1.3713608E-05   4.7896927E-04
      4     -110.2103601781  -1.4235362E-05   2.1204186E-04
      5     -110.2103642138  -4.0356424E-06   8.1492915E-05
      6     -110.2103644445  -2.3074567E-07   4.2341391E-05
      7     -110.2103646464  -2.0188197E-07   1.6961925E-05
------------------------------------------------------------

 total:                                   0.271 sec
 * total energy  :  -110.2103646 Eh     change       -0.8552584E-03 Eh
   gradient norm :     0.0107040 Eh/α   predicted    -0.6518339E-03 ( -23.79%)
   displ. norm   :     0.4643440 α      lambda       -0.9486018E-03
   maximum displ.:     0.2800628 α      in ANC's #8, #4, #21, ...

........................................................................
.............................. CYCLE    8 ..............................
........................................................................
------------------------------------------------------------
  cycle        total energy    energy error   density error
------------------------------------------------------------
      1     -110.2110922753  -1.1147100E+02   2.5190608E-03
      2     -110.2111056002  -1.3324829E-05   1.3805342E-03
      3     -110.2110929190   1.2681172E-05   4.7118131E-04
      4     -110.2111033429  -1.0423929E-05   2.4151490E-04
      5     -110.2111094724  -6.1294862E-06   8.4460176E-05
      6     -110.2111096622  -1.8980589E-07   4.8233142E-05
      7     -110.2111099699  -3.0766108E-07   1.4894011E-05
------------------------------------------------------------

 total:                                   0.367 sec
 * total energy  :  -110.2111100 Eh     change       -0.7453235E-03 Eh
   gradient norm :     0.0090307 Eh/α   predicted    -0.5765700E-03 ( -22.64%)
   displ. norm   :     0.4625789 α      lambda       -0.7541861E-03
   maximum displ.:     0.2941870 α      in ANC's #8, #4, #13, ...

........................................................................
.............................. CYCLE    9 ..............................
........................................................................
------------------------------------------------------------
  cycle        total energy    energy error   density error
------------------------------------------------------------
      1     -110.2116573340  -1.1147081E+02   2.3875992E-03
      2     -110.2116674545  -1.0120472E-05   1.3081887E-03
      3     -110.2116496535   1.7800923E-05   4.6564250E-04
      4     -110.2116635881  -1.3934545E-05   2.5505392E-04
      5     -110.2116711668  -7.5787323E-06   8.0679644E-05
      6     -110.2116713824  -2.1558270E-07   4.0773594E-05
      7     -110.2116716045  -2.2206676E-07   1.3311523E-05
------------------------------------------------------------

 total:                                   0.327 sec
 * total energy  :  -110.2116716 Eh     change       -0.5616346E-03 Eh
   gradient norm :     0.0081810 Eh/α   predicted    -0.4577882E-03 ( -18.49%)
   displ. norm   :     0.3699711 α      lambda       -0.4575069E-03
   maximum displ.:     0.2520398 α      in ANC's #8, #4, #9, ...

........................................................................
.............................. CYCLE   10 ..............................
........................................................................
------------------------------------------------------------
  cycle        total energy    energy error   density error
------------------------------------------------------------
      1     -110.2119842040  -1.1147275E+02   1.6494043E-03
      2     -110.2119912062  -7.0021235E-06   9.5627385E-04
      3     -110.2119791663   1.2039842E-05   3.6661864E-04
      4     -110.2119887137  -9.5473765E-06   1.8647953E-04
      5     -110.2119936721  -4.9584361E-06   5.2462102E-05
      6     -110.2119936643   7.7726128E-09   3.4763155E-05
      7     -110.2119938225  -1.5810188E-07   9.6941872E-06
------------------------------------------------------------

 total:                                   0.249 sec
 * total energy  :  -110.2119938 Eh     change       -0.3222180E-03 Eh
   gradient norm :     0.0078772 Eh/α   predicted    -0.2600747E-03 ( -19.29%)
   displ. norm   :     0.2925151 α      lambda       -0.2767062E-03
   maximum displ.:     0.2090977 α      in ANC's #8, #9, #13, ...

........................................................................
.............................. CYCLE   11 ..............................
........................................................................
------------------------------------------------------------
  cycle        total energy    energy error   density error
------------------------------------------------------------
      1     -110.2121749573  -1.1147337E+02   1.2941640E-03
      2     -110.2121774133  -2.4560214E-06   7.2973901E-04
      3     -110.2121658884   1.1524971E-05   3.1185117E-04
      4     -110.2121787217  -1.2833378E-05   1.0347770E-04
      5     -110.2121792341  -5.1236742E-07   4.4193330E-05
      6     -110.2121793292  -9.5082171E-08   2.4031310E-05
      7     -110.2121794076  -7.8372494E-08   8.6965537E-06
------------------------------------------------------------

 total:                                   0.255 sec
 * total energy  :  -110.2121794 Eh     change       -0.1855851E-03 Eh
   gradient norm :     0.0052986 Eh/α   predicted    -0.1501968E-03 ( -19.07%)
   displ. norm   :     0.2178713 α      lambda       -0.1901193E-03
   maximum displ.:     0.1571970 α      in ANC's #8, #13, #9, ...

........................................................................
.............................. CYCLE   12 ..............................
........................................................................
------------------------------------------------------------
  cycle        total energy    energy error   density error
------------------------------------------------------------
      1     -110.2123042952  -1.1147568E+02   8.3754524E-04
      2     -110.2123061147  -1.8194826E-06   4.9033722E-04
      3     -110.2122996381   6.4766724E-06   2.4817846E-04
      4     -110.2123068383  -7.2002036E-06   8.5182319E-05
      5     -110.2123077652  -9.2691806E-07   2.7330531E-05
      6     -110.2123077661  -9.3231733E-10   1.7312481E-05
------------------------------------------------------------

 total:                                   0.212 sec
 * total energy  :  -110.2123078 Eh     change       -0.1283586E-03 Eh
   gradient norm :     0.0048538 Eh/α   predicted    -0.9957257E-04 ( -22.43%)
   displ. norm   :     0.1950124 α      lambda       -0.1156562E-03
   maximum displ.:     0.1345322 α      in ANC's #8, #13, #9, ...

........................................................................
.............................. CYCLE   13 ..............................
........................................................................
------------------------------------------------------------
  cycle        total energy    energy error   density error
------------------------------------------------------------
      1     -110.2123857219  -1.1147496E+02   7.0414555E-04
      2     -110.2123863804  -6.5844624E-07   4.0188474E-04
      3     -110.2123786703   7.7101298E-06   2.5008212E-04
      4     -110.2123875388  -8.8685200E-06   7.1512798E-05
      5     -110.2123880010  -4.6217328E-07   2.7836430E-05
      6     -110.2123880295  -2.8497041E-08   1.5415628E-05
------------------------------------------------------------

 total:                                   0.227 sec
 * total energy  :  -110.2123880 Eh     change       -0.8026335E-04 Eh
   gradient norm :     0.0044574 Eh/α   predicted    -0.6003411E-04 ( -25.20%)
   displ. norm   :     0.1863369 α      lambda       -0.1087505E-03
   maximum displ.:     0.1230103 α      in ANC's #8, #3, #11, ...

........................................................................
.............................. CYCLE   14 ..............................
........................................................................
------------------------------------------------------------
  cycle        total energy    energy error   density error
------------------------------------------------------------
      1     -110.2124322388  -1.1147621E+02   8.1257817E-04
      2     -110.2124338319  -1.5931139E-06   4.5595720E-04
      3     -110.2124280076   5.8243044E-06   2.3781919E-04
      4     -110.2124337348  -5.7271813E-06   9.8021120E-05
      5     -110.2124350060  -1.2712398E-06   2.7695008E-05
      6     -110.2124350191  -1.3032590E-08   1.5161941E-05
------------------------------------------------------------

 total:                                   0.219 sec
 * total energy  :  -110.2124350 Eh     change       -0.4698961E-04 Eh
   gradient norm :     0.0040148 Eh/α   predicted    -0.5626529E-04 (  19.74%)
   displ. norm   :     0.1053706 α      lambda       -0.5938072E-04
   maximum displ.:     0.0529340 α      in ANC's #8, #13, #11, ...

........................................................................
.............................. CYCLE   15 ..............................
........................................................................
------------------------------------------------------------
  cycle        total energy    energy error   density error
------------------------------------------------------------
      1     -110.2124690660  -1.1147469E+02   4.4748933E-04
      2     -110.2124693818  -3.1579468E-07   2.5963372E-04
      3     -110.2124663222   3.0596619E-06   1.5955462E-04
      4     -110.2124698495  -3.5273802E-06   3.6245064E-05
      5     -110.2124699194  -6.9859595E-08   1.9528606E-05
------------------------------------------------------------

 total:                                   0.184 sec
 * total energy  :  -110.2124699 Eh     change       -0.3490033E-04 Eh
   gradient norm :     0.0028671 Eh/α   predicted    -0.3002553E-04 ( -13.97%)
   displ. norm   :     0.0591676 α      lambda       -0.3315474E-04
   maximum displ.:     0.0263937 α      in ANC's #14, #11, #17, ...

........................................................................
.............................. CYCLE   16 ..............................
........................................................................
------------------------------------------------------------
  cycle        total energy    energy error   density error
------------------------------------------------------------
      1     -110.2124959538  -1.1147441E+02   3.9008066E-04
      2     -110.2124961727  -2.1887570E-07   2.3417369E-04
      3     -110.2124934761   2.6966033E-06   1.6165267E-04
      4     -110.2124969197  -3.4436372E-06   3.2847856E-05
      5     -110.2124970216  -1.0191050E-07   1.5856013E-05
------------------------------------------------------------

 total:                                   0.326 sec
 * total energy  :  -110.2124970 Eh     change       -0.2710221E-04 Eh
   gradient norm :     0.0024345 Eh/α   predicted    -0.1663694E-04 ( -38.61%)
   displ. norm   :     0.1488500 α      lambda       -0.6080707E-04
   maximum displ.:     0.0661893 α      in ANC's #14, #11, #17, ...

........................................................................
.............................. CYCLE   17 ..............................
........................................................................
------------------------------------------------------------
  cycle        total energy    energy error   density error
------------------------------------------------------------
      1     -110.2125338378  -1.1147436E+02   9.2630462E-04
      2     -110.2125346695  -8.3164353E-07   5.3212616E-04
      3     -110.2125238649   1.0804581E-05   2.8179207E-04
      4     -110.2125359209  -1.2055997E-05   6.5846805E-05
      5     -110.2125362418  -3.2095490E-07   3.2114699E-05
      6     -110.2125363469  -1.0501195E-07   1.1051968E-05
------------------------------------------------------------

 total:                                   0.234 sec
 * total energy  :  -110.2125363 Eh     change       -0.3932525E-04 Eh
   gradient norm :     0.0028972 Eh/α   predicted    -0.3107789E-04 ( -20.97%)
   displ. norm   :     0.1125513 α      lambda       -0.2724970E-04
   maximum displ.:     0.0411855 α      in ANC's #11, #3, #14, ...

........................................................................
.............................. CYCLE   18 ..............................
........................................................................
------------------------------------------------------------
  cycle        total energy    energy error   density error
------------------------------------------------------------
      1     -110.2125542255  -1.1147412E+02   6.2158250E-04
      2     -110.2125545413  -3.1578192E-07   3.5307021E-04
      3     -110.2125523281   2.2132355E-06   1.2959211E-04
      4     -110.2125546512  -2.3230931E-06   4.5250844E-05
      5     -110.2125548035  -1.5228864E-07   1.6590710E-05
------------------------------------------------------------

 total:                                   0.324 sec
 * total energy  :  -110.2125548 Eh     change       -0.1845662E-04 Eh
   gradient norm :     0.0029754 Eh/α   predicted    -0.1379820E-04 ( -25.24%)
   displ. norm   :     0.1534426 α      lambda       -0.3593139E-04
   maximum displ.:     0.0561752 α      in ANC's #3, #14, #6, ...

........................................................................
.............................. CYCLE   19 ..............................
........................................................................
------------------------------------------------------------
  cycle        total energy    energy error   density error
------------------------------------------------------------
      1     -110.2125700603  -1.1147491E+02   8.5615779E-04
      2     -110.2125710057  -9.4535331E-07   4.8329610E-04
      3     -110.2125661610   4.8446941E-06   1.9884741E-04
      4     -110.2125714976  -5.3366047E-06   6.5039162E-05
      5     -110.2125717200  -2.2245800E-07   3.3046560E-05
      6     -110.2125718431  -1.2309167E-07   1.2123628E-05
------------------------------------------------------------

 total:                                   0.282 sec
 * total energy  :  -110.2125718 Eh     change       -0.1703966E-04 Eh
   gradient norm :     0.0021738 Eh/α   predicted    -0.1839143E-04 (   7.93%)
   displ. norm   :     0.0536228 α      lambda       -0.1790620E-04
   maximum displ.:     0.0213586 α      in ANC's #3, #2, #15, ...

........................................................................
.............................. CYCLE   20 ..............................
........................................................................
------------------------------------------------------------
  cycle        total energy    energy error   density error
------------------------------------------------------------
      1     -110.2125824682  -1.1147515E+02   2.7501621E-04
      2     -110.2125825446  -7.6386499E-08   1.5282960E-04
      3     -110.2125810483   1.4963418E-06   1.1746844E-04
      4     -110.2125829592  -1.9109605E-06   2.5150821E-05
      5     -110.2125829819  -2.2702523E-08   1.3817479E-05
------------------------------------------------------------

 total:                                   0.234 sec
 * total energy  :  -110.2125830 Eh     change       -0.1113879E-04 Eh
   gradient norm :     0.0014059 Eh/α   predicted    -0.8981438E-05 ( -19.37%)
   displ. norm   :     0.0550705 α      lambda       -0.1016014E-04
   maximum displ.:     0.0219938 α      in ANC's #2, #15, #14, ...
 * RMSD in coord.:     0.4931521 α      energy gain  -0.8741128E-01 Eh

generating ANC from exact Hessian ...
Using Lindh-Hessian (1995)
 Shifting diagonal of input Hessian by    9.8157243621105061E-003
 Lowest  eigenvalues of input Hessian
    0.000000    0.000000    0.000000    0.000000    0.000000    0.000000
    0.010000    0.010072    0.010157    0.010221    0.010467    0.010744
    0.010813    0.011008    0.011657    0.011867    0.013494    0.013684
 Highest eigenvalues
    2.119188    2.199288    2.208550    2.637230    2.659574    2.668334


........................................................................
.............................. CYCLE   21 ..............................
........................................................................
------------------------------------------------------------
  cycle        total energy    energy error   density error
------------------------------------------------------------
      1     -110.2125909638  -1.1147529E+02   3.3902589E-04
      2     -110.2125913053  -3.4150051E-07   1.8619199E-04
      3     -110.2125901709   1.1344383E-06   1.0235591E-04
      4     -110.2125916224  -1.4515634E-06   3.0253168E-05
      5     -110.2125916726  -5.0114892E-08   1.4693629E-05
------------------------------------------------------------

 total:                                   0.234 sec
 * total energy  :  -110.2125917 Eh     change       -0.8690635E-05 Eh
   gradient norm :     0.0017468 Eh/α   predicted     0.0000000E+00 (-100.00%)
   displ. norm   :     0.0244861 α      lambda       -0.5756257E-05
   maximum displ.:     0.0097054 α      in ANC's #2, #4, #21, ...

........................................................................
.............................. CYCLE   22 ..............................
........................................................................
------------------------------------------------------------
  cycle        total energy    energy error   density error
------------------------------------------------------------
      1     -110.2125992676  -1.1147529E+02   1.8893034E-04
      2     -110.2125993525  -8.4856694E-08   1.0508530E-04
      3     -110.2125988955   4.5693930E-07   7.4283025E-05
      4     -110.2125995989  -7.0337191E-07   2.0712441E-05
      5     -110.2125996205  -2.1603995E-08   1.0472684E-05
------------------------------------------------------------

 total:                                   0.278 sec
 * total energy  :  -110.2125996 Eh     change       -0.7947965E-05 Eh
   gradient norm :     0.0005879 Eh/α   predicted    -0.3713866E-05 ( -53.27%)
   displ. norm   :     0.0520686 α      lambda       -0.7256069E-05
   maximum displ.:     0.0219900 α      in ANC's #2, #4, #6, ...

........................................................................
.............................. CYCLE   23 ..............................
........................................................................
------------------------------------------------------------
  cycle        total energy    energy error   density error
------------------------------------------------------------
      1     -110.2126071078  -1.1147518E+02   3.0307869E-04
      2     -110.2126073173  -2.0953927E-07   1.6151871E-04
      3     -110.2126063668   9.5046808E-07   9.8092542E-05
      4     -110.2126075091  -1.1422192E-06   3.4603466E-05
      5     -110.2126075980  -8.8911946E-08   1.7317782E-05
------------------------------------------------------------

 total:                                   0.194 sec
 * total energy  :  -110.2126076 Eh     change       -0.7977443E-05 Eh
   gradient norm :     0.0009383 Eh/α   predicted    -0.3632656E-05 ( -54.46%)
   displ. norm   :     0.0795363 α      lambda       -0.7154340E-05
   maximum displ.:     0.0345877 α      in ANC's #2, #6, #4, ...

........................................................................
.............................. CYCLE   24 ..............................
........................................................................
------------------------------------------------------------
  cycle        total energy    energy error   density error
------------------------------------------------------------
      1     -110.2126148605  -1.1147511E+02   4.3477852E-04
      2     -110.2126151473  -2.8676732E-07   2.2878886E-04
      3     -110.2126128809   2.2664129E-06   1.4691126E-04
      4     -110.2126156666  -2.7856991E-06   4.4599786E-05
      5     -110.2126157501  -8.3471448E-08   2.4463861E-05
      6     -110.2126158029  -5.2814926E-08   8.1986825E-06
------------------------------------------------------------

 total:                                   0.418 sec
 * total energy  :  -110.2126158 Eh     change       -0.8204917E-05 Eh
   gradient norm :     0.0014098 Eh/α   predicted    -0.3591180E-05 ( -56.23%)
   displ. norm   :     0.1041287 α      lambda       -0.7575680E-05
   maximum displ.:     0.0467837 α      in ANC's #2, #6, #4, ...

........................................................................
.............................. CYCLE   25 ..............................
........................................................................
------------------------------------------------------------
  cycle        total energy    energy error   density error
------------------------------------------------------------
      1     -110.2126238109  -1.1147508E+02   5.2488159E-04
      2     -110.2126241903  -3.7940029E-07   2.7317806E-04
      3     -110.2126235995   5.9082656E-07   8.9802041E-05
      4     -110.2126240970  -4.9755359E-07   5.3719076E-05
      5     -110.2126243455  -2.4847330E-07   1.8021405E-05
------------------------------------------------------------

 total:                                   0.222 sec
 * total energy  :  -110.2126243 Eh     change       -0.8542596E-05 Eh
   gradient norm :     0.0012055 Eh/α   predicted    -0.3818665E-05 ( -55.30%)
   displ. norm   :     0.0948781 α      lambda       -0.5980109E-05
   maximum displ.:     0.0453078 α      in ANC's #2, #6, #4, ...

........................................................................
.............................. CYCLE   26 ..............................
........................................................................
------------------------------------------------------------
  cycle        total energy    energy error   density error
------------------------------------------------------------
      1     -110.2126303777  -1.1147518E+02   4.7003736E-04
      2     -110.2126306491  -2.7141130E-07   2.4668917E-04
      3     -110.2126281760   2.4730808E-06   1.3929526E-04
      4     -110.2126310322  -2.8561764E-06   4.5538005E-05
      5     -110.2126311032  -7.0960184E-08   2.1496398E-05
      6     -110.2126311344  -3.1229419E-08   7.1065144E-06
------------------------------------------------------------

 total:                                   0.352 sec
 * total energy  :  -110.2126311 Eh     change       -0.6788918E-05 Eh
   gradient norm :     0.0005463 Eh/α   predicted    -0.3014393E-05 ( -55.60%)
   displ. norm   :     0.0752787 α      lambda       -0.4291528E-05
   maximum displ.:     0.0393085 α      in ANC's #6, #2, #4, ...

........................................................................
.............................. CYCLE   27 ..............................
........................................................................
------------------------------------------------------------
  cycle        total energy    energy error   density error
------------------------------------------------------------
      1     -110.2126358360  -1.1147528E+02   3.5476067E-04
      2     -110.2126360124  -1.7637308E-07   1.8217472E-04
      3     -110.2126359836   2.8805246E-08   4.5114432E-05
      4     -110.2126359429   4.0714568E-08   3.2949896E-05
      5     -110.2126360563  -1.1343479E-07   1.1215408E-05
------------------------------------------------------------

 total:                                   0.212 sec
 * total energy  :  -110.2126361 Eh     change       -0.4921901E-05 Eh
   gradient norm :     0.0004291 Eh/α   predicted    -0.2155745E-05 ( -56.20%)
   displ. norm   :     0.0627710 α      lambda       -0.3391543E-05
   maximum displ.:     0.0354832 α      in ANC's #6, #2, #4, ...

........................................................................
.............................. CYCLE   28 ..............................
........................................................................
------------------------------------------------------------
  cycle        total energy    energy error   density error
------------------------------------------------------------
      1     -110.2126397711  -1.1147534E+02   3.0748256E-04
      2     -110.2126398463  -7.5191110E-08   1.6042748E-04
      3     -110.2126384674   1.3788375E-06   1.0349408E-04
      4     -110.2126400900  -1.6225903E-06   2.8192736E-05
      5     -110.2126401067  -1.6707148E-08   1.1007120E-05
------------------------------------------------------------

 total:                                   0.178 sec
 * total energy  :  -110.2126401 Eh     change       -0.4050427E-05 Eh
   gradient norm :     0.0006928 Eh/α   predicted    -0.1702382E-05 ( -57.97%)
   displ. norm   :     0.0644258 α      lambda       -0.3280581E-05
   maximum displ.:     0.0374437 α      in ANC's #6, #2, #4, ...

........................................................................
.............................. CYCLE   29 ..............................
........................................................................
------------------------------------------------------------
  cycle        total energy    energy error   density error
------------------------------------------------------------
      1     -110.2126437480  -1.1147531E+02   3.2654075E-04
      2     -110.2126439298  -1.8188275E-07   1.7121795E-04
      3     -110.2126432259   7.0389905E-07   8.4264786E-05
      4     -110.2126440471  -8.2116462E-07   3.2427611E-05
      5     -110.2126440819  -3.4797679E-08   1.7349191E-05
------------------------------------------------------------

 total:                                   0.195 sec
 * total energy  :  -110.2126441 Eh     change       -0.3975172E-05 Eh
   gradient norm :     0.0006798 Eh/α   predicted    -0.1647582E-05 ( -58.55%)
   displ. norm   :     0.0774938 α      lambda       -0.3506018E-05
   maximum displ.:     0.0451986 α      in ANC's #6, #2, #4, ...

........................................................................
.............................. CYCLE   30 ..............................
........................................................................
------------------------------------------------------------
  cycle        total energy    energy error   density error
------------------------------------------------------------
      1     -110.2126476105  -1.1147524E+02   4.1704390E-04
      2     -110.2126478070  -1.9658812E-07   2.2205150E-04
      3     -110.2126449950   2.8120159E-06   1.5000468E-04
      4     -110.2126483996  -3.4046209E-06   4.0591881E-05
      5     -110.2126484463  -4.6689038E-08   2.1526033E-05
      6     -110.2126484815  -3.5187398E-08   8.0686267E-06
------------------------------------------------------------

 total:                                   0.243 sec
 * total energy  :  -110.2126485 Eh     change       -0.4399622E-05 Eh
   gradient norm :     0.0005087 Eh/α   predicted    -0.1760746E-05 ( -59.98%)
   displ. norm   :     0.0981943 α      lambda       -0.4079213E-05
   maximum displ.:     0.0574205 α      in ANC's #6, #2, #4, ...

........................................................................
.............................. CYCLE   31 ..............................
........................................................................
------------------------------------------------------------
  cycle        total energy    energy error   density error
------------------------------------------------------------
      1     -110.2126528830  -1.1147513E+02   5.3991476E-04
      2     -110.2126534255  -5.4257477E-07   2.7857075E-04
      3     -110.2126533221   1.0346645E-07   7.4140325E-05
      4     -110.2126533251  -2.9994993E-09   5.0270005E-05
      5     -110.2126535272  -2.0212273E-07   2.0693062E-05
      6     -110.2126535515  -2.4359650E-08   9.7074448E-06
------------------------------------------------------------

 total:                                   0.300 sec
 * total energy  :  -110.2126536 Eh     change       -0.5070023E-05 Eh
   gradient norm :     0.0004689 Eh/α   predicted    -0.2056772E-05 ( -59.43%)
   displ. norm   :     0.1323626 α      lambda       -0.4915418E-05
   maximum displ.:     0.0773130 α      in ANC's #6, #2, #4, ...

........................................................................
.............................. CYCLE   32 ..............................
........................................................................
------------------------------------------------------------
  cycle        total energy    energy error   density error
------------------------------------------------------------
      1     -110.2126579732  -1.1147501E+02   7.4498009E-04
      2     -110.2126589470  -9.7377536E-07   3.8058843E-04
      3     -110.2126572751   1.6719304E-06   1.3660277E-04
      4     -110.2126586896  -1.4145424E-06   8.2519229E-05
      5     -110.2126593770  -6.8737070E-07   2.7278549E-05
      6     -110.2126593896  -1.2562552E-08   1.2946233E-05
------------------------------------------------------------

 total:                                   0.303 sec
 * total energy  :  -110.2126594 Eh     change       -0.5838015E-05 Eh
   gradient norm :     0.0006495 Eh/α   predicted    -0.2478742E-05 ( -57.54%)
   displ. norm   :     0.1468122 α      lambda       -0.4547124E-05
   maximum displ.:     0.0861398 α      in ANC's #6, #2, #4, ...

........................................................................
.............................. CYCLE   33 ..............................
........................................................................
------------------------------------------------------------
  cycle        total energy    energy error   density error
------------------------------------------------------------
      1     -110.2126627158  -1.1147493E+02   8.2945353E-04
      2     -110.2126639762  -1.2603409E-06   4.1748030E-04
      3     -110.2126629148   1.0613877E-06   1.3708070E-04
      4     -110.2126637930  -8.7821013E-07   8.5284723E-05
      5     -110.2126643761  -5.8314312E-07   3.2989216E-05
      6     -110.2126644204  -4.4213522E-08   1.7134682E-05
------------------------------------------------------------

 total:                                   0.295 sec
 * total energy  :  -110.2126644 Eh     change       -0.5030802E-05 Eh
   gradient norm :     0.0007391 Eh/α   predicted    -0.2300222E-05 ( -54.28%)
   displ. norm   :     0.1142205 α      lambda       -0.3009010E-05
   maximum displ.:     0.0677522 α      in ANC's #6, #2, #4, ...

........................................................................
.............................. CYCLE   34 ..............................
........................................................................
------------------------------------------------------------
  cycle        total energy    energy error   density error
------------------------------------------------------------
      1     -110.2126661584  -1.1147501E+02   6.4633741E-04
      2     -110.2126667177  -5.5932578E-07   3.2681687E-04
      3     -110.2126620884   4.6292455E-06   1.8902623E-04
      4     -110.2126675523  -5.4638947E-06   6.1618861E-05
      5     -110.2126676699  -1.1759543E-07   2.8503514E-05
      6     -110.2126677180  -4.8072707E-08   1.3289348E-05
------------------------------------------------------------

 total:                                   0.370 sec
 * total energy  :  -110.2126677 Eh     change       -0.3297644E-05 Eh
   gradient norm :     0.0005495 Eh/α   predicted    -0.1515794E-05 ( -54.03%)
   displ. norm   :     0.0759058 α      lambda       -0.1918754E-05
   maximum displ.:     0.0456066 α      in ANC's #6, #2, #4, ...

........................................................................
.............................. CYCLE   35 ..............................
........................................................................
------------------------------------------------------------
  cycle        total energy    energy error   density error
------------------------------------------------------------
      1     -110.2126691674  -1.1147516E+02   4.2716273E-04
      2     -110.2126694604  -2.9298418E-07   2.1128760E-04
      3     -110.2126682771   1.1832179E-06   1.0886495E-04
      4     -110.2126697146  -1.4374461E-06   3.9794170E-05
      5     -110.2126697352  -2.0599217E-08   2.1596887E-05
      6     -110.2126697871  -5.1930982E-08   8.2577031E-06
------------------------------------------------------------

 total:                                   0.328 sec
 * total energy  :  -110.2126698 Eh     change       -0.2069113E-05 Eh
   gradient norm :     0.0002819 Eh/α   predicted    -0.9622268E-06 ( -53.50%)
   displ. norm   :     0.0550741 α      lambda       -0.1171733E-05
   maximum displ.:     0.0335339 α      in ANC's #6, #2, #4, ...

........................................................................
.............................. CYCLE   36 ..............................
........................................................................
------------------------------------------------------------
  cycle        total energy    energy error   density error
------------------------------------------------------------
      1     -110.2126707754  -1.1147523E+02   3.1721235E-04
      2     -110.2126709033  -1.2788570E-07   1.5943136E-04
      3     -110.2126701263   7.7705303E-07   7.9293562E-05
      4     -110.2126710354  -9.0916970E-07   2.8380738E-05
      5     -110.2126710500  -1.4561607E-08   1.2105189E-05
------------------------------------------------------------

 total:                                   0.219 sec
 * total energy  :  -110.2126710 Eh     change       -0.1262868E-05 Eh
   gradient norm :     0.0002425 Eh/α   predicted    -0.5872062E-06 ( -53.50%)
   displ. norm   :     0.0362883 α      lambda       -0.8421515E-06
   maximum displ.:     0.0213630 α      in ANC's #6, #2, #12, ...

........................................................................
.............................. CYCLE   37 ..............................
........................................................................
------------------------------------------------------------
  cycle        total energy    energy error   density error
------------------------------------------------------------
      1     -110.2126717458  -1.1147528E+02   2.1673314E-04
      2     -110.2126718272  -8.1351345E-08   1.1708375E-04
      3     -110.2126711462   6.8102598E-07   7.6713886E-05
      4     -110.2126720211  -8.7498283E-07   1.9795866E-05
------------------------------------------------------------

 total:                                   0.161 sec
 * total energy  :  -110.2126720 Eh     change       -0.9711512E-06 Eh
   gradient norm :     0.0002832 Eh/α   predicted    -0.4252888E-06 ( -56.21%)
   displ. norm   :     0.0351267 α      lambda       -0.7450921E-06
   maximum displ.:     0.0212810 α      in ANC's #6, #12, #2, ...

   *** GEOMETRY OPTIMIZATION CONVERGED AFTER 37 ITERATIONS ***

------------------------------------------------------------------------
 total energy gain   :        -0.0875003 Eh      -54.9073 kcal/mol
 total RMSD          :         0.5321336 a0        0.2816 Å
 total power (kW/mol):        -6.2089742 (step)  -22.2958 (real)
------------------------------------------------------------------------

 ANCopt (total)                0 d,  0 h,  0 min, 10.304 sec
 optimizer setup                ...        0 min,  0.000 sec (  0.001%)
 model hessian                  ...        0 min,  0.022 sec (  0.215%)
 ANC generation                 ...        0 min,  0.016 sec (  0.151%)
 coordinate transformation      ...        0 min,  0.001 sec (  0.005%)
 single point calculation       ...        0 min, 10.254 sec ( 99.520%)
 optimization log               ...        0 min,  0.004 sec (  0.043%)
 hessian update                 ...        0 min,  0.002 sec (  0.020%)
 rational function              ...        0 min,  0.003 sec (  0.032%)

================
 final structure:
================
 xtb: 6.7.1 (edcfbbe)
          03042512323D

 58 62  0     0  0            999 V2000
   -2.0933    1.5298   -2.6752 C   0  0  0  0  0  0  0  0  0  0  0  0
   -1.8735    0.6810   -1.6087 C   0  0  0  0  0  0  0  0  0  0  0  0
   -1.0442    1.1124   -0.5393 C   0  0  0  0  0  0  0  0  0  0  0  0
   -0.2451    2.2875   -0.7159 C   0  0  0  0  0  0  0  0  0  0  0  0
   -0.5190    3.1441   -1.8094 C   0  0  0  0  0  0  0  0  0  0  0  0
   -1.4515    2.7715   -2.7284 C   0  0  0  0  0  0  0  0  0  0  0  0
   -0.8744    0.4017    0.6874 C   0  0  0  0  0  0  0  0  0  0  0  0
    0.3193    0.6361    1.3881 C   0  0  0  0  0  0  0  0  0  0  0  0
    1.1391    1.7483    1.0320 C   0  0  0  0  0  0  0  0  0  0  0  0
    0.7814    2.6006    0.0753 N   0  0  0  0  0  0  0  0  0  0  0  0
   -1.7920   -0.5184    1.2802 C   0  0  0  0  0  0  0  0  0  0  0  0
   -1.2556   -1.4266    2.2492 C   0  0  0  0  0  0  0  0  0  0  0  0
   -0.0339   -1.3021    2.7719 N   0  0  0  0  0  0  0  0  0  0  0  0
    0.6978   -0.2405    2.4488 C   0  0  0  0  0  0  0  0  0  0  0  0
    1.9148    0.0089    3.1217 C   0  0  0  0  0  0  0  0  0  0  0  0
    2.6844    1.0982    2.7731 C   0  0  0  0  0  0  0  0  0  0  0  0
    2.3248    1.9727    1.7665 C   0  0  0  0  0  0  0  0  0  0  0  0
   -3.1917   -0.5187    1.0455 C   0  0  0  0  0  0  0  0  0  0  0  0
   -3.9566   -1.5514    1.5516 C   0  0  0  0  0  0  0  0  0  0  0  0
   -3.3729   -2.5432    2.3404 C   0  0  0  0  0  0  0  0  0  0  0  0
   -2.0670   -2.4824    2.7289 C   0  0  0  0  0  0  0  0  0  0  0  0
   -3.7030    0.5522    0.3916 O   0  0  0  0  0  0  0  0  0  0  0  0
   -2.3391   -0.5908   -1.5398 O   0  0  0  0  0  0  0  0  0  0  0  0
   -1.9139    3.8797   -4.1141 S   0  0  0  0  0  0  0  0  0  0  0  0
   -4.4269   -3.9398    2.9011 S   0  0  0  0  0  0  0  0  0  0  0  0
    0.0371    4.0611   -1.9191 H   0  0  0  0  0  0  0  0  0  0  0  0
   -2.7554    1.2665   -3.4843 H   0  0  0  0  0  0  0  0  0  0  0  0
    2.9422    2.8200    1.5150 H   0  0  0  0  0  0  0  0  0  0  0  0
    2.2324   -0.6491    3.9158 H   0  0  0  0  0  0  0  0  0  0  0  0
   -1.6383   -3.1954    3.4132 H   0  0  0  0  0  0  0  0  0  0  0  0
   -5.0170   -1.6301    1.3688 H   0  0  0  0  0  0  0  0  0  0  0  0
   -1.0562    5.0338   -3.9557 O   0  0  0  0  0  0  0  0  0  0  0  0
   -3.4250    4.2632   -3.4932 O   0  0  0  0  0  0  0  0  0  0  0  0
   -3.4378    5.1401   -2.3967 C   0  0  0  0  0  0  0  0  0  0  0  0
    4.2779    1.3998    3.6497 S   0  0  0  0  0  0  0  0  0  0  0  0
    4.3137    0.3714    4.6686 O   0  0  0  0  0  0  0  0  0  0  0  0
    5.2564    0.9082    2.3863 O   0  0  0  0  0  0  0  0  0  0  0  0
    5.3403   -0.4745    2.1574 C   0  0  0  0  0  0  0  0  0  0  0  0
   -5.7143   -3.6509    2.2953 O   0  0  0  0  0  0  0  0  0  0  0  0
   -3.6702   -5.1044    1.9719 O   0  0  0  0  0  0  0  0  0  0  0  0
   -3.8719   -5.0274    0.5856 C   0  0  0  0  0  0  0  0  0  0  0  0
   -5.0974    0.6288    0.2099 C   0  0  0  0  0  0  0  0  0  0  0  0
   -3.1255   -1.0810   -2.5988 C   0  0  0  0  0  0  0  0  0  0  0  0
   -3.7352   -6.0276    0.1770 H   0  0  0  0  0  0  0  0  0  0  0  0
   -3.1535   -4.3387    0.1282 H   0  0  0  0  0  0  0  0  0  0  0  0
   -4.8911   -4.6850    0.3756 H   0  0  0  0  0  0  0  0  0  0  0  0
    6.3175   -0.6777    1.7217 H   0  0  0  0  0  0  0  0  0  0  0  0
    4.5527   -0.8014    1.4711 H   0  0  0  0  0  0  0  0  0  0  0  0
    5.2440   -1.0158    3.1046 H   0  0  0  0  0  0  0  0  0  0  0  0
   -3.3789   -2.1048   -2.3264 H   0  0  0  0  0  0  0  0  0  0  0  0
   -2.5694   -1.0846   -3.5416 H   0  0  0  0  0  0  0  0  0  0  0  0
   -4.0447   -0.4999   -2.7217 H   0  0  0  0  0  0  0  0  0  0  0  0
   -5.2724    1.5663   -0.3162 H   0  0  0  0  0  0  0  0  0  0  0  0
   -5.6248    0.6450    1.1684 H   0  0  0  0  0  0  0  0  0  0  0  0
   -5.4722   -0.2031   -0.3941 H   0  0  0  0  0  0  0  0  0  0  0  0
   -4.3846    5.6780   -2.4155 H   0  0  0  0  0  0  0  0  0  0  0  0
   -2.6119    5.8540   -2.4806 H   0  0  0  0  0  0  0  0  0  0  0  0
   -3.3418    4.5864   -1.4569 H   0  0  0  0  0  0  0  0  0  0  0  0
  1  2  2  0  0  0  0
  1  6  1  0  0  0  0
  1 27  1  0  0  0  0
  2  3  1  0  0  0  0
  2 23  1  0  0  0  0
  3  4  2  0  0  0  0
  3  7  1  0  0  0  0
  4  5  1  0  0  0  0
  4 10  1  0  0  0  0
  5  6  2  0  0  0  0
  5 26  1  0  0  0  0
  6 24  1  0  0  0  0
  7  8  2  0  0  0  0
  7 11  1  0  0  0  0
  8  9  1  0  0  0  0
  8 14  1  0  0  0  0
  9 10  1  0  0  0  0
  9 17  2  0  0  0  0
 11 12  2  0  0  0  0
 11 18  1  0  0  0  0
 12 13  1  0  0  0  0
 12 21  1  0  0  0  0
 13 14  2  0  0  0  0
 14 15  1  0  0  0  0
 15 16  2  0  0  0  0
 15 29  1  0  0  0  0
 16 17  1  0  0  0  0
 16 35  1  0  0  0  0
 17 28  1  0  0  0  0
 18 19  2  0  0  0  0
 18 22  1  0  0  0  0
 19 20  1  0  0  0  0
 19 31  1  0  0  0  0
 20 21  2  0  0  0  0
 20 25  1  0  0  0  0
 21 30  1  0  0  0  0
 22 42  1  0  0  0  0
 23 43  1  0  0  0  0
 24 32  2  0  0  0  0
 24 33  1  0  0  0  0
 25 39  2  0  0  0  0
 25 40  1  0  0  0  0
 33 34  1  0  0  0  0
 34 56  1  0  0  0  0
 34 57  1  0  0  0  0
 34 58  1  0  0  0  0
 35 36  2  0  0  0  0
 35 37  1  0  0  0  0
 37 38  1  0  0  0  0
 38 47  1  0  0  0  0
 38 48  1  0  0  0  0
 38 49  1  0  0  0  0
 40 41  1  0  0  0  0
 41 44  1  0  0  0  0
 41 45  1  0  0  0  0
 41 46  1  0  0  0  0
 42 53  1  0  0  0  0
 42 54  1  0  0  0  0
 42 55  1  0  0  0  0
 43 50  1  0  0  0  0
 43 51  1  0  0  0  0
 43 52  1  0  0  0  0
M  END

 Bond Distances (Angstroems)
 ---------------------------
C1-C2=1.3807         C1-C6=1.3988         C1-H27=1.0781        C2-C1=1.3807         C2-C3=1.4204         C2-O23=1.3561        
C3-C2=1.4204         C3-C4=1.4320         C3-C7=1.4278         C4-C3=1.4320         C4-C5=1.4158         C4-N10=1.3333        
C5-C4=1.4158         C5-C6=1.3612         C5-H26=1.0780        C6-C1=1.3988         C6-C5=1.3612         C6-S24=1.8336        
C7-C3=1.4278         C7-C8=1.4039         C7-C11=1.4283        C8-C7=1.4039         C8-C9=1.4269         C8-C14=1.4271        
C9-C8=1.4269         C9-N10=1.3303        C9-C17=1.4127        N10-C4=1.3333        N10-C9=1.3303        C11-C7=1.4283        
C11-C12=1.4323       C11-C18=1.4193       C12-C11=1.4323       C12-N13=1.3346       C12-C21=1.4154       N13-C12=1.3346       
N13-C14=1.3292       C14-C8=1.4271        C14-N13=1.3292       C14-C15=1.4129       C15-C14=1.4129       C15-C16=1.3785       
C15-H29=1.0791       C16-C15=1.3785       C16-C17=1.3811       C16-S35=1.8435       C17-C9=1.4127        C17-C16=1.3811       
C17-H28=1.0781       C18-C11=1.4193       C18-C19=1.3812       C18-O22=1.3549       C19-C18=1.3812       C19-C20=1.3951       
C19-H31=1.0789       C20-C19=1.3951       C20-C21=1.3639       C20-S25=1.8373       C21-C12=1.4154       C21-C20=1.3639       
C21-H30=1.0772       O22-C18=1.3549       O22-C42=1.4083       O23-C2=1.3561        O23-C43=1.4072       S24-C6=1.8336        
S24-O32=1.4467       S24-O33=1.6781       S25-C20=1.8373       S25-O39=1.4518       S25-O40=1.6710       H26-C5=1.0780        
H27-C1=1.0781        H28-C17=1.0781       H29-C15=1.0791       H30-C21=1.0772       H31-C19=1.0789       O32-S24=1.4467       
O33-S24=1.6781       O33-C34=1.4041       C34-O33=1.4041       C34-H56=1.0891       C34-H57=1.0949       C34-H58=1.0949       
S35-C16=1.8435       S35-O36=1.4482       S35-O37=1.6720       O36-S35=1.4482       O37-S35=1.6720       O37-C38=1.4041       
C38-O37=1.4041       C38-H47=1.0891       C38-H48=1.0947       C38-H49=1.0952       O39-S25=1.4518       O40-S25=1.6710       
O40-C41=1.4030       C41-O40=1.4030       C41-H44=1.0891       C41-H45=1.0953       C41-H46=1.0955       C42-O22=1.4083       
C42-H53=1.0892       C42-H54=1.0941       C42-H55=1.0942       C43-O23=1.4072       C43-H50=1.0893       C43-H51=1.0946       
C43-H52=1.0943       H44-C41=1.0891       H45-C41=1.0953       H46-C41=1.0955       H47-C38=1.0891       H48-C38=1.0947       
H49-C38=1.0952       H50-C43=1.0893       H51-C43=1.0946       H52-C43=1.0943       H53-C42=1.0892       H54-C42=1.0941       
H55-C42=1.0942       H56-C34=1.0891       H57-C34=1.0949       H58-C34=1.0949       
 C  H  Rav=1.0887 sigma=0.0070  Rmin=1.0772  Rmax=1.0955    21
 C  C  Rav=1.4055 sigma=0.0223  Rmin=1.3612  Rmax=1.4323    21
 N  C  Rav=1.3319 sigma=0.0022  Rmin=1.3292  Rmax=1.3346     4
 O  C  Rav=1.3911 sigma=0.0226  Rmin=1.3549  Rmax=1.4083     7
 S  C  Rav=1.8381 sigma=0.0041  Rmin=1.8336  Rmax=1.8435     3
 S  O  Rav=1.5613 sigma=0.1124  Rmin=1.4467  Rmax=1.6781     6

 selected bond angles (degree)
 --------------------
C6-C1-C2=120.13                H27-C1-C2=121.83               H27-C1-C6=118.04               C3-C2-C1=119.20                
O23-C2-C1=124.13               O23-C2-C3=116.56               C4-C3-C2=118.83                C7-C3-C2=124.41                
C7-C3-C4=116.62                C5-C4-C3=118.93                N10-C4-C3=123.31               N10-C4-C5=117.72               
C6-C5-C4=119.23                H26-C5-C4=119.57               H26-C5-C6=121.16               C5-C6-C1=122.12                
S24-C6-C1=116.71               S24-C6-C5=121.17               C8-C7-C3=116.54                C11-C7-C3=126.93               
C11-C7-C8=116.53               C9-C8-C7=119.61                C14-C8-C7=119.60               C14-C8-C9=120.79               
N10-C9-C8=121.63               C17-C9-C8=118.45               C17-C9-N10=119.85              C9-N10-C4=118.90               

 selected dihedral angles (degree)
 ---------------------------------
C3-C2-C1-C6=  3.15            C3-C2-C1-H27=183.23           O23-C2-C1-C6=187.15           O23-C2-C1-H27=  7.23          
C4-C3-C2-C1=347.34            C4-C3-C2-O23=163.63           C7-C3-C2-C1=171.84            C7-C3-C2-O23=348.14           
C5-C4-C3-C2= 13.99            C5-C4-C3-C7=189.84            N10-C4-C3-C2=196.27           N10-C4-C3-C7= 12.12           
C6-C5-C4-C3=354.24            C6-C5-C4-N10=172.09           H26-C5-C4-C3=176.39           H26-C5-C4-N10=354.24          
C5-C6-C1-C2=  5.42            C5-C6-C1-H27=185.35           S24-C6-C1-C2=184.82           S24-C6-C1-H27=  4.75          
C1-C6-C5-C4=356.01            C1-C6-C5-H26=173.82           S24-C6-C5-C4=176.63           S24-C6-C5-H26=354.45          
C8-C7-C3-C2=155.28            C8-C7-C3-C4=339.70            C11-C7-C3-C2=335.03           C11-C7-C3-C4=159.44           
C9-C8-C7-C3= 13.95            C9-C8-C7-C11=194.18           C14-C8-C7-C3=193.90           C14-C8-C7-C11= 14.13          
N10-C9-C8-C7=  2.15           N10-C9-C8-C14=182.20          C17-C9-C8-C7=179.07           C17-C9-C8-C14=359.11          
C9-N10-C4-C3=  4.04           C9-N10-C4-C5=186.30           C4-N10-C9-C8=348.62           C4-N10-C9-C17=171.75          
           -------------------------------------------------
          |                Final Singlepoint                |
           -------------------------------------------------
repulsion energy          1.2616187979327E+00 Eh
dispersion energy         9.8717597867606E-04 Eh
interaction energy        0.0000000000000E+00 Eh
number of electrons       1.9300000000000E+02 e
integral cutoff           1.8403572253217E+01 bohr

------------------------------------------------------------
  cycle        total energy    energy error   density error
------------------------------------------------------------
      1     -110.2126717251  -1.1147528E+02   4.1366858E-05
      2     -110.2126716149   1.1022847E-07   4.7322930E-05
      3     -110.2126720381  -4.2323940E-07   2.5912994E-06
------------------------------------------------------------

electronic energy        -1.1147527801203E+02 Eh
total energy             -1.1021267203812E+02 Eh

 total:                                   0.200 sec
 - repulsion                              0.000 sec (  0%)
 - dispersion                             0.003 sec (  1%)
 - coulomb                                0.001 sec (  0%)
 - hamiltonian                            0.015 sec (  7%)
 - scc                                    0.181 sec ( 90%)

           -------------------------------------------------
          |                Property Printout                |
           -------------------------------------------------
           -------------------------------------------------
          |                Geometry Summary                 |
           -------------------------------------------------

      molecular mass/u    :      561.6274254
   center of mass at/Å    :       -0.9906639       0.3149275       0.5458294
  moments of inertia/u·Å² :        0.6449636E+04   0.6618979E+04   0.1205184E+05
rotational constants/cm⁻¹ :        0.2613734E-02   0.2546863E-02   0.1398760E-02

 * 56 selected distances

     #   Z          #   Z                                           value/Å
     1   6 C        2   6 C                                       1.3807282
     2   6 C        3   6 C                                       1.4203860
     3   6 C        4   6 C                                       1.4320198
     4   6 C        5   6 C                                       1.4158399
     1   6 C        6   6 C                                       1.3988053
     5   6 C        6   6 C                                       1.3611872
     3   6 C        7   6 C                                       1.4277885
     7   6 C        8   6 C                                       1.4039118
     8   6 C        9   6 C                                       1.4268618
     4   6 C       10   7 N                                       1.3333290
     9   6 C       10   7 N                                       1.3303326
     7   6 C       11   6 C                                       1.4282591
    11   6 C       12   6 C                                       1.4322588
    12   6 C       13   7 N                                       1.3346064
     8   6 C       14   6 C                                       1.4270530
    13   7 N       14   6 C                                       1.3292231
    14   6 C       15   6 C                                       1.4128841
    15   6 C       16   6 C                                       1.3784877
     9   6 C       17   6 C                                       1.4126948
    16   6 C       17   6 C                                       1.3811225
    11   6 C       18   6 C                                       1.4192645
    18   6 C       19   6 C                                       1.3812150
    19   6 C       20   6 C                                       1.3951469
    12   6 C       21   6 C                                       1.4153513
    20   6 C       21   6 C                                       1.3638661
    18   6 C       22   8 O                                       1.3548678
     2   6 C       23   8 O                                       1.3560700
     5   6 C       26   1 H                                       1.0780204
     1   6 C       27   1 H                                       1.0780710
    17   6 C       28   1 H                                       1.0781023
    15   6 C       29   1 H                                       1.0791286
    21   6 C       30   1 H                                       1.0772395 (min)
    19   6 C       31   1 H                                       1.0789211
    24  16 S       32   8 O                                       1.4466679
    33   8 O       34   6 C                                       1.4040679
    35  16 S       36   8 O                                       1.4481962
    37   8 O       38   6 C                                       1.4040792
    25  16 S       39   8 O                                       1.4518132 (max)
    40   8 O       41   6 C                                       1.4029991
    22   8 O       42   6 C                                       1.4082835
    23   8 O       43   6 C                                       1.4071718
    41   6 C       44   1 H                                       1.0890587
    41   6 C       45   1 H                                       1.0952999
    41   6 C       46   1 H                                       1.0955012
    38   6 C       47   1 H                                       1.0890574
    38   6 C       48   1 H                                       1.0947031
    38   6 C       49   1 H                                       1.0951786
    43   6 C       50   1 H                                       1.0892787
    43   6 C       51   1 H                                       1.0945945
    43   6 C       52   1 H                                       1.0943433
    42   6 C       53   1 H                                       1.0891964
    42   6 C       54   1 H                                       1.0941403
    42   6 C       55   1 H                                       1.0942370
    34   6 C       56   1 H                                       1.0891373
    34   6 C       57   1 H                                       1.0949314
    34   6 C       58   1 H                                       1.0949328

 * 5 distinct bonds (by element types)

   Z      Z             #   av. dist./Å        max./Å        min./Å
   1 H    6 C          21     1.0887178     1.0955012     1.0772395
   6 C    6 C          21     1.4054825     1.4322588     1.3611872
   6 C    7 N           4     1.3318728     1.3346064     1.3292231
   6 C    8 O           7     1.3910770     1.4082835     1.3548678
   8 O   16 S           3     1.4488924     1.4518132     1.4466679


optimized geometry written to: xtbopt.mol


           -------------------------------------------------
          | TOTAL ENERGY             -110.212672038120 Eh   |
          | GRADIENT NORM               0.000282762301 Eh/α |
           -------------------------------------------------

------------------------------------------------------------------------
Note: The following floating-point exceptions are signalling: IEEE_UNDERFLOW_FLAG
normal termination of xtb
 * finished run on 2025/03/04 at 12:32:24.113     
------------------------------------------------------------------------
 total:
 * wall-time:     0 d,  0 h,  0 min, 11.036 sec
 *  cpu-time:     0 d,  0 h,  0 min, 31.906 sec
 * ratio c/w:     2.891 speedup
 SCF:
 * wall-time:     0 d,  0 h,  0 min,  0.524 sec
 *  cpu-time:     0 d,  0 h,  0 min,  1.441 sec
 * ratio c/w:     2.752 speedup
 ANC optimizer:
 * wall-time:     0 d,  0 h,  0 min, 10.508 sec
 *  cpu-time:     0 d,  0 h,  0 min, 30.462 sec
 * ratio c/w:     2.899 speedup

      -----------------------------------------------------------      
     |                   =====================                   |     
     |                           x T B                           |     
     |                   =====================                   |     
     |                         S. Grimme                         |     
     |          Mulliken Center for Theoretical Chemistry        |     
     |                    University of Bonn                     |     
      -----------------------------------------------------------      

   * xtb version 6.7.1 (edcfbbe) compiled by 'runner@Mac-1732539442253.local' on 2024-11-25

   xtb is free software: you can redistribute it and/or modify it under
   the terms of the GNU Lesser General Public License as published by
   the Free Software Foundation, either version 3 of the License, or
   (at your option) any later version.
   
   xtb is distributed in the hope that it will be useful,
   but WITHOUT ANY WARRANTY; without even the implied warranty of
   MERCHANTABILITY or FITNESS FOR A PARTICULAR PURPOSE.  See the
   GNU Lesser General Public License for more details.
   
   Cite this work as:
   * C. Bannwarth, E. Caldeweyher, S. Ehlert, A. Hansen, P. Pracht,
     J. Seibert, S. Spicher, S. Grimme, WIREs Comput. Mol. Sci., 2020, 11,
     e01493. DOI: 10.1002/wcms.1493
   
   for GFN2-xTB:
   * C. Bannwarth, S. Ehlert and S. Grimme., J. Chem. Theory Comput., 2019,
     15, 1652-1671. DOI: 10.1021/acs.jctc.8b01176
   for GFN1-xTB:
   * S. Grimme, C. Bannwarth, P. Shushkov, J. Chem. Theory Comput., 2017,
     13, 1989-2009. DOI: 10.1021/acs.jctc.7b00118
   for GFN0-xTB:
   * P. Pracht, E. Caldeweyher, S. Ehlert, S. Grimme, ChemRxiv, 2019, preprint.
     DOI: 10.26434/chemrxiv.8326202.v1
   for GFN-FF:
   * S. Spicher and S. Grimme, Angew. Chem. Int. Ed., 2020, 59, 15665-15673.
     DOI: 10.1002/anie.202004239
   
   for ALPB and GBSA implicit solvation:
   * S. Ehlert, M. Stahn, S. Spicher, S. Grimme, J. Chem. Theory Comput.,
     2021, 17, 4250-4261. DOI: 10.1021/acs.jctc.1c00471
   
   for ddCOSMO and CPCM-X implicit solvation:
   * M. Stahn, S. Ehlert, S. Grimme, J. Phys. Chem. A,
     2023, XX, XXXX-XXXX. DOI: 10.1021/acs.jpca.3c04382
   
   for DFT-D4:
   * E. Caldeweyher, C. Bannwarth and S. Grimme, J. Chem. Phys., 2017,
     147, 034112. DOI: 10.1063/1.4993215
   * E. Caldeweyher, S. Ehlert, A. Hansen, H. Neugebauer, S. Spicher,
     C. Bannwarth and S. Grimme, J. Chem. Phys., 2019, 150, 154122.
     DOI: 10.1063/1.5090222
   * E. Caldeweyher, J.-M. Mewes, S. Ehlert and S. Grimme, Phys. Chem. Chem. Phys.
     2020, 22, 8499-8512. DOI: 10.1039/D0CP00502A
   
   for sTDA-xTB:
   * S. Grimme and C. Bannwarth, J. Chem. Phys., 2016, 145, 054103.
     DOI: 10.1063/1.4959605
   
   in the mass-spec context:
   * V. Asgeirsson, C. Bauer and S. Grimme, Chem. Sci., 2017, 8, 4879.
     DOI: 10.1039/c7sc00601b
   * J. Koopman and S. Grimme, ACS Omega 2019, 4, 12, 15120-15133.
     DOI: 10.1021/acsomega.9b02011
   
   for metadynamics refer to:
   * S. Grimme, J. Chem. Theory Comput., 2019, 155, 2847-2862
     DOI: 10.1021/acs.jctc.9b00143
   
   for SPH calculations refer to:
   * S. Spicher and S. Grimme, J. Chem. Theory Comput., 2021, 17, 1701-1714
     DOI: 10.1021/acs.jctc.0c01306
   
   for ONIOM refer to:
   * C. Plett, A. Katbashev, S. Ehlert, S. Grimme, M. Bursch,
     Phys. Chem. Chem. Phys., 2023, 25, 17860-17868. DOI: 10.1039/D3CP02178E
   
   for DIPRO refer to:
   * J. Kohn, N. Gildemeister, S. Grimme, D. Fazzi, A. Hansen,
     J. Chem. Phys., 2023, just accepted.
   
   for PTB refer to:
   * S. Grimme, M. Mueller, A. Hansen, J. Chem. Phys., 2023, 158, 124111.
     DOI: 10.1063/5.0137838
   
   with help from (in alphabetical order)
   P. Atkinson, C. Bannwarth, F. Bohle, G. Brandenburg, E. Caldeweyher
   M. Checinski, S. Dohm, S. Ehlert, S. Ehrlich, I. Gerasimov, C. Hölzer
   A. Katbashev, J. Kohn, J. Koopman, C. Lavigne, S. Lehtola, F. März, M. Müller,
   F. Musil, H. Neugebauer, J. Pisarek, C. Plett, P. Pracht, F. Pultar,
   J. Seibert, P. Shushkov, S. Spicher, M. Stahn, M. Steiner, T. Strunk,
   J. Stückrath, T. Rose, and J. Unsleber
   
 * started run on 2025/03/04 at 12:32:24.148     
   ID    Z sym.   atoms
    1    6 C      1-9, 11, 12, 14-21, 34, 38, 41-43
    2    7 N      10, 13
    3    8 O      22, 23, 32, 33, 36, 37, 39, 40
    4   16 S      24, 25, 35
    5    1 H      26-31, 44-58

           -------------------------------------------------
          |                Calculation Setup                |
           -------------------------------------------------

          program call               : xtb Base3SO2Me.mol --opt tight --cycles 500 --chrg -1 --uhf 0 --spinpol --tblite
          coordinate file            : Base3SO2Me.mol
          omp threads                :                     8

Wavefunction read from restart file
repulsion energy          1.1532234384035E+00 Eh
dispersion energy         7.2386336977476E-04 Eh
interaction energy        0.0000000000000E+00 Eh
number of electrons       1.9400000000000E+02 e
integral cutoff           1.8403572253217E+01 bohr

------------------------------------------------------------
  cycle        total energy    energy error   density error
------------------------------------------------------------
      1     -110.3914234499  -1.1154537E+02   3.4093624E-02
      2     -110.4139095933  -2.2486143E-02   2.0353919E-02
      3     -110.4121213195   1.7882738E-03   1.3764189E-02
      4     -110.4211431733  -9.0218539E-03   5.6858230E-03
      5     -110.4224959773  -1.3528040E-03   2.8000637E-03
      6     -110.4229739537  -4.7797635E-04   1.4675986E-03
      7     -110.4230614602  -8.7506580E-05   8.3410114E-04
      8     -110.4230801424  -1.8682142E-05   5.4604694E-04
      9     -110.4230918472  -1.1704860E-05   2.9564108E-04
     10     -110.4230977326  -5.8853393E-06   1.5150519E-04
     11     -110.4230993372  -1.6046552E-06   7.4855447E-05
     12     -110.4230995468  -2.0955216E-07   3.7024487E-05
     13     -110.4230996009  -5.4097967E-08   1.6120659E-05
------------------------------------------------------------

electronic energy        -1.1157704690266E+02 Eh
total energy             -1.1042309960088E+02 Eh

 total:                                   0.741 sec
 - repulsion                              0.000 sec (  0%)
 - dispersion                             0.003 sec (  0%)
 - coulomb                                0.001 sec (  0%)
 - hamiltonian                            0.007 sec (  0%)
 - scc                                    0.730 sec ( 98%)

      ----------------------------------------------------------- 
     |                   =====================                   |
     |                        A N C O P T                        |
     |                   =====================                   |
     |               Approximate Normal Coordinate               |
     |                Rational Function Optimizer                |
      ----------------------------------------------------------- 
      ----------------------------------------------------------- 
     |                   =====================                   |
     |                        A N C O P T                        |
     |                   =====================                   |
     |               Approximate Normal Coordinate               |
     |                Rational Function Optimizer                |
[...]
    19   6 C       31   1 H                                       1.0788440
    24  16 S       32   8 O                                       1.4468559
    33   8 O       34   6 C                                       1.4112432
    35  16 S       36   8 O                                       1.4512014
    37   8 O       38   6 C                                       1.4041724
    25  16 S       39   8 O                                       1.4518710
    40   8 O       41   6 C                                       1.4034047
    22   8 O       42   6 C                                       1.4087568
    23   8 O       43   6 C                                       1.4074426
    41   6 C       44   1 H                                       1.0889430
    41   6 C       45   1 H                                       1.0951441
    41   6 C       46   1 H                                       1.0954362
    38   6 C       47   1 H                                       1.0896734
    38   6 C       48   1 H                                       1.0947800
    38   6 C       49   1 H                                       1.0943625
    43   6 C       50   1 H                                       1.0894799
    43   6 C       51   1 H                                       1.0944037
    43   6 C       52   1 H                                       1.0942437
    42   6 C       53   1 H                                       1.0882860
    42   6 C       54   1 H                                       1.0938406
    42   6 C       55   1 H                                       1.0939880
    34   6 C       56   1 H                                       1.0889504
    34   6 C       57   1 H                                       1.0943232
    34   6 C       58   1 H                                       1.0925034
    59   6 C       60   6 C                                       1.3810078
    60   6 C       61   6 C                                       1.4203510
    61   6 C       62   6 C                                       1.4300815
    62   6 C       63   6 C                                       1.4153641
    59   6 C       64   6 C                                       1.3978648
    63   6 C       64   6 C                                       1.3608007
    61   6 C       65   6 C                                       1.4295971
    65   6 C       66   6 C                                       1.4039026
    66   6 C       67   6 C                                       1.4247193
    62   6 C       68   7 N                                       1.3346569
    67   6 C       68   7 N                                       1.3298887
    65   6 C       69   6 C                                       1.4280777
    69   6 C       70   6 C                                       1.4321727
    70   6 C       71   7 N                                       1.3346596
    66   6 C       72   6 C                                       1.4276923
    71   7 N       72   6 C                                       1.3260912
    72   6 C       73   6 C                                       1.4149943
    73   6 C       74   6 C                                       1.3736545
    67   6 C       75   6 C                                       1.4131797
    74   6 C       75   6 C                                       1.3844252
    69   6 C       76   6 C                                       1.4195554
    76   6 C       77   6 C                                       1.3808657
    77   6 C       78   6 C                                       1.3952491
    70   6 C       79   6 C                                       1.4151221
    78   6 C       79   6 C                                       1.3639758
    76   6 C       80   8 O                                       1.3563651
    60   6 C       81   8 O                                       1.3545390
    63   6 C       84   1 H                                       1.0777687
    59   6 C       85   1 H                                       1.0772138
Note: The following floating-point exceptions are signalling: IEEE_UNDERFLOW_FLAG
normal termination of xtb
    75   6 C       86   1 H                                       1.0782138
    73   6 C       87   1 H                                       1.0785884
    79   6 C       88   1 H                                       1.0771622
    77   6 C       89   1 H                                       1.0789202
    82  16 S       90   8 O                                       1.4527858 (max)
    91   8 O       92   6 C                                       1.4038298
    93  16 S       94   8 O                                       1.4469784
    95   8 O       96   6 C                                       1.4076327
    83  16 S       97   8 O                                       1.4522515
    98   8 O       99   6 C                                       1.4035531
    80   8 O      100   6 C                                       1.4081458
    81   8 O      101   6 C                                       1.4069749
    99   6 C      102   1 H                                       1.0890378
    99   6 C      103   1 H                                       1.0951260
    99   6 C      104   1 H                                       1.0954776
    96   6 C      105   1 H                                       1.0895457
    96   6 C      106   1 H                                       1.0915076
    96   6 C      107   1 H                                       1.0948474
   101   6 C      108   1 H                                       1.0893006
   101   6 C      109   1 H                                       1.0934107
   101   6 C      110   1 H                                       1.0944566
   100   6 C      111   1 H                                       1.0892509
   100   6 C      112   1 H                                       1.0942066
   100   6 C      113   1 H                                       1.0943345
    92   6 C      114   1 H                                       1.0894546
    92   6 C      115   1 H                                       1.0945887
    92   6 C      116   1 H                                       1.0948695

 * 5 distinct bonds (by element types)

   Z      Z             #   av. dist./Å        max./Å        min./Å
   1 H    6 C          42     1.0884096     1.0954776     1.0770613
   6 C    6 C          42     1.4055160     1.4343508     1.3605894
   6 C    7 N           8     1.3308906     1.3346596     1.3260912
   6 C    8 O          14     1.3921165     1.4112432     1.3545390
   8 O   16 S           6     1.4503240     1.4527858     1.4468559


optimized geometry written to: xtbopt.mol


           -------------------------------------------------
          | TOTAL ENERGY             -220.475003409035 Eh   |
          | GRADIENT NORM               0.000107977801 Eh/α |
           -------------------------------------------------

------------------------------------------------------------------------
 * finished run on 2025/03/04 at 12:35:15.423     
------------------------------------------------------------------------
 total:
 * wall-time:     0 d,  0 h,  2 min,  5.864 sec
 *  cpu-time:     0 d,  0 h,  8 min, 10.828 sec
 * ratio c/w:     3.900 speedup
 SCF:
 * wall-time:     0 d,  0 h,  0 min,  2.948 sec
 *  cpu-time:     0 d,  0 h,  0 min, 11.299 sec
 * ratio c/w:     3.833 speedup
 ANC optimizer:
 * wall-time:     0 d,  0 h,  2 min,  2.909 sec
 *  cpu-time:     0 d,  0 h,  7 min, 59.523 sec
 * ratio c/w:     3.901 speedup

      -----------------------------------------------------------      
     |                   =====================                   |     
     |                           x T B                           |     
     |                   =====================                   |     
     |                         S. Grimme                         |     
     |          Mulliken Center for Theoretical Chemistry        |     
     |                    University of Bonn                     |     
      -----------------------------------------------------------      

   * xtb version 6.7.1 (edcfbbe) compiled by 'runner@Mac-1732539442253.local' on 2024-11-25

   xtb is free software: you can redistribute it and/or modify it under
   the terms of the GNU Lesser General Public License as published by
   the Free Software Foundation, either version 3 of the License, or
   (at your option) any later version.
   
   xtb is distributed in the hope that it will be useful,
   but WITHOUT ANY WARRANTY; without even the implied warranty of
   MERCHANTABILITY or FITNESS FOR A PARTICULAR PURPOSE.  See the
   GNU Lesser General Public License for more details.
   
   Cite this work as:
   * C. Bannwarth, E. Caldeweyher, S. Ehlert, A. Hansen, P. Pracht,
     J. Seibert, S. Spicher, S. Grimme, WIREs Comput. Mol. Sci., 2020, 11,
     e01493. DOI: 10.1002/wcms.1493
   
   for GFN2-xTB:
   * C. Bannwarth, S. Ehlert and S. Grimme., J. Chem. Theory Comput., 2019,
     15, 1652-1671. DOI: 10.1021/acs.jctc.8b01176
   for GFN1-xTB:
   * S. Grimme, C. Bannwarth, P. Shushkov, J. Chem. Theory Comput., 2017,
     13, 1989-2009. DOI: 10.1021/acs.jctc.7b00118
   for GFN0-xTB:
   * P. Pracht, E. Caldeweyher, S. Ehlert, S. Grimme, ChemRxiv, 2019, preprint.
     DOI: 10.26434/chemrxiv.8326202.v1
   for GFN-FF:
   * S. Spicher and S. Grimme, Angew. Chem. Int. Ed., 2020, 59, 15665-15673.
     DOI: 10.1002/anie.202004239
   
   for ALPB and GBSA implicit solvation:
   * S. Ehlert, M. Stahn, S. Spicher, S. Grimme, J. Chem. Theory Comput.,
     2021, 17, 4250-4261. DOI: 10.1021/acs.jctc.1c00471
   
   for ddCOSMO and CPCM-X implicit solvation:
   * M. Stahn, S. Ehlert, S. Grimme, J. Phys. Chem. A,
     2023, XX, XXXX-XXXX. DOI: 10.1021/acs.jpca.3c04382
   
   for DFT-D4:
   * E. Caldeweyher, C. Bannwarth and S. Grimme, J. Chem. Phys., 2017,
     147, 034112. DOI: 10.1063/1.4993215
   * E. Caldeweyher, S. Ehlert, A. Hansen, H. Neugebauer, S. Spicher,
     C. Bannwarth and S. Grimme, J. Chem. Phys., 2019, 150, 154122.
     DOI: 10.1063/1.5090222
   * E. Caldeweyher, J.-M. Mewes, S. Ehlert and S. Grimme, Phys. Chem. Chem. Phys.
     2020, 22, 8499-8512. DOI: 10.1039/D0CP00502A
   
   for sTDA-xTB:
   * S. Grimme and C. Bannwarth, J. Chem. Phys., 2016, 145, 054103.
     DOI: 10.1063/1.4959605
   
   in the mass-spec context:
   * V. Asgeirsson, C. Bauer and S. Grimme, Chem. Sci., 2017, 8, 4879.
     DOI: 10.1039/c7sc00601b
   * J. Koopman and S. Grimme, ACS Omega 2019, 4, 12, 15120-15133.
     DOI: 10.1021/acsomega.9b02011
   
   for metadynamics refer to:
   * S. Grimme, J. Chem. Theory Comput., 2019, 155, 2847-2862
     DOI: 10.1021/acs.jctc.9b00143
   
   for SPH calculations refer to:
   * S. Spicher and S. Grimme, J. Chem. Theory Comput., 2021, 17, 1701-1714
     DOI: 10.1021/acs.jctc.0c01306
   
   for ONIOM refer to:
   * C. Plett, A. Katbashev, S. Ehlert, S. Grimme, M. Bursch,
     Phys. Chem. Chem. Phys., 2023, 25, 17860-17868. DOI: 10.1039/D3CP02178E
   
   for DIPRO refer to:
   * J. Kohn, N. Gildemeister, S. Grimme, D. Fazzi, A. Hansen,
     J. Chem. Phys., 2023, just accepted.
   
   for PTB refer to:
   * S. Grimme, M. Mueller, A. Hansen, J. Chem. Phys., 2023, 158, 124111.
     DOI: 10.1063/5.0137838
   
   with help from (in alphabetical order)
   P. Atkinson, C. Bannwarth, F. Bohle, G. Brandenburg, E. Caldeweyher
   M. Checinski, S. Dohm, S. Ehlert, S. Ehrlich, I. Gerasimov, C. Hölzer
   A. Katbashev, J. Kohn, J. Koopman, C. Lavigne, S. Lehtola, F. März, M. Müller,
   F. Musil, H. Neugebauer, J. Pisarek, C. Plett, P. Pracht, F. Pultar,
   J. Seibert, P. Shushkov, S. Spicher, M. Stahn, M. Steiner, T. Strunk,
   J. Stückrath, T. Rose, and J. Unsleber
   
 * started run on 2025/03/04 at 12:35:15.454     
   ID    Z sym.   atoms
    1    6 C      1-9, 11, 12, 14-21, 34, 38, 41-43, 59-67, 69, 70, 72-79,
                  92, 96, 99-101
    2    7 N      10, 13, 68, 71
    3    8 O      22, 23, 32, 33, 36, 37, 39, 40, 80, 81, 90, 91, 94, 95, 97,
                  98
    4   16 S      24, 25, 35, 82, 83, 93
    5    1 H      26-31, 44-58, 84-89, 102-116

           -------------------------------------------------
          |                Calculation Setup                |
           -------------------------------------------------

          program call               : xtb opt_dimer.mol --dipro 0.3 --chrg 0 --uhf 2 --spinpol --tblite
          coordinate file            : opt_dimer.mol
          omp threads                :                     8


molecular fragmentation (1/2 indicates fragments):
111111111111111111111111111111111111111111111111111111111122222222222222
22222222222222222222222222222222222222222222
# atoms in fragment 1/2:    58    58
 fragment masses (1/2) :      561.63      561.63
CMA distance (Bohr)    :  10.979
constraining FC (au)   :  0.0500
Wavefunction read from restart file
           -------------------------------------------------
          |                    D I P R O                    |
           -------------------------------------------------
Calculation for dimer 
--------------------- 
  
charge of dimer :   0.
unpaired e- of dimer :  2
repulsion energy          2.5259119635907E+00 Eh
dispersion energy         1.0890637966887E-02 Eh
number of electrons       3.8600000000000E+02 e
integral cutoff           1.8403572253217E+01 bohr

------------------------------------------------------------
  cycle        total energy    energy error   density error
------------------------------------------------------------
      1     -219.5538076554  -2.2209061E+02   2.2064918E-01
      2     -220.3138328353  -7.6002518E-01   1.0574369E-01
      3     -220.2464305398   6.7402295E-02   5.4987272E-02
      4     -220.3566117504  -1.1018121E-01   3.0000396E-02
      5     -220.4338791562  -7.7267406E-02   1.4314345E-02
      6     -220.4468218330  -1.2942677E-02   9.9741041E-03
      7     -220.4675690785  -2.0747245E-02   5.3880214E-03
      8     -220.4700523347  -2.4832562E-03   3.2031885E-03
      9     -220.4707170798  -6.6474509E-04   2.0616559E-03
     10     -220.4710540174  -3.3693761E-04   1.1453760E-03
     11     -220.4711390207  -8.5003344E-05   5.8894761E-04
     12     -220.4711712117  -3.2190970E-05   2.8114779E-04
     13     -220.4711823699  -1.1158225E-05   1.3341978E-04
     14     -220.4711832594  -8.8949204E-07   8.2591284E-05
     15     -220.4711841134  -8.5398136E-07   3.8504888E-05
     16     -220.4711842141  -1.0074496E-07   1.7371025E-05
------------------------------------------------------------

electronic energy        -2.2300798681569E+02 Eh
total energy             -2.2047118421414E+02 Eh

 total:                                   6.699 sec
 - repulsion                              0.000 sec (  0%)
 - dispersion                             0.004 sec (  0%)
 - coulomb                                0.002 sec (  0%)
 - hamiltonian                            0.008 sec (  0%)
 - scc                                    6.685 sec ( 99%)

Found 2 fragments!
Fragment 1:  1-58
Fragment 2:  59-116

[Info] Fragment spin read from .UHFfrag
Calculation for fragment 1
 ------------------------------
   
charge of fragment :   0.
unpaired e- of fragment :  1
------------------------------------------------------------
  cycle        total energy    energy error   density error
------------------------------------------------------------
      1     -109.7555785617  -1.1101937E+02   2.2089483E-01
      2     -110.1432914878  -3.8771293E-01   1.0406402E-01
      3     -110.1347813954   8.5100924E-03   5.1097679E-02
      4     -110.1812576508  -4.6476255E-02   2.6574007E-02
      5     -110.2054364025  -2.4178752E-02   1.0120386E-02
      6     -110.2080349544  -2.5985519E-03   5.1345288E-03
      7     -110.2087305202  -6.9556579E-04   2.8452600E-03
      8     -110.2090812101  -3.5068986E-04   1.2802951E-03
      9     -110.2090932954  -1.2085297E-05   8.1714154E-04
     10     -110.2091241006  -3.0805224E-05   2.9282067E-04
     11     -110.2091293617  -5.2611368E-06   1.3307469E-04
     12     -110.2091296339  -2.7222221E-07   6.9539435E-05
     13     -110.2091296612  -2.7254316E-08   2.8202352E-05
     14     -110.2091296686  -7.3600432E-09   1.5504897E-05
------------------------------------------------------------

 total:                                   0.859 sec
Calculation for fragment 2
 ------------------------------
   
charge of fragment :   0.
unpaired e- of fragment :  1
------------------------------------------------------------
  cycle        total energy    energy error   density error
------------------------------------------------------------
      1     -109.7496781669  -1.1101357E+02   2.2041324E-01
      2     -110.1411691325  -3.9149097E-01   1.0473744E-01
      3     -110.1355570500   5.6120826E-03   5.1005709E-02
      4     -110.1771448565  -4.1587807E-02   2.7282780E-02
      5     -110.2046007954  -2.7455939E-02   1.0119965E-02
      6     -110.2071236234  -2.5228280E-03   5.2372823E-03
      7     -110.2078079820  -6.8435856E-04   2.7161757E-03
      8     -110.2081257356  -3.1775362E-04   1.1326470E-03
      9     -110.2081182212   7.5143398E-06   7.0528296E-04
     10     -110.2081407813  -2.2560049E-05   2.7170559E-04
     11     -110.2081451288  -4.3475306E-06   1.3944882E-04
     12     -110.2081456086  -4.7979755E-07   7.1100131E-05
     13     -110.2081456407  -3.2055780E-08   2.9899871E-05
     14     -110.2081456520  -1.1359390E-08   1.6713975E-05
------------------------------------------------------------

 total:                                   0.425 sec
   
   ::::::::::::::::::::::::::::::::::::::::::::::
   ::     D I P R O      C O U P L I N G S     ::
   ::::::::::::::::::::::::::::::::::::::::::::::
   
energy threshhold for near-degenerate orbitals near HOMO and LUMO considered for DIPRO:  0.300 eV
no. of orbitals within energy window of frag 1         2
no. of orbitals within energy window of frag 2         2
   
  Fragment 1 SOMO   Fragment 2 SOMO 
--------------------------------------
E_mon(orb) frag1 frag2             -10.231   -10.145 eV
J(AB):                0.014 eV
S(AB):            -0.00064447 Eh
|J(AB,eff)|:            0.007 eV
   
  Fragment 1 SOMO   Fragment 2 LUMO 
--------------------------------------
E_mon(orb) frag1 frag2             -10.231    -9.837 eV
J(AB):                0.004 eV
S(AB):            -0.00023739 Eh
|J(AB,eff)|:            0.002 eV
   
  Fragment 1 LUMO   Fragment 2 SOMO 
--------------------------------------
E_mon(orb) frag1 frag2              -9.913   -10.145 eV
J(AB):               -0.027 eV
S(AB):             0.00121877 Eh
|J(AB,eff)|:            0.015 eV
   
  Fragment 1 LUMO   Fragment 2 LUMO 
--------------------------------------
E_mon(orb) frag1 frag2              -9.913    -9.837 eV
J(AB):                0.057 eV
S(AB):            -0.00201740 Eh
|J(AB,eff)|:            0.037 eV
   
..............................................................................
:  total |J(AB,eff)| for hole transport (occ. MOs) :               0.007 eV  :
:  total |J(AB,eff)| for charge transport (unocc. MOs) :           0.037 eV  :
:  total |J(AB,eff)| for charge transfer (CT) :                    0.015 eV  :
..............................................................................
  
 Please remember, DIPRO is not available for restart!
   
normal termination of dipro
----------------------------------------------------------
 * finished run on 2025/03/04 at 12:35:23.465     
----------------------------------------------------------
 dipro:
 * wall-time:     0 d,  0 h,  0 min,  7.996 sec
 *  cpu-time:     0 d,  0 h,  0 min, 27.132 sec
 * ratio c/w:     3.393 speedup
Reorganization energy (electron): 0.22155109464034256 eV
Reorganization energy (hole): 0.31350038050216283 eV
Electron Transfer integral J: 0.037 eV
Hole Transfer integral J: 0.007 eV
