116
 energy: -220.390585274076 gnorm: 0.245023266922 xtb: 6.7.1 (edcfbbe)
C           -1.74760000000000        1.95040000000000       -1.79910000000000
C           -1.66270000000000        0.85050000000000       -0.95400000000000
C           -0.91950000000000        0.98630000000000        0.27020000000000
C           -0.06600000000000        2.11420000000000        0.43550000000000
C           -0.18400000000000        3.17970000000000       -0.47030000000000
C           -1.02750000000000        3.10630000000000       -1.54210000000000
C           -0.90950000000000       -0.00840000000000        1.29800000000000
C            0.17150000000000        0.01290000000000        2.18280000000000
C            1.05310000000000        1.13300000000000        2.19280000000000
N            0.88310000000000        2.20150000000000        1.39210000000000
C           -1.89840000000000       -1.01710000000000        1.52950000000000
C           -1.51950000000000       -2.14790000000000        2.31180000000000
N           -0.39540000000000       -2.18530000000000        3.06350000000000
C            0.37240000000000       -1.07850000000000        3.07860000000000
C            1.44880000000000       -1.00490000000000        3.96980000000000
C            2.29790000000000        0.07770000000000        3.97180000000000
C            2.11160000000000        1.13250000000000        3.10730000000000
C           -3.27730000000000       -0.87150000000000        1.14430000000000
C           -4.10200000000000       -1.98320000000000        1.24500000000000
C           -3.65720000000000       -3.15750000000000        1.82820000000000
C           -2.40620000000000       -3.23780000000000        2.37910000000000
O           -3.74280000000000        0.39310000000000        0.79500000000000
O           -2.18850000000000       -0.39730000000000       -1.27500000000000
S           -1.17800000000000        4.53030000000000       -2.64780000000000
S           -4.75880000000000       -4.59050000000000        1.88900000000000
H            0.39390000000000        4.07400000000000       -0.31390000000000
H           -2.35200000000000        1.91210000000000       -2.68600000000000
H            2.78180000000000        1.97340000000000        3.12910000000000
H            1.61910000000000       -1.80780000000000        4.66490000000000
H           -2.09620000000000       -4.13290000000000        2.88820000000000
H           -5.11180000000000       -1.95480000000000        0.87980000000000
O           -0.30420000000000        5.50190000000000       -1.88170000000000
O           -2.71160000000000        5.00580000000000       -2.14550000000000
C           -2.70390000000000        5.55380000000000       -0.87090000000000
S            3.70170000000000        0.13660000000000        5.10620000000000
O            3.49270000000000       -1.18140000000000        5.81750000000000
O            4.89320000000000       -0.28700000000000        4.00020000000000
C            4.74970000000000       -1.58610000000000        3.53120000000000
O           -5.79390000000000       -4.12340000000000        0.88520000000000
O           -3.81230000000000       -5.60530000000000        0.94030000000000
C           -3.74890000000000       -5.18150000000000       -0.38030000000000
C           -5.12090000000000        0.47180000000000        0.52270000000000
C           -2.91570000000000       -0.45230000000000       -2.47680000000000
H           -3.20520000000000       -5.92810000000000       -0.96580000000000
H           -3.23130000000000       -4.21990000000000       -0.43600000000000
H           -4.76950000000000       -5.07860000000000       -0.76310000000000
H            5.63260000000000       -1.84620000000000        2.94090000000000
H            3.85670000000000       -1.65730000000000        2.90480000000000
H            4.66320000000000       -2.26340000000000        4.38700000000000
H           -3.29980000000000       -1.46570000000000       -2.59820000000000
H           -2.26090000000000       -0.21690000000000       -3.31670000000000
H           -3.75520000000000        0.24230000000000       -2.43220000000000
H           -5.36710000000000        1.51070000000000        0.29920000000000
H           -5.69160000000000        0.15340000000000        1.39580000000000
H           -5.36180000000000       -0.14630000000000       -0.34280000000000
H           -3.70410000000000        5.92770000000000       -0.63550000000000
H           -1.97790000000000        6.37300000000000       -0.84330000000000
H           -2.41910000000000        4.78380000000000       -0.15030000000000
C           -2.89110000000000        1.16460000000000        3.83430000000000
C           -2.37980000000000        0.58180000000000        4.98450000000000
C           -1.31060000000000        1.25540000000000        5.66930000000000
C           -0.62740000000000        2.32100000000000        5.01630000000000
C           -1.19540000000000        2.85450000000000        3.84680000000000
C           -2.31360000000000        2.29810000000000        3.29050000000000
C           -0.80870000000000        0.82290000000000        6.93540000000000
C            0.49860000000000        1.19780000000000        7.25370000000000
C            1.15480000000000        2.20050000000000        6.48120000000000
N            0.56740000000000        2.80460000000000        5.42860000000000
C           -1.50240000000000        0.03930000000000        7.91160000000000
C           -0.71950000000000       -0.65220000000000        8.88160000000000
N            0.59310000000000       -0.40180000000000        9.08890000000000
C            1.15600000000000        0.57860000000000        8.35660000000000
C            2.45560000000000        0.99460000000000        8.66000000000000
C            3.08010000000000        1.97920000000000        7.93040000000000
C            2.44910000000000        2.58000000000000        6.86100000000000
C           -2.93570000000000        0.02140000000000        8.03290000000000
C           -3.50460000000000       -0.92390000000000        8.87460000000000
C           -2.72100000000000       -1.73990000000000        9.67270000000000
C           -1.36110000000000       -1.58900000000000        9.71040000000000
O           -3.67640000000000        0.99440000000000        7.36880000000000
O           -2.79570000000000       -0.66070000000000        5.45230000000000
S           -3.04920000000000        3.00320000000000        1.79760000000000
S           -3.51460000000000       -3.01380000000000       10.68190000000000
H           -0.73230000000000        3.69920000000000        3.36820000000000
H           -3.71460000000000        0.71630000000000        3.31140000000000
H            2.95550000000000        3.34210000000000        6.29650000000000
H            2.97710000000000        0.54090000000000        9.48440000000000
H           -0.76840000000000       -2.19070000000000       10.37630000000000
H           -4.57050000000000       -1.04840000000000        8.92310000000000
O           -2.34530000000000        4.34070000000000        1.79310000000000
O           -4.53220000000000        3.42630000000000        2.46040000000000
C           -4.40330000000000        4.37220000000000        3.46970000000000
S            4.76140000000000        2.47010000000000        8.38500000000000
O            4.95090000000000        1.52730000000000        9.55620000000000
O            5.52780000000000        1.62080000000000        7.14890000000000
C            5.68600000000000        0.27240000000000        7.44730000000000
O           -4.82360000000000       -3.11970000000000        9.92630000000000
O           -2.66550000000000       -4.31820000000000       10.04840000000000
C           -2.97780000000000       -4.55170000000000        8.71560000000000
C           -5.06370000000000        0.94750000000000        7.59340000000000
C           -3.89770000000000       -1.21200000000000        4.78100000000000
H           -2.47100000000000       -5.46390000000000        8.38850000000000
H           -2.64840000000000       -3.70750000000000        8.10340000000000
H           -4.06200000000000       -4.67570000000000        8.62750000000000
H            6.23080000000000       -0.20960000000000        6.63030000000000
H            4.70240000000000       -0.19410000000000        7.56070000000000
H            6.24740000000000        0.18360000000000        8.38260000000000
H           -4.16270000000000       -2.15250000000000        5.26500000000000
H           -3.62360000000000       -1.40660000000000        3.74610000000000
H           -4.74520000000000       -0.52790000000000        4.83440000000000
H           -5.52900000000000        1.75900000000000        7.03300000000000
H           -5.27070000000000        1.08330000000000        8.65570000000000
H           -5.46410000000000       -0.00340000000000        7.24040000000000
H           -5.39890000000000        4.71930000000000        3.75960000000000
H           -3.81400000000000        5.21410000000000        3.09240000000000
H           -3.90480000000000        3.92600000000000        4.33450000000000
116
 energy: -220.430854511897 gnorm: 0.148603356400 xtb: 6.7.1 (edcfbbe)
C           -1.74254340361528        1.94296209017131       -1.80199229042051
C           -1.66348764236037        0.85280313505412       -0.95305450319774
C           -0.92919583585357        0.97904289032194        0.26336429029367
C           -0.07338965759378        2.10955343453210        0.43837924927248
C           -0.17980463802769        3.18416443651877       -0.46367274952442
C           -1.02247066251589        3.10475498357778       -1.53209721862494
C           -0.91936404030811       -0.00470080749398        1.29640288332893
C            0.16465991153142        0.01538325747743        2.18167599534484
C            1.04959097802424        1.13419798609169        2.18775549536085
N            0.86788762423163        2.18868778871683        1.38969836809757
C           -1.91072379148548       -1.00404654566011        1.53296459935694
C           -1.52136571092126       -2.13829077273899        2.31145253350681
N           -0.39843174673348       -2.17336068988774        3.04688654412571
C            0.36472327533391       -1.07600374320690        3.07826178510219
C            1.44527008136808       -1.00680230939634        3.97562277588569
C            2.29063914864805        0.08269709474581        3.97368576976275
C            2.11259119802091        1.14270268892029        3.10856309515449
C           -3.27517385543554       -0.87415885837585        1.14177043350943
C           -4.10194671546819       -1.97653482626780        1.24825896411287
C           -3.64493945764412       -3.15692098439051        1.82598665874073
C           -2.39894718037025       -3.24183897724064        2.38355105222290
O           -3.73296868495922        0.37534932436197        0.79003505196983
O           -2.19239512748234       -0.37706437535385       -1.26417584114254
S           -1.16950486961054        4.54604957311376       -2.62923565256356
S           -4.76685885657153       -4.58453302410704        1.86415275171688
H            0.40821274471072        4.07426883435977       -0.31162350460850
H           -2.34938616984391        1.91296230204021       -2.69109308396791
H            2.78361315029702        1.98488240370470        3.12694100714576
H            1.62002499270442       -1.81375416025838        4.66929512109511
H           -2.08669106012532       -4.13316916922485        2.90127696247330
H           -5.11555257248473       -1.96049201266635        0.88427237963684
O           -0.27347251607998        5.51964615175354       -1.94643749575555
O           -2.71420170967046        4.99742269331036       -2.15575966288879
C           -2.71444546807842        5.56177510515982       -0.87583186593616
S            3.69831124321150        0.11488296644001        5.11496596869058
O            3.48217866743924       -1.15380523703099        5.86440531109239
O            4.88064635636814       -0.28055783403942        3.99426408007814
C            4.75447733141652       -1.58890076375103        3.52373712007328
O           -5.83313239234594       -4.13101758154515        0.92447168498575
O           -3.80606025967390       -5.60175490220827        0.94105318046407
C           -3.74232035136738       -5.18699149023004       -0.38997552332410
C           -5.11461866211732        0.47081541018627        0.52047334760517
C           -2.91488044077828       -0.45042591080741       -2.47155291380983
H           -3.20211422250770       -5.94052074568483       -0.96006155496129
H           -3.22318825117377       -4.22524674574157       -0.45862383027792
H           -4.75863714223868       -5.07736568789729       -0.78190188769236
H            5.64220981374515       -1.83493371945390        2.94252964390558
H            3.86424997775436       -1.67722470545016        2.89315130992344
H            4.66460858578116       -2.27299334650561        4.37370658761179
H           -3.28755336715600       -1.46960461029901       -2.57478828930282
H           -2.26770704367888       -0.22191553504016       -3.32283413051490
H           -3.76298171920108        0.23872638734021       -2.44792109746510
H           -5.33942485096893        1.51511064191157        0.30413948008356
H           -5.69978172302173        0.15664810084161        1.38924592551988
H           -5.37733569322125       -0.14262491776938       -0.34463245510282
H           -3.71403778253806        5.93081028251347       -0.65550100823741
H           -1.99345396089961        6.38272407342398       -0.83359279254429
H           -2.42852992996685        4.80927462587475       -0.13987312248615
C           -2.88433071777300        1.15068464613228        3.83202739133122
C           -2.37756474229508        0.57887481831668        4.98276405498167
C           -1.31346649596848        1.23699482050993        5.66403452228466
C           -0.62608013387329        2.30761870725981        5.01486474517965
C           -1.18633825644795        2.85474004023414        3.84271162368562
C           -2.30384146645953        2.29517111622510        3.29601224443130
C           -0.81723664619330        0.81913903477893        6.93358028975849
C            0.49272520358275        1.19352759395083        7.25063687977211
C            1.15163039382753        2.18965199961438        6.47054802031657
N            0.55563348892095        2.79015502331666        5.43441507808515
C           -1.51531447768051        0.05045752260290        7.91248429920392
C           -0.72384662138190       -0.64510447369045        8.87801719175834
N            0.58070115717193       -0.39810233780626        9.07216649276167
C            1.14791612161373        0.57659765714560        8.35640682479037
C            2.45327908322920        0.99010896027874        8.66522237338111
C            3.06997970067648        1.97888243564663        7.93005685979092
C            2.45055531120767        2.57867001294147        6.84995413020758
C           -2.93457513435040        0.02050225610528        8.03448086391341
C           -3.50487127959847       -0.91352685523089        8.87872602251532
C           -2.71193364624449       -1.73491940854847        9.67259975008071
C           -1.35361396941503       -1.58853554614554        9.71637694685556
O           -3.66636973166120        0.97532837601319        7.37164107122479
O           -2.79695731307721       -0.63993065255656        5.45576847699799
S           -3.03540014884121        3.01929644497812        1.80880441870305
S           -3.53032918555603       -3.02015414740892       10.66121959234151
H           -0.72277726329210        3.70302182989923        3.36644341703160
H           -3.72140454511370        0.71826081070071        3.31368489614433
H            2.95314635441128        3.34955905850739        6.28904666238165
H            2.97677647604435        0.53776364110194        9.49240668149394
H           -0.75573460590854       -2.18440117280877       10.38557442825014
H           -4.57182358072076       -1.05075230455593        8.93119030301244
O           -2.32212403998232        4.32425451719942        1.76939308591643
O           -4.52611494986847        3.40859330851699        2.47158853632510
C           -4.41168881837651        4.37304010889205        3.47667175443023
S            4.76227918703569        2.44868707157622        8.39455521148166
O            4.98050436833114        1.58650783480591        9.59036446652476
O            5.52385985170790        1.62150312210892        7.14487438489350
C            5.69305487407244        0.26519348735941        7.44463564006473
O           -4.85098289341282       -3.10697978762991        9.97269977795583
O           -2.65989542656267       -4.31357475598887       10.04562704500366
C           -2.97296362197188       -4.56075113563965        8.70798350778090
C           -5.05820190403571        0.94473627474877        7.59266099030099
C           -3.89710302664623       -1.20760925077085        4.78763373790835
H           -2.46470759045568       -5.47210945846044        8.39829304231466
H           -2.64554107272298       -3.72255054785003        8.08405131982983
H           -4.05643164236557       -4.68300690410925        8.60891693294500
H            6.23639327611280       -0.19854496343579        6.62351037070329
H            4.71978469401003       -0.21935925926836        7.56092894670278
H            6.25545475818685        0.16304230870843        8.37647280714530
H           -4.14436711364661       -2.14510780356983        5.28471985285864
H           -3.63925672700812       -1.41543912994637        3.74879120110405
H           -4.75842536116585       -0.53605181340762        4.83273076792184
H           -5.50287909889318        1.76333749304085        7.02630770147407
H           -5.28110823854918        1.08425318109969        8.65383179814258
H           -5.48032617310411       -0.00124314382234        7.24414520032084
H           -5.40977551935472        4.71345477320942        3.74980568084013
H           -3.82037815983070        5.21606338977710        3.10493249819849
H           -3.91336887482862        3.94303750260807        4.35104225534491
116
 energy: -220.451037395637 gnorm: 0.026893548066 xtb: 6.7.1 (edcfbbe)
C           -1.73868963384522        1.94630765365058       -1.80628831919371
C           -1.66438484999491        0.85974471276187       -0.95631079116785
C           -0.93955118699039        0.97519091165368        0.25652915179966
C           -0.07945201056335        2.10797150930984        0.44124808466073
C           -0.17855352594010        3.19465172954997       -0.45506089188478
C           -1.02145175101874        3.11256324484884       -1.52050119922228
C           -0.92901769450326        0.00069359911156        1.29687708191546
C            0.15766410917382        0.01897234308540        2.18404697513859
C            1.04520244194047        1.13723399837441        2.18724120542769
N            0.85238091738768        2.17671011850447        1.38870008784875
C           -1.92470814805925       -0.99150491857122        1.53635576790997
C           -1.52617224749856       -2.12994563220441        2.31220269817481
N           -0.40504743133816       -2.16145688816902        3.03200741764072
C            0.35680243432883       -1.07465628966242        3.07857666231972
C            1.44327243531557       -1.00898623777121        3.97898999608373
C            2.28254305823968        0.08697256566444        3.97385910323802
C            2.11388585302492        1.15215465900780        3.11239467048220
C           -3.27834580908111       -0.87599479120500        1.14125247589079
C           -4.10214856548034       -1.97671435111406        1.24564305265760
C           -3.63214283865812       -3.16238395479537        1.81779532483405
C           -2.39453750669745       -3.24843064087322        2.38712785232315
O           -3.72819493210134        0.35611167927342        0.78342220285649
O           -2.19747341797344       -0.35111464575104       -1.25767852497046
S           -1.15413149880425        4.56984774765462       -2.62280300569680
S           -4.78437300148611       -4.58352742773605        1.84312103655218
H            0.42265500074917        4.07675785303236       -0.30604734888117
H           -2.34052887631607        1.92572907645058       -2.70019386810807
H            2.78439641952403        1.99504571852905        3.12725529350726
H            1.61924861272671       -1.81653768035640        4.67368029579299
H           -2.07648113382302       -4.13309730709211        2.91299780507165
H           -5.12043747632237       -1.97578464808082        0.89028905041743
O           -0.25163682546108        5.51865902546561       -2.00008957800349
O           -2.70706761639638        4.98523428909489       -2.16934045913617
C           -2.72554163058349        5.57143283872625       -0.88487874429525
S            3.69207844400873        0.09455896926654        5.13246393110914
O            3.46195254193567       -1.12367405773314        5.89611704909701
O            4.85529823934689       -0.27223895518613        3.99008329022966
C            4.75589130251513       -1.59109652494467        3.51587321854625
O           -5.85514688296030       -4.13374520506432        0.96393698095018
O           -3.80319357446306       -5.59230619828404        0.94464160911340
C           -3.73402136439414       -5.19137939234908       -0.39965778635666
C           -5.11090658587277        0.47402338494022        0.51615835852404
C           -2.91627579311321       -0.45183711148241       -2.46776186544326
H           -3.19899204492678       -5.95678927608343       -0.95274309586173
H           -3.20866997820062       -4.23261262379701       -0.48312052638347
H           -4.74642419186249       -5.07577869954475       -0.80066287359838
H            5.65372524958188       -1.81829763949132        2.94719295553881
H            3.87308594580750       -1.69899860524962        2.87560353916192
H            4.66506705659233       -2.28140728861817        4.36098271711257
H           -3.27298685240673       -1.47872903070511       -2.54431874523348
H           -2.27533939330663       -0.23145931728228       -3.32829107865218
H           -3.77312810478424        0.23041453954089       -2.46667128730864
H           -5.30550414512416        1.52505212687752        0.30900292804054
H           -5.70722789335264        0.16418177011392        1.38179302960605
H           -5.39500049413187       -0.13358837719993       -0.34858648215789
H           -3.72869053275615        5.93572866002370       -0.68734784696067
H           -2.01140733726235        6.39716367780255       -0.83603887129673
H           -2.44168037120125        4.83718967225687       -0.13170608043841
C           -2.87960030034154        1.14106813819527        3.82719411887130
C           -2.37526537070005        0.57291641363038        4.97689542833175
C           -1.31360035217488        1.21656560693584        5.65728399710693
C           -0.62078774898733        2.29294322869414        5.01343587305794
C           -1.17610172987412        2.85512047943942        3.84013490651150
C           -2.29381679815437        2.29424047622105        3.30255648261099
C           -0.82173873131384        0.81382251002498        6.93229986953268
C            0.49204220741789        1.18744831235165        7.24850153407779
C            1.15323320056989        2.17877496525149        6.46295699826339
N            0.54850261986704        2.77211051204964        5.44001022931901
C           -1.52870695875384        0.06078987485164        7.91493618171629
C           -0.72981846548177       -0.63829776849112        8.87885541897633
N            0.56664186701519       -0.39402270319181        9.05928134192490
C            1.14343070072749        0.57223745863148        8.35823202037529
C            2.45649654514070        0.98208515408782        8.66855715110406
C            3.06645789276478        1.97257991155851        7.92713792409146
C            2.45819905079645        2.57469419586601        6.84149716121836
C           -2.93690124899413        0.02145691850707        8.03956365899964
C           -3.50567990859528       -0.91159397629484        8.88146705708115
C           -2.70348297626844       -1.73838129993006        9.67015138808886
C           -1.34837216575801       -1.59104832061893        9.72471427737475
O           -3.66063593633981        0.95582232638718        7.37699138668611
O           -2.80135952036465       -0.61992933943670        5.45521111683580
S           -3.01685917293537        3.03517391626812        1.81529570328688
S           -3.55441494822126       -3.02881868055934       10.64987889580073
H           -0.70929194326762        3.70436818763884        3.36783784062405
H           -3.72772171080054        0.72823982269310        3.30991934900920
H            2.95522383281838        3.35163924026519        6.28269489903681
H            2.97844037768402        0.53589665974463        9.50133171630959
H           -0.74274212645975       -2.17740914590056       10.39545469533055
H           -4.57192316575939       -1.05909308930850        8.94629207528641
O           -2.29871225179218        4.29834450814867        1.74973796209915
O           -4.51160770629329        3.38513097559566        2.48764192284184
C           -4.41878208291167        4.37269251786266        3.48591066694678
S            4.77071499746343        2.43498301209102        8.41258271904422
O            4.98981883050911        1.63952854969600        9.60755496794766
O            5.51411152537787        1.62334349504082        7.14848137721023
C            5.70089180336246        0.25732685185035        7.44425836302783
O           -4.86391165498667       -3.08984954299000       10.01301800634618
O           -2.65749766664284       -4.30043730194662       10.04330362018996
C           -2.96691159134242       -4.56766732283449        8.69930585399376
C           -5.05612124955573        0.94586809524084        7.58984916257027
C           -3.90028692718768       -1.20822723511831        4.79807890754764
H           -2.45763032544397       -5.48199596745736        8.41128934636993
H           -2.63725648440728       -3.73923433281383        8.06144855069640
H           -4.04977965487895       -4.68935594677745        8.58981663217257
H            6.24625891469406       -0.18469403837317        6.61615771377154
H            4.73905422025002       -0.24674887701367        7.56286663394390
H            6.26787500678927        0.14886359858627        8.37189260801502
H           -4.12325805255500       -2.14079496528655        5.31397651931251
H           -3.65800748919100       -1.42889845149177        3.75651423419575
H           -4.77421122212751       -0.54893387092876        4.83601253211907
H           -5.47238089860192        1.77294146323132        7.01520563123030
H           -5.29200051280639        1.08913248965729        8.64961711364645
H           -5.49925150123602        0.00545373618471        7.24578831282856
H           -5.42287481478286        4.70488950377870        3.73529775162116
H           -3.82769324607583        5.21666789579896        3.11593396852261
H           -3.92578189402533        3.96174681653485        4.37372459562630
116
 energy: -220.457125861710 gnorm: 0.018029529456 xtb: 6.7.1 (edcfbbe)
C           -1.73476518943133        1.96346242554206       -1.80613218364778
C           -1.67085675057271        0.87527315938122       -0.95534747266639
C           -0.94867423614887        0.98746942357363        0.26106974123034
C           -0.08476894840436        2.11822532433770        0.44650975178994
C           -0.17469344817016        3.20587785703118       -0.45030270099667
C           -1.01480661554816        3.12608118316444       -1.51786106138002
C           -0.93762450876611        0.00960609243791        1.30059586557965
C            0.14883559015241        0.02632915181454        2.18914257770839
C            1.03779828590264        1.14319131460196        2.19305436746909
N            0.84621852024004        2.18230191872486        1.39362299666579
C           -1.93132997363353       -0.98786216719359        1.53549588703337
C           -1.53083984042931       -2.12671002454872        2.30993064322702
N           -0.41059909308451       -2.15750221390742        3.02926621678411
C            0.34902545273853       -1.06935889267253        3.08080314995014
C            1.43317278828382       -1.00311758409557        3.98334289900736
C            2.26923082482347        0.09345802091393        3.97941763314215
C            2.10635616545762        1.15729662739432        3.11779530057878
C           -3.28625048123314       -0.87832908156762        1.13651597941549
C           -4.10609704999165       -1.98339470561078        1.24320675390511
C           -3.63027342971593       -3.16714425298851        1.81366396368676
C           -2.39378065209943       -3.24935622925995        2.38322976091031
O           -3.73142125990728        0.35184316386901        0.77166397869018
O           -2.20725393597298       -0.33459890433544       -1.25265323305990
S           -1.14940623181959        4.57249158367304       -2.64381321294620
S           -4.78138160258169       -4.59501466528861        1.84580122064822
H            0.43632501361294        4.08054841594982       -0.29848481496897
H           -2.32531535671999        1.94468796097693       -2.70707205223903
H            2.77646795293454        2.00047516724114        3.13268053067559
H            1.60944399000567       -1.81163848058205        4.67643950785125
H           -2.06978002676430       -4.12816561536449        2.91517073242158
H           -5.12586288758214       -1.98903936492631        0.89392326641173
O           -0.22970282087432        5.53369096298055       -2.07449085662994