156
 energy: -260.471502202951 gnorm: 0.293006989886 xtb: 6.7.1 (edcfbbe)
C            0.66070000000000        2.72610000000000       -1.70040000000000
C            1.81090000000000       -3.16890000000000        2.72020000000000
C           -3.88930000000000        0.53440000000000       -1.03430000000000
C           -3.02000000000000       -0.23970000000000       -0.27290000000000
C           -1.66940000000000        0.22560000000000       -0.09990000000000
C           -1.18200000000000        1.25310000000000       -0.95010000000000
C           -2.09880000000000        1.97140000000000       -1.71460000000000
C           -3.43250000000000        1.64780000000000       -1.71560000000000
C           -0.75890000000000       -0.36880000000000        0.84360000000000
C            0.62440000000000       -0.33610000000000        0.52010000000000
C            1.10060000000000        0.58620000000000       -0.45500000000000
N            0.19660000000000        1.48850000000000       -1.03790000000000
C           -1.14500000000000       -0.91340000000000        2.11670000000000
C           -0.21330000000000       -1.73760000000000        2.80180000000000
N            1.04320000000000       -2.00300000000000        2.23410000000000
C            1.53110000000000       -1.20260000000000        1.19230000000000
C            2.87530000000000       -1.17130000000000        0.83230000000000
C            3.32820000000000       -0.27630000000000       -0.11400000000000
C            2.46070000000000        0.59010000000000       -0.74300000000000
C           -2.36660000000000       -0.54370000000000        2.77990000000000
C           -2.64780000000000       -1.11040000000000        4.01870000000000
C           -1.72040000000000       -1.89450000000000        4.67250000000000
C           -0.53090000000000       -2.21600000000000        4.07170000000000
O           -3.18130000000000        0.45320000000000        2.24140000000000
O           -3.36750000000000       -1.46690000000000        0.28320000000000
S           -4.58190000000000        2.70410000000000       -2.62450000000000
S           -1.99920000000000       -2.42510000000000        6.37380000000000
S            5.09640000000000       -0.20820000000000       -0.48510000000000
O            5.10660000000000        1.12540000000000       -1.28210000000000
O            5.11410000000000       -1.34140000000000       -1.72950000000000
C            4.48130000000000       -0.89440000000000       -2.88220000000000
O           -3.57090000000000        3.77790000000000       -3.12080000000000
O           -5.24360000000000        3.47080000000000       -1.27920000000000
C           -4.35820000000000        4.36860000000000       -0.69390000000000
O           -3.53530000000000       -2.65350000000000        6.33100000000000
O           -1.41010000000000       -3.98770000000000        6.19810000000000
C           -2.25530000000000       -4.77100000000000        5.42180000000000
H           -4.92870000000000        0.27500000000000       -1.11090000000000
H           -1.78590000000000        2.80320000000000       -2.31780000000000
H           -3.55570000000000       -0.86860000000000        4.53720000000000
H            0.17890000000000       -2.79620000000000        4.63050000000000
H            3.60340000000000       -1.76670000000000        1.35230000000000
H            2.87470000000000        1.26710000000000       -1.46500000000000
C            1.08030000000000       -4.47610000000000        2.44440000000000
C            1.82600000000000       -5.69710000000000        2.95350000000000
C            0.30330000000000        3.96900000000000       -0.89450000000000
C            0.64940000000000        5.26130000000000       -1.61270000000000
C           -4.52010000000000        0.43710000000000        2.68380000000000
C           -4.65640000000000       -1.92540000000000       -0.04500000000000
H           -4.86120000000000        4.88440000000000        0.12850000000000
H           -4.04270000000000        5.09420000000000       -1.44990000000000
H           -3.48500000000000        3.83340000000000       -0.31230000000000
H           -1.86330000000000       -5.79060000000000        5.37800000000000
H           -2.32210000000000       -4.35790000000000        4.41180000000000
H           -3.24860000000000       -4.77480000000000        5.88110000000000
H            4.67350000000000       -1.60640000000000       -3.68920000000000
H            4.88610000000000        0.08580000000000       -3.15140000000000
H            3.40470000000000       -0.82290000000000       -2.71040000000000
H            2.00730000000000       -3.04020000000000        3.78650000000000
H            2.79280000000000       -3.19890000000000        2.24700000000000
H            0.90390000000000       -4.55900000000000        1.36430000000000
H            0.07790000000000       -4.43410000000000        2.88760000000000
H            2.81450000000000       -5.77240000000000        2.49830000000000
H            1.29190000000000       -6.62320000000000        2.73300000000000
H            1.96680000000000       -5.65180000000000        4.03420000000000
H           -5.11360000000000        1.05510000000000        2.00910000000000
H           -4.59130000000000        0.84590000000000        3.69040000000000
H           -4.90220000000000       -0.58400000000000        2.66190000000000
H           -4.79850000000000       -2.90650000000000        0.40940000000000
H           -4.75180000000000       -2.01710000000000       -1.12760000000000
H           -5.40850000000000       -1.24150000000000        0.34890000000000
H            0.38770000000000        6.13960000000000       -1.01960000000000
H            0.11760000000000        5.33690000000000       -2.56240000000000
H            1.71640000000000        5.31660000000000       -1.83360000000000
H            0.80540000000000        3.92460000000000        0.07950000000000
H           -0.76450000000000        3.95200000000000       -0.64300000000000
H            0.22590000000000        2.76860000000000       -2.70230000000000
H            1.73810000000000        2.69500000000000       -1.86260000000000
C            2.32570000000000        1.79960000000000        2.43100000000000
C            2.21470000000000       -3.20090000000000        7.90840000000000
C           -2.24880000000000        2.21460000000000        4.61980000000000
C           -1.53770000000000        1.39820000000000        5.49120000000000
C           -0.13000000000000        1.20100000000000        5.26100000000000
C            0.44680000000000        1.68750000000000        4.05610000000000
C           -0.33540000000000        2.47280000000000        3.20850000000000
C           -1.65960000000000        2.70840000000000        3.47390000000000
C            0.67260000000000        0.38030000000000        6.12580000000000
C            1.83310000000000       -0.23010000000000        5.58970000000000
C            2.40260000000000        0.26950000000000        4.38590000000000
N            1.73270000000000        1.27520000000000        3.67800000000000
C            0.31790000000000        0.04850000000000        7.48090000000000
C            0.72890000000000       -1.21060000000000        8.00230000000000
N            1.77870000000000       -1.89520000000000        7.37590000000000
C            2.41550000000000       -1.34910000000000        6.25280000000000
C            3.57590000000000       -1.89850000000000        5.71930000000000
C            4.15970000000000       -1.37110000000000        4.58920000000000
C            3.59410000000000       -0.29540000000000        3.93940000000000
C           -0.41480000000000        0.94860000000000        8.33120000000000
C           -0.99860000000000        0.42490000000000        9.47800000000000
C           -0.79280000000000       -0.89190000000000        9.84190000000000
C            0.09080000000000       -1.68780000000000        9.15000000000000
O           -0.47560000000000        2.29130000000000        7.97570000000000
O           -2.17500000000000        0.66200000000000        6.48810000000000
S           -2.66590000000000        3.56770000000000        2.24560000000000
S           -1.70520000000000       -1.59070000000000       11.23280000000000
S            5.66440000000000       -2.09270000000000        3.89510000000000
O            5.03500000000000       -2.64350000000000        2.57780000000000
O            5.69550000000000       -3.45730000000000        4.88660000000000
C            5.04860000000000       -4.54640000000000        4.31830000000000
O           -1.54010000000000        4.27540000000000        1.44410000000000
O           -3.20540000000000        4.80960000000000        3.23500000000000
C           -2.16960000000000        5.64300000000000        3.63790000000000
O           -2.93020000000000       -0.63260000000000       11.21330000000000
O           -2.30520000000000       -2.92620000000000       10.40360000000000
C           -3.30080000000000       -2.57860000000000        9.49820000000000
H           -3.29390000000000        2.40210000000000        4.77760000000000
H            0.05980000000000        2.88280000000000        2.29940000000000
H           -1.66010000000000        1.01930000000000       10.08050000000000
H            0.23020000000000       -2.70050000000000        9.48040000000000
H            4.04530000000000       -2.74940000000000        6.17270000000000
H            4.09950000000000        0.08290000000000        3.07130000000000
C            1.52340000000000       -4.35080000000000        7.19260000000000
C            1.94690000000000       -5.71480000000000        7.70830000000000
C            3.13070000000000        3.06850000000000        2.64550000000000
C            3.83510000000000        3.52850000000000        1.37830000000000
C           -1.16460000000000        3.11350000000000        8.88520000000000
C           -3.48750000000000        1.06140000000000        6.80840000000000
H           -2.58720000000000        6.48330000000000        4.19920000000000
H           -1.64930000000000        6.01340000000000        2.74910000000000
H           -1.47200000000000        5.08920000000000        4.27200000000000
H           -3.63010000000000       -3.47440000000000        8.96330000000000
H           -2.91370000000000       -1.84890000000000        8.78230000000000
H           -4.13740000000000       -2.13870000000000       10.04980000000000
H            5.18060000000000       -5.42180000000000        4.95950000000000
H            5.48080000000000       -4.73720000000000        3.33170000000000
H            3.98620000000000       -4.32040000000000        4.21330000000000
H            2.02510000000000       -3.24100000000000        8.98290000000000
H            3.29990000000000       -3.28830000000000        7.83060000000000
H            1.72160000000000       -4.27130000000000        6.11680000000000
H            0.43700000000000       -4.22820000000000        7.28650000000000
H            3.02090000000000       -5.86520000000000        7.58920000000000
H            1.43970000000000       -6.52570000000000        7.18200000000000
H            1.72130000000000       -5.82110000000000        8.77030000000000
H           -1.13170000000000        4.13890000000000        8.51550000000000
H           -0.68120000000000        3.07070000000000        9.86200000000000
H           -2.20530000000000        2.79660000000000        8.95830000000000
H           -3.79030000000000        0.53740000000000        7.71590000000000
H           -4.17070000000000        0.79210000000000        6.00400000000000
H           -3.51480000000000        2.13580000000000        6.99140000000000
H            4.41690000000000        4.43780000000000        1.53910000000000
H            3.12060000000000        3.73210000000000        0.58040000000000
H            4.51720000000000        2.76320000000000        1.00370000000000
H            3.86090000000000        2.89540000000000        3.44620000000000
H            2.46960000000000        3.85590000000000        3.02900000000000
H            1.54450000000000        1.95430000000000        1.68550000000000
H            2.95490000000000        1.03310000000000        1.98180000000000
156
 energy: -260.524409177715 gnorm: 0.188987483703 xtb: 6.7.1 (edcfbbe)
C            0.65406959859271        2.71627204317548       -1.69608248176930
C            1.80092948830418       -3.16127085039507        2.71579821525316
C           -3.88614903446820        0.52757981214459       -1.03664748714068
C           -3.01332985527239       -0.23219863267798       -0.27293546228826
C           -1.66661379407105        0.21580011022002       -0.10582923971909
C           -1.17347455161107        1.24162011446758       -0.95226564864434
C           -2.08323921402007        1.96649281837894       -1.71808240146858
C           -3.41947595970201        1.64338699380711       -1.71193940649079
C           -0.76546429207020       -0.36903119105541        0.84399700846231
C            0.61882082060183       -0.33424128262375        0.52378278693960
C            1.09154768843696        0.59017940671296       -0.44969621914926
N            0.19543061135309        1.48895089902590       -1.02781864165094
C           -1.14212950533871       -0.90351403511574        2.11735451506379
C           -0.20462963993676       -1.72617333133455        2.79910266983020
N            1.03734110521292       -2.00694009654096        2.22461401176031
C            1.52355134276094       -1.20157543227525        1.19612158596505
C            2.87012229836000       -1.17123552872057        0.84391232013663
C            3.31246837808897       -0.27773571342134       -0.11522834152315
C            2.44857290073927        0.59248215574540       -0.74912154287120
C           -2.35477996358218       -0.54357219052401        2.78232771547551
C           -2.64114168857380       -1.09753782152622        4.01958839556256
C           -1.71643736595384       -1.89241188663647        4.66339508824169
C           -0.51219599792249       -2.20323227233288        4.07112307800265
O           -3.17152614118680        0.43141354122134        2.23492748578027
O           -3.36233618200156       -1.44557682184432        0.28305232890098
S           -4.55589962736185        2.71982536817954       -2.61719685411716
S           -2.02722158255633       -2.42256679587333        6.35855369033774
S            5.07757885029168       -0.19150328104912       -0.50487268990559
O            5.14415600477478        1.12983850337801       -1.24520857880181
O            5.10920039559333       -1.34308408432111       -1.72650131013549
C            4.48041461884432       -0.90214979662190       -2.89129030931790
O           -3.60341905200210        3.76080153394427       -3.17003874676247
O           -5.24173984004335        3.46525778343903       -1.27511498737543
C           -4.35951922782919        4.37502994970988       -0.68512346957042
O           -3.52895575440888       -2.61538287395174        6.35542470205905
O           -1.41765513794014       -3.97930509055162        6.19513615111847
C           -2.25722583024788       -4.78061834881457        5.41883978498752
H           -4.93003634975155        0.27320084673542       -1.11571163858468
H           -1.78157764463559        2.80309507204485       -2.32256901035003
H           -3.55859497213883       -0.87760227277564        4.53627581924132
H            0.18849359496256       -2.79840688943312        4.62936668948195
H            3.60350351804192       -1.77630127441018        1.34814381151508
H            2.87440051973059        1.27334318638126       -1.46488748302475
C            1.06939072649019       -4.47467830436003        2.43950495045062
C            1.82705076566558       -5.69175010334003        2.95299742603352
C            0.29922865531243        3.96518795753134       -0.88882247239386
C            0.65268086594670        5.25357298732109       -1.61730224936664
C           -4.51215834245564        0.43288534050281        2.68008285286567
C           -4.64913069966912       -1.91951498164686       -0.04311890349625
H           -4.87389025530651        4.88177647185947        0.12933487255636
H           -4.03737949057238        5.10266080898335       -1.43576724660988
H           -3.48123791259287        3.84987392042088       -0.29871260460044
H           -1.85272440561919       -5.79167769449813        5.38714191290904
H           -2.32712575866001       -4.37408363181117        4.40523443370270
H           -3.25445865028259       -4.78772936450954        5.86734233096279
H            4.68401315910323       -1.61655839825257       -3.68728229873781
H            4.87621843142504        0.08185820319602       -3.16314969907794
H            3.40050242419382       -0.82788448402515       -2.72942832634668
H            1.99324464950096       -3.03719014130385        3.78634031949503
H            2.77850326582773       -3.19150685684767        2.23602257311701
H            0.91106239325738       -4.56254374904608        1.36013374824584
H            0.07534730507065       -4.43947131555204        2.89454858042483
H            2.81256324042805       -5.76515327505530        2.49479401337050
H            1.28754145140876       -6.61118957156400        2.72901105756562
H            1.96166392142616       -5.64632625060125        4.03345789720700
H           -5.09190596257725        1.05739322886261        1.99887611409493
H           -4.59654932561503        0.84739571239621        3.68731764816197
H           -4.91339483506043       -0.58293869659376        2.66910322996831
H           -4.77398684848191       -2.90028148701637        0.41680097655386
H           -4.75776925180889       -2.02011542913979       -1.12700627423289
H           -5.41945526050671       -1.24861502761403        0.34580718913023
H            0.38665179964026        6.12216364982691       -1.01621688370201
H            0.11419074089697        5.32868921426708       -2.56126010411020
H            1.71966661848314        5.30942182526445       -1.83316714226061
H            0.81522802692671        3.92875940893937        0.07520371195574
H           -0.76555794410665        3.96039347364711       -0.64686333760635
H            0.21428247935567        2.76519453489566       -2.69716893894548
H            1.73312559715330        2.68299878538794       -1.84600694163628
C            2.32302139579344        1.79756406095431        2.44392589398795
C            2.21183029862593       -3.18884312439747        7.90338345062733
C           -2.25131120563220        2.20059014282166        4.61751883818847
C           -1.53265568082870        1.39373305156340        5.48496858028311
C           -0.13546338101367        1.18581360561017        5.25787297953397
C            0.44423259816042        1.66596217813547        4.05113856250458
C           -0.32717687238159        2.45945586341629        3.20400049253270
C           -1.64909554888268        2.70899381585129        3.48262414009254
C            0.66550844210455        0.37795467561863        6.12796684212059
C            1.82441330983811       -0.23347235973048        5.58701779968438
C            2.39273179472987        0.26839057887058        4.38329191796065
N            1.73273027721262        1.27408575947706        3.68248243531896
C            0.32362836223025        0.05354020103330        7.48252369278371
C            0.73794591141989       -1.20296650473017        8.00153981153789
N            1.77277922777948       -1.89327459571276        7.37228300215258
C            2.40442342586627       -1.34883464366589        6.25376967022834
C            3.56893860675865       -1.89766605519814        5.73052128373454
C            4.15451053020093       -1.35739328558330        4.60328488723033
C            3.59299985881007       -0.28241591211407        3.94175497241659
C           -0.41519149240396        0.93826290410984        8.32529007830561
C           -0.99165981984601        0.43068087956139        9.47771581042475
C           -0.78783530550893       -0.88819857566561        9.83218793802851
C            0.10237633944914       -1.68916583195517        9.14478810235766
O           -0.48104830166940        2.26721868738027        7.97202896922887
O           -2.15755077830341        0.67692906523771        6.48717575694431
S           -2.64322328935557        3.57692181671804        2.25049997014389
S           -1.72721558697738       -1.57455672903685       11.21566698584089
S            5.64017641738991       -2.09933351046205        3.88629248203417
O            5.07126387591936       -2.61350043428015        2.57216306779021
O            5.71472274945986       -3.45938417701539        4.87511678526860
C            5.05235859487595       -4.55645564153988        4.31825079506307
O           -1.57097866270732        4.24582000198306        1.41697465064146
O           -3.20551208991090        4.80364163119412        3.24327425609647
C           -2.17130070196664        5.65190753188002        3.64518306697078
O           -2.90849504958026       -0.62688675929694       11.26038729279102
O           -2.30195837173705       -2.92580498310792       10.40379412985067
C           -3.30700566423211       -2.58366451734258        9.49497600812979
H           -3.29610704348228        2.40428172302786        4.77881681950841
H            0.06261950190302        2.88549792088971        2.29782400762940
H           -1.65661471814367        1.01841414387870       10.08700650888858
H            0.23834070738998       -2.70221020013174        9.48133859856827
H            4.04333200700425       -2.74804562204194        6.18479021876255
H            4.10274258843050        0.08791173538984        3.07087644752173
C            1.51990393145786       -4.34722333154734        7.18853873052513
C            1.95168500524248       -5.70979398902451        7.71107180654970
C            3.13071586092002        3.07305680657855        2.65676641277913
C            3.83139942795220        3.52269605227447        1.37967206499014
C           -1.16241658384036        3.10506355037908        8.87954998487981
C           -3.47754321446978        1.06167308333171        6.80854540023229
H           -2.59957185060143        6.48588041248743        4.19897747163914
H           -1.64419118979936        6.02068581665948        2.75976811388130
H           -1.46631132676889        5.10509506590808        4.27984583253145
H           -3.62518950175794       -3.48127788758782        8.96893996059353
H           -2.92866775184608       -1.85544074297289        8.77183240354542
H           -4.14877713728923       -2.14271545875117       10.03602540504972
H            5.19381780117662       -5.41824304288706        4.96893924816282
H            5.46671008132151       -4.76212206315196        3.32855278095336
H            3.98698232351089       -4.33798585360792        4.21629550303275
H            2.01342305634827       -3.22891811793486        8.97622980317867
H            3.29738867566782       -3.27740195608464        7.81628125731310
H            1.73150539741533       -4.27643865965525        6.11660746302876
H            0.43777116191249       -4.23372960905412        7.29317578713840
H            3.02408410225128       -5.85938477830413        7.58764293711329
H            1.43954305715790       -6.51181578303024        7.18073537492800
H            1.71980219491476       -5.81390121850924        8.77016507378353
H           -1.11811190681760        4.12516315305951        8.49647479835810
H           -0.68562646274420        3.07533448286185        9.86338102186475
H           -2.20957087308151        2.80547493595071        8.96747620829109
H           -3.76811210901737        0.52813862216639        7.71364315134262
H           -4.17421014309081        0.79042276791034        6.01135663999947
H           -3.52668840324109        2.13760886601264        6.99320964507877
H            4.40865143406580        4.43069726565292        1.54837840700756
H            3.11367235606867        3.73034741333763        0.58822565961420
H            4.51314566069810        2.75844758466054        1.00742724801948
H            3.86917386646150        2.89449453048036        3.44496727833284
H            2.46711602850009        3.86240713059503        3.02340737816913
H            1.53882554946644        1.96154233545829        1.70389245539975
H            2.95777912080657        1.03434500033444        1.99825497388080
156
 energy: -260.552938942494 gnorm: 0.033249229655 xtb: 6.7.1 (edcfbbe)
C            0.64737417298882        2.70357412916964       -1.68997250730071
C            1.78956735506483       -3.14997470806425        2.70885308101899
C           -3.88665124292713        0.52579368443567       -1.04322487406393
C           -3.00806453463035       -0.22479559608615       -0.28004157889270
C           -1.66549006969726        0.20691824557711       -0.11361970675982
C           -1.16584066045065        1.23253749160871       -0.95482763558437
C           -2.07039797888727        1.96677952300500       -1.71927808082306
C           -3.41064491728069        1.64624444017343       -1.70752655272767
C           -0.77270223105689       -0.36791656071698        0.84443670635662
C            0.61560762805465       -0.33083178127706        0.52691773266868
C            1.08345826437210        0.59495080210020       -0.44523029118672
N            0.19366845073414        1.49073726747828       -1.01532372824827
C           -1.13922497857201       -0.89036982325546        2.12007887810397
C           -0.19459876852897       -1.71163128676200        2.80000887976321
N            1.03030980848894       -2.01112109261723        2.21193148870994
C            1.51859682917950       -1.19803264096477        1.19905007920712
C            2.86868955685069       -1.17050476492783        0.85119241173180
C            3.29999196762321       -0.28182434576788       -0.12097418717597
C            2.43916422434853        0.59346155903846       -0.75652095269292
C           -2.34451397979813       -0.54210593642627        2.78575347704841
C           -2.63681978296378       -1.09040982197178        4.02019727508679
C           -1.71406722945500       -1.89634988500766        4.65444372028010
C           -0.49347766332670       -2.18965568991168        4.07291320376854
O           -3.16298817429721        0.40715284092373        2.22836510491683
O           -3.35898491107104       -1.42187444238361        0.27836430011663
S           -4.53005772449363        2.74362468304058       -2.62686773031631
S           -2.06503473746428       -2.41723619894755        6.34879381003682
S            5.07069599639967       -0.16432021557800       -0.52226348156075
O            5.14988404272491        1.11325994459879       -1.20689858449674
O            5.10062592975118       -1.33942857840492       -1.71452739676432
C            4.47726726840355       -0.90951241836599       -2.89731855609805
O           -3.62833250944506        3.72496453314803       -3.18656086071501
O           -5.23479330256249        3.45263136662548       -1.27763663486770
C           -4.35884761833635        4.37808843709188       -0.67683131137161
O           -3.50565496715623       -2.57561702703616        6.36406234344035
O           -1.42698477916238       -3.96675496689748        6.19256036894646
C           -2.26004262947373       -4.78851305658301        5.41473347816044
H           -4.93288915454391        0.27874997908608       -1.12521161701715
H           -1.78347598134437        2.80488090034971       -2.32951204756030
H           -3.55982631636524       -0.89090470630602        4.53818692661037
H            0.19392287513791       -2.79820229433659        4.63375449294210
H            3.61005633177740       -1.77937070681945        1.33815785611300
H            2.88056738337124        1.27388146913292       -1.46591093753660
C            1.05810047355507       -4.47246305471880        2.43421891364301
C            1.82690738499559       -5.68719514833101        2.95233582487463
C            0.29632931351328        3.96117761922220       -0.88348992572534
C            0.65557427567652        5.24729305305058       -1.62232837283125
C           -4.50385193563421        0.43025876446132        2.67468721481521
C           -4.64169378099482       -1.91511562365210       -0.04027493634995
H           -4.88785883953455        4.87649889255782        0.12858020817370
H           -4.03304999329986        5.10940501706464       -1.42262594389710
H           -3.47730581486355        3.86404289684576       -0.28166310442244
H           -1.84175635252922       -5.79070129066540        5.39830003531891
H           -2.33011837148874       -4.39111869026923        4.39609689158426
H           -3.26129538803567       -4.80108277850518        5.85333871848949
H            4.69527710717327       -1.62727195560182       -3.68164490603351
H            4.86557998270646        0.07714673372876       -3.17516700697230
H            3.39357167201405       -0.83586407762855       -2.74934510885870
H            1.97971216722861       -3.03291742043300        3.78265964896080
H            2.76191588275369       -3.18645219930769        2.22323775099692
H            0.91596400584013       -4.56585368299466        1.35717296332388
H            0.07310560731236       -4.44419396557757        2.89940565878016
H            2.80902706057556       -5.75635384219828        2.49113599727890
H            1.28274348051852       -6.60069916955393        2.72484635198560
H            1.95555514507114       -5.63952408659091        4.03194791797994
H           -5.06457138279124        1.06214748945521        1.98495567373607
H           -4.59825030258866        0.85084228617969        3.68210273024588
H           -4.92545489286704       -0.57980132093841        2.67480103896686
H           -4.74267194711533       -2.89476141241086        0.42716847086750