230
 energy: -436.751307735387 gnorm: 0.353942261910 xtb: 6.7.1 (edcfbbe)
C           -0.06730000000000        3.97230000000000        3.23810000000000
C            0.57620000000000        2.77850000000000        3.53000000000000
C            1.95860000000000        2.63700000000000        3.19720000000000
C            2.64660000000000        3.79740000000000        2.72560000000000
C            1.90960000000000        4.93410000000000        2.34420000000000
C            0.56200000000000        4.99710000000000        2.56520000000000
C            2.72200000000000        1.44150000000000        3.44600000000000
C            4.11190000000000        1.64780000000000        3.57430000000000
C            4.70170000000000        2.88350000000000        3.17510000000000
N            3.99000000000000        3.90030000000000        2.66390000000000
C            2.26090000000000        0.08720000000000        3.56570000000000
C            3.18230000000000       -0.85010000000000        4.14720000000000
N            4.46050000000000       -0.56900000000000        4.47890000000000
C            4.94580000000000        0.62060000000000        4.09570000000000
C            6.32590000000000        0.84530000000000        4.19760000000000
C            6.88500000000000        2.02330000000000        3.76200000000000
C            6.09030000000000        3.03380000000000        3.27510000000000
C            1.02980000000000       -0.45780000000000        2.99440000000000
C            0.80770000000000       -1.84500000000000        3.12250000000000
C            1.62620000000000       -2.66950000000000        3.84370000000000
C            2.80450000000000       -2.18810000000000        4.34280000000000
O           -0.15780000000000        1.78070000000000        4.13840000000000
S           -0.46060000000000        6.34970000000000        1.88290000000000
S            1.11880000000000       -4.39380000000000        4.11710000000000
S            8.67890000000000        2.24990000000000        3.78740000000000
C           -1.98330000000000       -2.29560000000000        3.87340000000000
C           -2.42530000000000       -1.08210000000000        3.34860000000000
C           -3.33850000000000       -1.10030000000000        2.22750000000000
C           -3.52110000000000       -2.35140000000000        1.55970000000000
C           -2.89450000000000       -3.51000000000000        2.05130000000000
C           -2.18160000000000       -3.49060000000000        3.21280000000000
C           -4.24780000000000       -0.03590000000000        1.86800000000000
C           -5.29310000000000       -0.36250000000000        0.98440000000000
C           -5.27300000000000       -1.59560000000000        0.27380000000000
N           -4.34880000000000       -2.54110000000000        0.50600000000000
C           -4.35500000000000        1.25280000000000        2.47450000000000
C           -5.62410000000000        1.91380000000000        2.46740000000000
N           -6.62540000000000        1.57290000000000        1.63430000000000
C           -6.41830000000000        0.50590000000000        0.84350000000000
C           -7.43980000000000        0.14160000000000       -0.04290000000000
C           -7.38700000000000       -1.03450000000000       -0.75010000000000
C           -6.31730000000000       -1.88890000000000       -0.61300000000000
C           -3.23140000000000        1.97810000000000        3.03210000000000
C           -3.52700000000000        3.02400000000000        3.93510000000000
C           -4.81000000000000        3.47330000000000        4.13080000000000
C           -5.83590000000000        2.98360000000000        3.35370000000000
O           -1.86040000000000        0.03470000000000        3.94300000000000
S           -1.50180000000000       -5.04770000000000        3.86530000000000
S           -5.17520000000000        4.74700000000000        5.37340000000000
S           -8.79150000000000       -1.49290000000000       -1.79380000000000
B           -0.98590000000000        0.99320000000000        3.20320000000000
O            8.70110000000000        3.74240000000000        4.02810000000000
O            8.92110000000000        1.64140000000000        5.33520000000000
C            8.60570000000000        2.56170000000000        6.32300000000000
O            1.00850000000000       -4.80530000000000        2.48110000000000
C            2.25700000000000       -4.93410000000000        1.88630000000000
O            2.47360000000000       -4.96470000000000        4.49150000000000
O           -1.42430000000000       -4.64740000000000        5.32810000000000
O           -2.97180000000000       -5.88540000000000        3.80830000000000
C           -3.85170000000000       -5.49140000000000        4.80510000000000
O           -9.80260000000000       -0.51540000000000       -1.24640000000000
O           -9.22250000000000       -2.88720000000000       -0.95970000000000
C           -9.57400000000000       -2.64680000000000        0.36420000000000
O           -5.04700000000000        5.93630000000000        4.44790000000000
O           -3.65680000000000        4.72670000000000        6.11630000000000
C           -2.86380000000000        5.80010000000000        5.73440000000000
O           -1.05570000000000        5.51550000000000        0.76520000000000
O           -1.75020000000000        6.24280000000000        2.96040000000000
C           -2.90140000000000        6.75440000000000        2.36150000000000
N            0.04450000000000        0.25370000000000        2.31030000000000
C            0.46490000000000       -0.11730000000000       -0.06780000000000
C           -0.51440000000000       -0.23210000000000        1.08090000000000
N           -1.97020000000000        1.88740000000000        2.42450000000000
C           -2.62560000000000        2.49020000000000        0.10860000000000
C           -1.62660000000000        2.63720000000000        1.24070000000000
H           -3.63810000000000       -6.07450000000000        5.70490000000000
H           -4.87850000000000       -5.67320000000000        4.47560000000000
H           -3.69530000000000       -4.42770000000000        5.00270000000000
H            2.84550000000000       -5.65290000000000        2.46570000000000
H            2.76280000000000       -3.96500000000000        1.87850000000000
H            2.12910000000000       -5.29560000000000        0.86250000000000
H            8.96000000000000        2.16460000000000        7.27770000000000
H            7.52340000000000        2.71690000000000        6.35120000000000
H            9.11460000000000        3.50610000000000        6.10200000000000
H            0.03690000000000       -0.46490000000000       -1.00980000000000
H            1.36170000000000       -0.70620000000000        0.12870000000000
H            0.78760000000000        0.91470000000000       -0.20680000000000
H           -0.83140000000000       -1.26930000000000        1.21190000000000
H           -1.43760000000000        0.30970000000000        0.87780000000000
H           -2.33590000000000        3.08000000000000       -0.76310000000000
H           -3.61420000000000        2.83160000000000        0.41840000000000
H           -2.73420000000000        1.45460000000000       -0.21220000000000
H           -1.57340000000000        3.69450000000000        1.51650000000000
H           -0.61520000000000        2.36270000000000        0.93030000000000
H           -1.95950000000000        5.81160000000000        6.34500000000000
H           -3.42560000000000        6.72820000000000        5.87280000000000
H           -2.60420000000000        5.68420000000000        4.68170000000000
H          -10.12870000000000       -3.51090000000000        0.74000000000000
H          -10.20540000000000       -1.75290000000000        0.41310000000000
H           -8.66960000000000       -2.51220000000000        0.96420000000000
H           -3.75470000000000        6.60740000000000        3.03090000000000
H           -3.07610000000000        6.21920000000000        1.42230000000000
H           -2.76610000000000        7.82180000000000        2.16330000000000
H           -8.32310000000000        0.75350000000000       -0.10790000000000
H           -6.31600000000000       -2.83520000000000       -1.12420000000000
H           -6.81690000000000        3.42030000000000        3.41830000000000
H           -3.07630000000000       -4.44660000000000        1.55400000000000
H            3.48950000000000       -2.86720000000000        4.81950000000000
H            6.95270000000000        0.07420000000000        4.60880000000000
H            6.54180000000000        3.96700000000000        2.98640000000000
H            2.42290000000000        5.75770000000000        1.88030000000000
H           -1.41660000000000       -2.29450000000000        4.78660000000000
H           -0.06650000000000       -2.27920000000000        2.68020000000000
H           -1.10760000000000        4.07660000000000        3.47220000000000
H           -2.73090000000000        3.52420000000000        4.44440000000000
C            0.45910000000000        3.31800000000000        9.92450000000000
C            0.97550000000000        2.02770000000000        9.97870000000000
C            2.31800000000000        1.79060000000000        9.52950000000000
C            3.08340000000000        2.92580000000000        9.11650000000000
C            2.45780000000000        4.17430000000000        8.97600000000000
C            1.16050000000000        4.35670000000000        9.34460000000000
C            2.99920000000000        0.52170000000000        9.62330000000000
C            4.40990000000000        0.60630000000000        9.64580000000000
C            5.07160000000000        1.80830000000000        9.26330000000000
N            4.41350000000000        2.91550000000000        8.89480000000000
C            2.44640000000000       -0.80080000000000        9.71080000000000
C            3.33240000000000       -1.84040000000000       10.15530000000000
N            4.64880000000000       -1.67700000000000       10.40570000000000
C            5.19680000000000       -0.50590000000000       10.05560000000000
C            6.59340000000000       -0.38530000000000       10.09580000000000
C            7.21450000000000        0.77490000000000        9.69730000000000
C            6.46970000000000        1.84930000000000        9.27720000000000
C            1.15150000000000       -1.21660000000000        9.18110000000000
C            0.84050000000000       -2.59120000000000        9.20370000000000
C            1.65500000000000       -3.53270000000000        9.77050000000000
C            2.88140000000000       -3.16630000000000       10.24970000000000
O            0.13060000000000        1.03840000000000       10.44970000000000
S            0.33700000000000        5.92070000000000        8.97660000000000
S            1.13410000000000       -5.27600000000000        9.83260000000000
S            9.01940000000000        0.90820000000000        9.73330000000000
C           -2.03990000000000       -2.75530000000000        9.81330000000000
C           -2.36900000000000       -1.50010000000000        9.30650000000000
C           -3.15140000000000       -1.41130000000000        8.09290000000000
C           -3.32490000000000       -2.62110000000000        7.34970000000000
C           -2.79800000000000       -3.82860000000000        7.84390000000000
C           -2.20850000000000       -3.90350000000000        9.06970000000000
C           -3.89390000000000       -0.25440000000000        7.64440000000000
C           -4.80180000000000       -0.45760000000000        6.58690000000000
C           -4.77940000000000       -1.67130000000000        5.84210000000000
N           -4.01750000000000       -2.71700000000000        6.19270000000000
C           -3.94650000000000        1.03970000000000        8.24890000000000
C           -5.07540000000000        1.87730000000000        7.97860000000000
N           -5.95460000000000        1.65180000000000        6.98460000000000
C           -5.77970000000000        0.53160000000000        6.26590000000000
C           -6.65450000000000        0.29550000000000        5.19660000000000
C           -6.56840000000000       -0.84810000000000        4.44090000000000
C           -5.64200000000000       -1.81620000000000        4.74730000000000
C           -2.86800000000000        1.61580000000000        9.04060000000000
C           -3.18140000000000        2.72620000000000        9.86520000000000
C           -4.35610000000000        3.41680000000000        9.70670000000000
C           -5.26430000000000        3.03530000000000        8.74980000000000
O           -1.79090000000000       -0.45830000000000       10.01270000000000
S           -1.60230000000000       -5.50190000000000        9.69090000000000
S           -4.64380000000000        4.90130000000000       10.69430000000000
S           -7.69950000000000       -1.05530000000000        3.04440000000000
B           -0.73340000000000        0.41180000000000        9.42570000000000
O            9.14190000000000        2.32710000000000        9.22340000000000
O            9.17370000000000        1.13560000000000       11.39310000000000
C            8.70240000000000        2.37350000000000       11.80860000000000
O            0.76590000000000       -5.39950000000000        8.19090000000000
C            1.89830000000000       -5.35410000000000        7.38930000000000
O            2.50920000000000       -5.90920000000000        9.86540000000000
O           -1.32300000000000       -5.07990000000000       11.12130000000000
O           -3.12330000000000       -6.22000000000000        9.85180000000000
C           -3.85610000000000       -5.68170000000000       10.90180000000000
O           -8.99590000000000       -0.67070000000000        3.72000000000000
O           -7.79010000000000       -2.73230000000000        3.07420000000000
C           -8.52930000000000       -3.19270000000000        4.15730000000000
O           -5.64190000000000        5.57890000000000        9.78200000000000
O           -3.21210000000000        5.67150000000000       10.25510000000000
C           -3.24330000000000        6.09740000000000        8.93580000000000
O            1.53220000000000        6.68960000000000        8.45500000000000
O           -0.35430000000000        5.39590000000000        7.52680000000000
C            0.58950000000000        5.23130000000000        6.51530000000000
N            0.24230000000000       -0.38360000000000        8.53280000000000
C            0.60890000000000       -0.35510000000000        6.13440000000000
C           -0.32700000000000       -0.70360000000000        7.25930000000000
N           -1.53800000000000        1.44470000000000        8.62780000000000
C           -1.67440000000000        2.32460000000000        6.35360000000000
C           -0.92790000000000        2.30930000000000        7.66150000000000
H           -4.77880000000000       -6.25560000000000       11.02180000000000
H           -4.09440000000000       -4.63660000000000       10.68740000000000
H           -3.25450000000000       -5.74540000000000       11.81450000000000
H            2.58320000000000       -6.14820000000000        7.70390000000000
H            2.38750000000000       -4.38160000000000        7.48710000000000
H            1.59680000000000       -5.50840000000000        6.35100000000000
H            8.95170000000000        2.50900000000000       12.86460000000000
H            7.61810000000000        2.41910000000000       11.67780000000000
H            9.18550000000000        3.15210000000000       11.20930000000000
H            0.14730000000000       -0.53860000000000        5.16520000000000
H            1.52750000000000       -0.93780000000000        6.20340000000000
H            0.89630000000000        0.69510000000000        6.15670000000000
H           -0.58620000000000       -1.76510000000000        7.22940000000000
H           -1.27650000000000       -0.17450000000000        7.16500000000000
H           -1.18870000000000        2.98890000000000        5.64010000000000
H           -2.69920000000000        2.66800000000000        6.50170000000000
H           -1.72460000000000        1.33860000000000        5.89100000000000
H           -0.92080000000000        3.32260000000000        8.07500000000000
H            0.11740000000000        2.01770000000000        7.53610000000000
H           -2.31860000000000        6.63460000000000        8.70880000000000
H           -4.10470000000000        6.76030000000000        8.80410000000000
H           -3.34360000000000        5.22960000000000        8.27820000000000
H           -8.60870000000000       -4.28180000000000        4.10000000000000
H           -9.52670000000000       -2.74320000000000        4.11720000000000
H           -8.03980000000000       -2.90560000000000        5.09180000000000
H            0.07830000000000        5.05430000000000        5.56720000000000
H            1.23480000000000        4.37890000000000        6.73910000000000
H            1.19120000000000        6.14210000000000        6.44160000000000
H           -7.42520000000000        1.01420000000000        4.98100000000000
H           -5.61510000000000       -2.72460000000000        4.17320000000000
H           -6.12410000000000        3.65560000000000        8.56820000000000
H           -2.88590000000000       -4.71880000000000        7.24950000000000
H            3.55820000000000       -3.92920000000000       10.59440000000000
H            7.17880000000000       -1.22210000000000       10.43320000000000
H            6.96980000000000        2.75860000000000        8.99540000000000
H            3.01930000000000        5.00840000000000        8.59150000000000
H           -1.52500000000000       -2.81340000000000       10.75650000000000
H           -0.07130000000000       -2.92830000000000        8.75380000000000
H           -0.53870000000000        3.49150000000000       10.27690000000000
H           -2.45100000000000        3.09700000000000       10.56000000000000
230
 energy: -436.835564258574 gnorm: 0.218426027959 xtb: 6.7.1 (edcfbbe)
C           -0.06736862340460        3.96771552521558        3.24711118735545
C            0.57153912471814        2.76749324237339        3.52082035916738
C            1.94788325755778        2.63126525811367        3.20396149854050
C            2.64314421434398        3.79452072329359        2.73022278880427
C            1.91214043718470        4.93986567741525        2.34329783391354
C            0.57004477941671        5.00647293452019        2.58856003395373
C            2.71311496200544        1.44002341232088        3.44400260820302
C            4.10397804266658        1.64632054475140        3.57116732128051
C            4.69380756734929        2.88461718279391        3.17481708567546
N            3.97783957898136        3.89148781938770        2.66960698633875
C            2.24852826052629        0.08611261810024        3.54642254564756
C            3.17703482469947       -0.84597707593814        4.13804771426310
N            4.44472782947641       -0.56114505284529        4.47127100664233
C            4.93894796991151        0.61788162488341        4.09358371375692
C            6.32556728500639        0.83674228665171        4.19586000702444
C            6.87918940892188        2.01871017468178        3.75524187723170
C            6.08831315264273        3.03699519725009        3.26902040374246
C            1.03379607371535       -0.45629134183698        2.97560869345399
C            0.81334159550656       -1.83655834373287        3.10880936281457
C            1.63493177153588       -2.66436169752329        3.84178540241047
C            2.80956059462309       -2.19015697253667        4.34705948136554
O           -0.14486904746719        1.78078317971516        4.12800248677862
S           -0.46566746161562        6.32103035364890        1.86712459056576
S            1.14846665736565       -4.39286633920454        4.11323213208013
S            8.67786817413150        2.27085848285361        3.79812149267946
C           -1.98048321190020       -2.28740209266076        3.87248603413056
C           -2.40923745051996       -1.07083685469064        3.34291283447799
C           -3.33741626149242       -1.08989155641913        2.24225526917769
C           -3.52867419549234       -2.34623287139293        1.56925190511513
C           -2.89324604126633       -3.51253843769313        2.04258380988351
C           -2.18955850335504       -3.48751096316842        3.20947367428874
C           -4.24256650190558       -0.03151044841310        1.87148574962358
C           -5.29113481892381       -0.36303695800575        0.99029228025635
C           -5.27203145982717       -1.59885775779661        0.28147218167464
N           -4.35223653199913       -2.53319235543311        0.52442252907054
C           -4.34171213301565        1.26252522195057        2.46790372134401
C           -5.62263281311597        1.90653669196824        2.47285660248544
N           -6.61273162453423        1.55996379225782        1.64328634416637
C           -6.41728258155827        0.50391250164984        0.84996857685339
C           -7.44182150622768        0.14532642490482       -0.04155082747075
C           -7.37903268220297       -1.03029637445538       -0.75541528248398
C           -6.31228692586438       -1.89322744133175       -0.61929506135723
C           -3.23828947303420        2.00196555908353        2.99727274381521
C           -3.52264420361781        3.01750193301387        3.91311047869995
C           -4.81952708592345        3.44353314981887        4.14067646890160
C           -5.84532544967124        2.97569917092979        3.36222656480152
O           -1.86642044677935        0.03182699509894        3.94307336299530
S           -1.51660445275371       -5.03914652013065        3.87999437420865
S           -5.17172261968124        4.75466099858949        5.35468953802795
S           -8.81330669049307       -1.48373766131223       -1.77840396457874
B           -0.98474559055451        0.99303414484957        3.20927066090631
O            8.72633375338355        3.74469039118061        3.99320000796598
O            8.92406009558933        1.63678689966418        5.32888762083097
C            8.60613808755407        2.56062666908054        6.32571539795408
O            1.00097263196802       -4.79838559623916        2.48509271580853
C            2.25560038250104       -4.93502046491545        1.88033683610694
O            2.46508608109715       -4.97544310086865        4.50126521130570
O           -1.38935697499550       -4.66041733832459        5.32042778026569
O           -2.96504431028329       -5.88745316571255        3.80051724300653
C           -3.85736552466760       -5.49715645382652        4.80424680628692
O           -9.81001450398530       -0.50046363062877       -1.28253329926522
O           -9.21130494802462       -2.89163908574363       -0.96091086990283
C           -9.57509247384124       -2.65438167888481        0.36764722039652
O           -5.08216166773483        5.94191704110702        4.45770962396636
O           -3.67430349685124        4.73171545116116        6.12913618031392
C           -2.86363633892134        5.80489886577944        5.73979097676350
O           -1.03464745005299        5.53214781838604        0.73172153714692
O           -1.73690435788461        6.25490510891742        2.96490069766885
C           -2.90316236451917        6.76019198163872        2.36109532164934
N            0.04740721951739        0.26894028792179        2.30728704061283
C            0.47471269584161       -0.12046447482674       -0.07075803191459
C           -0.50766243907982       -0.25183103198535        1.08034705465166
N           -1.96469993599332        1.87051349926423        2.42497277424067
C           -2.63526590348745        2.48859048464229        0.10597698127050
C           -1.63682607931294        2.63481898571510        1.24471503850017
H           -3.65218604793580       -6.07603998842274        5.70792924243311
H           -4.87739094914361       -5.68123135157727        4.46749912346398
H           -3.72002069229179       -4.43395754759085        5.01746113144388
H            2.85265400427691       -5.64865121564140        2.45596538122183
H            2.76968171413809       -3.96913168859181        1.86921532211820
H            2.11827831876519       -5.29714110975004        0.86253077709349
H            8.96382356388671        2.16724633119456        7.27308413579844
H            7.52372820619760        2.72123697526219        6.36028904962500
H            9.10519349572269        3.51031186827807        6.11257642331520
H            0.03353162802807       -0.46677837588674       -1.00385971535747
H            1.36719332908191       -0.71049188786934        0.12841740731081
H            0.78476443860455        0.91539711876759       -0.20404693487046
H           -0.82331164148565       -1.29450623873243        1.19558295932046
H           -1.42172858701492        0.30254318000714        0.87408930559839
H           -2.32810378696453        3.08301028301933       -0.75279011804000
H           -3.61889600569225        2.83556866587745        0.41744602005860
H           -2.73369032390186        1.45225562827108       -0.21531690182296
H           -1.58719243010377        3.70054926647778        1.50023957971988
H           -0.62741503536994        2.35596560021885        0.93441028104758
H           -1.96898134288458        5.80658171939483        6.35402159338528
H           -3.41008832967431        6.74012687135784        5.87143975934040
H           -2.59374266207575        5.69745906721537        4.69038685875356
H          -10.13154369912456       -3.51584564491389        0.73315905311711
H          -10.20479881241707       -1.75911101543829        0.41977779958261
H           -8.67723607151501       -2.51430520295353        0.97538753074042
H           -3.74945716261271        6.60763596702870        3.03395515950387
H           -3.08392897785862        6.22590837634005        1.42289181126690
H           -2.78008654555509        7.82692400507054        2.15968914126184
H           -8.32474056098092        0.75975024680808       -0.10931988746255
H           -6.30898056903926       -2.84149251890173       -1.12936536719283
H           -6.82346331107470        3.42184545363946        3.41248350883402
H           -3.07337168773313       -4.44702963274644        1.53918970445394
H            3.49656576848688       -2.86713543080351        4.82642408132757
H            6.95210639769285        0.06456281232265        4.60987004612911
H            6.54132882256170        3.97141934625556        2.98119973347066
H            2.43266596426801        5.75992776506097        1.87936731193605
H           -1.41390969556661       -2.29014840482357        4.78913300066918
H           -0.06289016907473       -2.27457649656571        2.66886837730265
H           -1.10754266801967        4.07536193527743        3.48769133459415
H           -2.72396181524120        3.51469104223244        4.42716717428963
C            0.45662576043633        3.31203471539729        9.93093674275211
C            0.96489804983269        2.01734135459426        9.97826572776840
C            2.30423239932009        1.78228755899982        9.54098409686157
C            3.07895394709437        2.91898786083085        9.12379152060275
C            2.46118708843099        4.17474087082640        8.97153588470569
C            1.16891992634159        4.35680144117153        9.35772944305145
C            2.98918231545774        0.51976375379088        9.62472546105377
C            4.40093963185954        0.60438132435710        9.64538838052492
C            5.06385746904314        1.80853754409157        9.26759460661688
N            4.40029872438788        2.90603773596897        8.90649704372271
C            2.43384869656945       -0.80090132315321        9.69507316138298
C            3.32543062013329       -1.83574095461873       10.15369824541997
N            4.63285434387373       -1.66973197584431       10.39941787696953
C            5.18951026767035       -0.51056156497763       10.05134010764987
C            6.59293789656509       -0.39442552217263       10.09563192583196
C            7.20908115056472        0.77115251109170        9.69517438968333
C            6.46758752126607        1.85321266349769        9.27583626667221
C            1.16103840046747       -1.21716648378539        9.15696127288340
C            0.84632158512734       -2.58425960354177        9.19222197287327
C            1.65920251270634       -3.52948020258051        9.77960001459213
C            2.88512453528893       -3.17038466445352       10.25727340958107
O            0.13396066551893        1.04432669284466       10.45702660413390
S            0.36180013028724        5.93102141642280        8.97004832749244
S            1.16221231816043       -5.28345414841198        9.82805413706318
S            9.01946434617727        0.92807229120471        9.74075694688093
C           -2.03487388092371       -2.74738315414550        9.81213563387169
C           -2.34904077193537       -1.48886841653398        9.30441653905757
C           -3.14696785847690       -1.40032724902897        8.10751556145957
C           -3.32874678263846       -2.61528541413651        7.35874121750357
C           -2.79957520883276       -3.83315026082977        7.83642780316812
C           -2.22053832724259       -3.90147621542177        9.06759890334663
C           -3.88489267023095       -0.24883139797854        7.64707693685274
C           -4.79827882260104       -0.45524777997048        6.59044504799449
C           -4.77990780857612       -1.67143237956128        5.84989387224001
N           -4.01799071460080       -2.70337582166865        6.20921961718347
C           -3.92905757116929        1.04842301229876        8.24672614472458
C           -5.07523539384754        1.87136849177610        7.98725990869717