116
 energy: -22.928061455056 gnorm: 0.329736929581 xtb: 6.6.1 (8d0f1dd)
C           -3.31122850772930        0.79849766164622       -0.92477639677520
C           -2.44380812530352       -0.12270372891954       -0.27661132624697
C           -1.41337090092821        0.39579727573559        0.56335275196199
C           -0.89266158675590        1.65801491088749        0.27377586709581
C           -1.72665675402493        2.51431363229076       -0.49448366572522
C           -2.95444148494349        2.13954154133227       -1.01494489940871
C           -0.74098268209890       -0.43411532818871        1.49825021926784
C            0.56872586496315        0.03782116815119        1.86248088067890
C            1.03782416582094        1.29402317993033        1.50887470833621
N            0.31238977034758        2.07067427098208        0.65193736800696
C           -1.29695700510141       -1.39996043042223        2.41574187746061
C           -0.38243517664656       -2.18060797534842        3.13232615520648
N            0.91308504082021       -1.90366887689689        3.30325166013478
C            1.37712470144904       -0.74872102533751        2.81811050966982
C            2.52149331701875       -0.17739833758153        3.39379298866852
C            2.95849061756259        1.02681208890480        2.95105897606587
C            2.24288949469137        1.78498308775960        2.03503020483770
C           -2.74860936222260       -1.74497937691422        2.38401158947411
C           -3.09416315450955       -2.91614440870436        3.00571134491758
C           -2.16786021984049       -3.77788778654213        3.63251872101904
C           -0.85708937311598       -3.40495313382985        3.68547234358092
O           -3.71994433332149       -0.94984598373544        1.67726658385724
O           -2.55702603277562       -1.47241711578389       -0.57241635275616
C           -3.84297843593025        3.13357444054366       -1.60938954875544
C           -2.68769581069131       -5.03867041417370        4.30484659386931
H           -1.39666850744143        3.51251503834900       -0.76806311868865
H           -4.27662633836220        0.55105838579656       -1.33106614114542
H            2.66329581305412        2.73912661909249        1.72562431984580
H            3.05775395548473       -0.69369546277216        4.16536137542516
H           -0.24710966264510       -4.12034095424229        4.22946223699121
H           -4.11477991332403       -3.04712728052358        3.03244694615357
O           -4.21824883374556        4.03433712717988       -0.87713382485991
O           -4.44510595673734        2.90643496899600       -2.81853501752979
C           -5.44216520282800        3.83300025693726       -3.02488532025093
C            4.23586651889298        1.50004220933226        3.59165660008449
O            5.05927614697201        0.66079890002952        3.91714215179376
O            4.47001334453535        2.86385149488593        3.72605651435371
C            5.79457498613219        3.08584475587818        4.15829123132174
O           -3.82227255313510       -5.27347675879771        4.16636005494405
O           -1.85023202017753       -5.79767454267276        5.06656077253571
C           -2.55119635829503       -6.86252441382958        5.62930343183426
C           -5.07197156564436       -1.42399175670916        1.58830531863830
C           -1.33089900128490       -2.23622472573986       -0.99264499351172
H           -2.54510546830388       -7.76426885143998        4.99136022291012
H           -3.57194749219491       -6.44405511486021        5.74196173723541
H           -2.09133598235598       -7.02043774843818        6.64022264233588
H            5.72707967266424        3.46798026205549        5.10135971236643
H            6.34060091246885        3.78468702308830        3.50069950143490
H            6.17933064298187        2.03010500085905        4.19342358084693
H           -0.91862729772622       -2.57650129080332       -0.01361370304871
H           -0.49769766914251       -1.60651221708571       -1.34094446550576
H           -1.52632419730509       -2.94569707152159       -1.75361447637286
H           -5.11788846557077       -2.41810833635233        1.17520213188926
H           -5.67929807973498       -0.69619639428435        1.04301666067831
H           -5.57598832326623       -1.42383358739762        2.57928294206544
H           -6.13050215934830        3.76035386975488       -2.23272855695873
H           -5.86615610071888        3.45938329385866       -4.02668959924245
H           -5.13479557532099        4.87790991548477       -2.98314551356402
C           -1.38192942069774        3.73616555005018        2.91232598411686
C           -1.84821468128685        2.59982427735607        3.49755545445181
C           -1.05946531454833        2.05730632010638        4.60922730982276
C            0.19893954712228        2.69376791964407        4.86302140881997
C            0.50425395911860        3.94630308659851        4.28768785650746
C           -0.26031777722226        4.46998310053134        3.25072669343212
C           -1.20488993561782        0.74454293276906        5.14851520323437
C           -0.06287609782692        0.02744069315890        5.60930570802864
C            1.19208754369866        0.71421540266195        5.78882868583885
N            1.19428660993148        2.06344359410476        5.62744624321596
C           -2.41361422770794        0.07928500213936        5.25249410304426
C           -2.45851584031083       -1.32662100968547        5.60237876023992
N           -1.29466212405906       -1.98318595734370        5.89916817085159
C           -0.14475655767527       -1.32117560077092        5.98824682881008
C            0.97209270935794       -1.98958449505532        6.53157704134458
C            2.21982707914082       -1.36973967291181        6.68703967237737
C            2.30561929262884       -0.09745313075593        6.26436900324455
C           -3.73018485967715        0.71367583494582        5.25810242262992
C           -4.89964478833448       -0.06184623426677        5.21204641615509
C           -4.82617965800088       -1.39228978090841        5.46901303780036
C           -3.67144193418464       -1.98914944386360        5.67265433266067
O           -3.75568638935321        2.07705011038914        5.52067969627343
O           -2.94192434743730        1.91263938797883        3.01658762327703
C            0.21273512614467        5.50086066357994        2.34765104514621
C           -6.06660304520411       -2.17604633098929        5.80641622556876
H            1.41756699010566        4.38133362238595        4.66974005703471
H           -1.82880610647429        4.11982501512100        2.06992133318584
H            3.26888037378556        0.32655662585251        6.31721410015598
H            0.87146188387207       -3.08471526305024        6.57830423410869
H           -3.67716811065157       -3.05999292755990        5.83019634570050
H           -5.77379677507622        0.43595144608221        4.71017130754348
O            1.34459852619901        5.82615848916894        2.44941456579099
O           -0.74718748219123        6.07961784856304        1.59848183464284
C           -0.21473095568964        7.24015934882472        1.05753806029483
C            3.53228080814219       -2.00967610361154        7.02506769044485
O            3.64093082622715       -3.14437803815732        7.50071391725347
O            4.56565258381079       -1.22937033368332        6.69086985080897
C            5.72579357310716       -1.80692399125161        7.22246151275881
O           -7.04801223588612       -1.95726935745904        5.14194115322235
O           -6.01514389321278       -2.93743591896022        6.94765316328794
C           -7.21292732384718       -3.62681918543340        7.15115816329978
C           -4.95459780685163        2.65960679932188        5.86868674392943
C           -3.68284113682406        2.59129188358641        2.05479246020704
H           -7.43119628931628       -4.22607794725959        6.20622607140901
H           -8.06548455146707       -2.91765848248592        7.29781126410398
H           -7.07314693247270       -4.33087306029711        7.91223421050944
H            6.57332189837178       -1.29353136199234        6.78341268688262
H            5.74663761932316       -2.84282155125561        6.88089468184451
H            5.69426191474290       -1.72781984964892        8.29460302186842
H           -4.10481209541493        3.44288266176275        2.60483747673152
H           -4.49244774344916        1.87419893016926        1.82433103764650
H           -3.18901540870812        2.85154642679373        1.06781919454921
H           -5.55414326821421        2.76698137191684        4.93950725322359
H           -4.78658370641210        3.62090640967288        6.25983200635257
H           -5.43485580473958        1.97242995129449        6.65265772412460
H            0.89164886030839        7.38838561720231        1.13776105146914
H           -0.62894889903848        8.04195665205089        1.64837664327952
H           -0.59282546386754        7.45699159724320        0.03719083132488
116
 energy: -22.738743240906 gnorm: 0.463223931111 xtb: 6.6.1 (8d0f1dd)
C           -2.88646790896673        0.52372272694951       -1.26561729757534
C           -2.35866009546792       -0.29489659625281       -0.24785053362301
C           -1.62586084206016        0.40132658676697        0.72107359960178
C           -1.16757803461712        1.76777536744980        0.49505517487881
C           -1.82883371919339        2.58003725439842       -0.45734341472263
C           -2.76700189790173        1.96028024764548       -1.29458451175135
C           -0.91410457951656       -0.25367952141466        1.82749232830182
C            0.33330101230073        0.34331913306460        2.17647401235745
C            0.66376721185428        1.68661287087339        1.83448508466019
N           -0.13461831054706        2.45920603662572        1.06230526338008
C           -1.25969977025530       -1.49304568347347        2.40013171272931
C           -0.23545861365743       -2.17681819041837        3.15914091171980
N            1.03200300726677       -1.71416766721382        3.30826080684807
C            1.30668168531014       -0.54705368270760        2.74642135106562
C            2.55384520103082        0.06665575220571        3.04623741200145
C            2.83281600874184        1.41705045984753        3.02614838239039
C            1.88407551516630        2.23300021430535        2.35601007938675
C           -2.61373322390108       -1.84482139401244        2.41828760148735
C           -2.77365891298464       -3.25013677174860        2.74989355721648
C           -1.75396002450423       -4.01614967242669        3.23736953941135
C           -0.55693951337963       -3.43573400089401        3.56161366314631
O           -3.69192303812134       -0.99698192654350        2.23253881357595
O           -2.72118240418547       -1.69683598731423       -0.40274999782258
C           -3.25030685585007        2.86224090986260       -2.40948732598705
C           -2.17642597813548       -5.26182575216097        3.91953328788936
H           -1.26841785493251        3.49085741838578       -0.43105802063028
H           -3.66408337324215       -0.08221838301361       -1.67148110194822
H            2.04284263266852        3.28358388617031        2.24812844903213
H            3.17281084646710       -0.43884711308319        3.72343569734713
H            0.34053787809319       -4.01876153408149        3.95711487293982
H           -3.79348514861630       -3.54552291553577        2.73611161711071
O           -2.61353301339863        3.93038290433339       -2.64426519567399
O           -4.23273635878502        2.40538759665848       -3.21429284263911
C           -4.58906703327652        3.41896994511926       -4.15405976933422
C            3.98732598917258        1.77005849984330        3.88852245994322
O            4.55524285263200        0.86087938419209        4.58970770777827
O            4.35474161518385        3.05504674022020        3.73007851662946
C            5.62228571672417        3.29910216625354        4.20056294896341
O           -3.31017331231413       -5.38451519354248        4.38102398826202
O           -1.24555653522489       -6.22879375644566        4.01402511474893
C           -1.76074153722710       -7.46953815403090        4.62339293730866
C           -5.08943638504014       -1.55699348180733        1.96156092995757
C           -1.66736960385086       -2.59248688929253       -0.76457619993476
H           -2.73396190096247       -7.39933881671634        4.68499532182141
H           -1.35378858286332       -7.78722384274570        5.61844420980383
H           -1.61251693867601       -8.27042297898130        3.89387306192147
H            5.95505078724283        2.84788289193673        5.14202704800287
H            5.68471437551437        4.36921132552214        4.43724046846995
H            6.46555592152410        3.12481037488754        3.53400848398258
H           -1.77238936144879       -2.39536486261678       -1.95019823404877
H           -1.95608548998460       -3.59677829349385       -0.39758309262956
H           -0.80020673931614       -2.05282421771688       -0.73185957733858
H           -4.85740041574470       -2.09498372106882        0.97085057455306
H           -5.75466359783234       -0.76231472745475        1.52996603513267
H           -5.50545944621779       -2.09713294801318        2.77645336527260
H           -4.64779476042858        4.36524213674220       -3.57948785999273
H           -5.57393964839612        3.40202942508302       -4.56078769751589
H           -3.60433370929421        3.71596665645168       -4.59313226406030
C           -1.73538000864433        3.45934911642750        3.20845617248144
C           -1.85991264460776        2.22000701196603        3.71099139227702
C           -0.84374669501371        1.91020150171560        4.63011872762842
C            0.39939203213776        2.55775829597169        4.72331708048543
C            0.49968536418721        3.73470702508849        4.09457335940028
C           -0.51905156554675        4.21308134327239        3.30381542253254
C           -1.18378626975792        0.91208721570092        5.61347338178432
C           -0.07017234781284        0.12965063971003        5.98694911504392
C            1.22003683328356        0.69046401540328        5.75146880841566
N            1.40275603266672        2.05114983693292        5.56835019842936
C           -2.46645856657335        0.37625030639704        5.84821446292076
C           -2.46296049812266       -1.04334059876437        6.06235540058451
N           -1.39716383665082       -1.75621348679989        6.56099197992669
C           -0.21847719417249       -1.13777607692266        6.57268846938876
C            0.98109451037376       -1.74158470199870        7.04294793328334
C            2.25156060412268       -1.31492095871388        6.86123955115240
C            2.37606018667471       -0.08413941316211        6.24928052063583
C           -3.64240829544978        1.22663359538001        5.91005375731825
C           -4.85308749207616        0.56033738682331        6.08477976296633
C           -4.96324165531455       -0.87808521231906        6.04029845378333
C           -3.75315946471027       -1.62168023617904        5.91067948805042
O           -3.54209763156575        2.62660687882526        6.01896408863899
O           -2.81149849045369        1.37232749566891        3.29139623101647
C           -0.44960110125508        5.37270117432160        2.50207629741745
C           -6.27500082974978       -1.48584213688857        5.91832799075130
H            1.50005337181951        4.25575603842843        3.99419474483693
H           -2.46450014014112        3.72700368739582        2.52106779499141
H            3.38083449169983        0.21829033721387        5.81950870999732
H            0.88290042644466       -2.56036622479993        7.69382517587220
H           -3.87671934085129       -2.70684583880499        6.12400877643313
H           -5.88558405231169        0.91590199910727        5.92410205437780
O            0.33827791851016        6.25157819753561        2.98881249939816
O           -1.01447541124982        5.48898938269496        1.27759729546951
C           -0.78751239017716        6.88695569376686        0.90077339808012
C            3.37305489108170       -2.21223721896301        6.91197296981841
O            3.53635188588316       -3.11921711993505        7.74191294003931
O            4.40353917492826       -1.79170937601542        6.05883956882055
C            5.40811733904277       -2.63411076670829        6.28005291320624
O           -7.20300843571187       -0.78892482163459        6.26428796138842
O           -6.36582269247649       -2.76630764133403        5.58594863221118
C           -7.69765289859186       -3.24972024177271        5.80854711886389
C           -4.61665583993614        3.36773974115397        6.61231333361998
C           -3.97807963744708        2.00585821030182        3.00756420438239
H           -7.50079120658018       -4.34962662308396        6.13483054746519
H           -8.25141505097123       -3.20361961079967        4.86144294802846
H           -8.17834145546985       -2.66284129611588        6.53801468796125
H            5.36859188035022       -3.00746950984420        7.41339406244777
H            6.30331087954479       -1.95451653866767        6.29546487900706
H            5.48856645131069       -3.24961529776658        5.33928443285500
H           -4.64808964820047        1.18122794252442        3.12487301851915
H           -4.07854101437636        2.12792555513431        1.87889722939511
H           -4.18103754343484        3.04023075396458        3.42536878848675
H           -4.44105116610091        4.41238128197916        6.77961208437617
H           -4.76385607279125        3.07454410761841        7.58115952020831
H           -5.60249615489033        3.41214537962173        6.01100806778418
H            0.23725163200155        7.26948763073126        0.76038496493426
H           -1.36174880612922        7.60256677463689        1.50986234776602
H           -1.13564015710149        7.12138366018583       -0.12491623717927
116
 energy: -22.772773379443 gnorm: 0.454965430754 xtb: 6.6.1 (8d0f1dd)
C           -2.61618342211470       -0.00582066978647       -1.56644973166741
C           -1.99042353694944       -0.63123884598442       -0.55100645340666
C           -1.09829500633965        0.17665731781673        0.39493875055852
C           -0.71288651196379        1.48927727642276       -0.04018473720512
C           -1.44934199702451        2.05261534775301       -1.12304771319770
C           -2.39774224197706        1.38433551123387       -1.81207226943551
C           -0.38491888773239       -0.44458254114753        1.49632429268161
C            0.86095446618551       -0.01711743096932        1.75331059617494
C            1.18105336380030        1.33514606173720        1.26723069755091
N            0.38584090489788        2.14130094725057        0.51767242970515
C           -0.62078644484885       -1.63480825896720        2.19534935882848
C            0.32369821088445       -2.38567156294886        2.98722221352624
N            1.59217365810661       -2.01421651047525        3.01411775799007
C            1.79651176756700       -0.76819555084922        2.60827912306753
C            2.86707506784899       -0.00424549851953        2.97638441827465
C            3.27712526901678        1.24846847323387        2.61540681778204
C            2.32402555782863        1.87233444734322        1.80393776006622
C           -1.94153551434744       -2.09642495810528        2.39469155426867
C           -2.26588558313542       -3.34263150192626        2.80011525980256
C           -1.23209973847238       -4.20340959986913        3.35520857323151
C           -0.02309324944046       -3.62366285532784        3.50957838614007
O           -2.98380712542304       -1.26042439743742        1.94584851908034
O           -2.03392992779752       -1.96800964500217       -0.24291654798315
C           -3.29027022980566        2.23981643827497       -2.74939024687468
C           -1.67344966647560       -5.46422490828552        4.06317342933407
H           -1.48651420209288        3.12804598745738       -1.23233581820143
H           -3.46682361959874       -0.46703346963302       -2.00829486931822
H            2.41302463144923        2.95587807923665        1.62158042113289
H            3.26664153220388       -0.39847598282946        3.89417895870238
H            0.91234799801527       -4.23647848726592        3.71477484879745
H           -3.29063515938688       -3.69493589715428        2.87327907499224
O           -3.28584591123788        3.43344690270626       -2.67215388715000
O           -4.14661193744347        1.53990326065538       -3.59056587347405
C           -5.21315106340044        2.29113993341767       -3.94730205706141
C            4.56385516484896        1.85626962696548        3.21926388180471
O            5.29313756109979        1.13963213139993        3.84037419683635
O            4.89180429078493        3.13677623322396        2.81865806254088
C            6.17389829892845        3.51858558548257        3.16575188929956
O           -2.81513116690047       -5.72542149737997        4.13616120070496
O           -0.63699730330094       -6.06549619324657        4.82219124118620
C           -1.14091977930663       -7.22330536022305        5.34082655309864
C           -4.24304109639171       -1.58142038625574        2.57533134757848
C           -3.32163741106197       -2.45233130613046       -0.62925623801917
H           -1.95834292856694       -6.91922446674249        5.95552153063881
H           -0.22638104227591       -7.82288045277835        5.73048414533059
H           -1.57355700931506       -7.83940620456118        4.59064027163440
H            6.33146991234254        3.94587468398437        4.20761350422026
H            6.39395210705961        4.31730720373404        2.48423784279346
H            6.88222347541257        2.68290706744601        3.18882513946518
H           -4.01490523808023       -1.71878040191516       -0.25701708148846
H           -3.47871247321999       -3.32969512946679        0.05655034751873
H           -3.37624134675008       -2.70192950800987       -1.78511532463697
H           -4.62903146888616       -2.39548573912956        1.91664504065114
H           -4.77397882483869       -0.59671303348854        2.58653755560746
H           -4.01920827130871       -1.96777094497158        3.64049790804688
H           -5.69264663240106        2.81912919165576       -3.07540580567952
H           -6.02658646186332        1.57402320464468       -4.32170044905984
H           -4.80000789660997        2.78907150668427       -4.84093232741717
C           -1.88485572636303        4.47381145697778        3.68912292714579
C           -2.24345667339994        3.24419900683861        4.26893490907451
C           -1.27399402161881        2.24044391225841        4.82706344967544
C            0.06205511295004        2.66864856411300        4.79243903469916
C            0.36213756809485        3.89716061120358        4.21665338338958
C           -0.50216431327224        4.80922344125382        3.68739132706721
C           -1.61284824848993        1.09624402049853        5.71414876407886
C           -0.54094364083317        0.15002145758441        5.83224160072024
C            0.78349905639586        0.70980033494825        5.67042032172956
N            1.10073123187592        1.92763664213131        5.16948752103225
C           -2.85044366062045        0.56074680484537        6.08033278761573
C           -2.96948962974337       -0.90355308085167        6.07252860115388
N           -1.88346184491393       -1.81974286044557        6.13625260195176
C           -0.75065495815353       -1.25232441674187        6.05858647378672
C            0.45312054337637       -1.93285717818467        6.18339129467961
C            1.72251583373667       -1.30675164599093        6.19939948023748
C            1.92569602769697       -0.00637102793386        5.96717701201121
C           -3.99763967777832        1.24192564220770        6.69538565544287
C           -5.26739776108108        0.48175774371335        6.58928482131160
C           -5.37866793578571       -0.78622847955812        6.00722975495812
C           -4.22898516005782       -1.49874081720201        5.79394943091969
O           -3.86438768394849        2.48822309851300        7.14913206108964
O           -3.55508742170142        2.76779226339157        4.29653845316863
C           -0.11629194513873        6.23079524359231        3.42598982324187
C           -6.69100453868561       -1.51860337788749        5.52002090528417
H            1.50043439834661        4.07102316176525        4.30982748062606
H           -2.51664949608573        5.13153149754952        3.11731157545493
H            2.86329947698636        0.57107657157259        6.08330581226585
H            0.59606089241908       -2.92147316078586        6.58797346174971
H           -4.29394972569761       -2.56315325978286        5.91061473540396
H           -6.19077565001630        0.93715580316834        6.96350137807750
O            1.10262953898742        6.35392175898489        3.60064260940173
O           -1.01542197843391        7.16516692678241        2.80611757314425
C           -0.41255272506429        8.02441302426475        1.98447688601406
C            2.74667028315031       -2.24077680166990        6.77239683358805
O            2.53317287006378       -3.33527367302279        7.21484483954699
O            4.00227885537363       -1.63713276324534        6.89833110259061
C            4.93431252652223       -2.58934341809002        7.23313172182245
O           -7.69355897952852       -1.18349590710720        6.12294603305251
O           -6.62039169608511       -2.34868179109038        4.40071794395162
C           -8.04317539076788       -2.72604803663798        4.05221587134336
C           -5.08947568286444        2.87948708797523        7.87786924954645
C           -4.26384668781398        2.13196053660899        3.20820029683417
H           -8.77129812383931       -1.91518668950927        3.80850023678816
H           -8.44796658794798       -3.28248044667549        5.00282130454733
H           -7.97391067555752       -3.41565867071641        3.31482557572704
H            4.65724679613029       -2.98061540211455        8.16887535473228
H            5.84573782988600       -2.06969876394717        7.45486697143483
H            5.16856911516374       -3.25595271930161        6.37003351281116
H           -4.35121477028966        2.97687915293186        2.53016181255442
H           -5.26519787195457        1.93294162279540        3.67563093347313
H           -3.69539253052868        1.41499257467000        2.61978547169878
H           -4.70715080335205        3.74407320209083        8.46127472032167
H           -5.25498551060063        2.16490836879391        8.69649929496083
H           -5.93217195525972        3.14745949498806        7.36195738867890
H            0.62235835398105        8.26113724305444        2.18996224340069
H           -0.95436409904862        8.91962136925141        2.01453923696791
H           -0.44753974593432        7.49678188742343        0.99511769582734
116
 energy: -22.763135224495 gnorm: 0.451109842359 xtb: 6.6.1 (8d0f1dd)
C           -2.83799073302813        0.03211173921632       -1.30960519844297
C           -1.95018101742101       -0.75032423192250       -0.50345365547602
C           -1.20999696501416        0.03299446971126        0.33986517511551
C           -1.10863698240361        1.37147172324086        0.19458043906139
C           -2.00795167059002        2.05608224624578       -0.65000828044708
C           -2.89978434313186        1.36815136136074       -1.31766727628598
C           -0.45575949234848       -0.63508916021502        1.43967942747895
C            0.72572984909368        0.06843252934668        1.76145017351512
C            0.91173613809415        1.46885084770588        1.38365353323603
N           -0.09080435367028        2.13750721968017        0.75345832412031
C           -0.93738219632882       -1.65368597550616        2.35327879204135
C            0.04056653270131       -2.19238225003700        3.15659430216899
N            1.26465324950926       -1.64361084649167        3.40866708682585
C            1.60321586495522       -0.59621863907239        2.65617606498334
C            2.76086293306029        0.14658202932685        2.92815590135135
C            3.12173140857520        1.40030744475374        2.44826309896166
C            2.25525875074029        1.99834444092491        1.57400438154936
C           -2.22241143687842       -2.20128399557903        2.32963967020925
C           -2.58196326530284       -3.36404322897749        3.05310762054062
C           -1.52625643339754       -3.95470430929756        3.71286242103559
C           -0.25725234793038       -3.42153510548922        3.74110833385715
O           -3.20289598762128       -1.50986364340381        1.66033414646813
O           -2.12475976779180       -2.12329941826499       -0.73406771565966
C           -3.85157733999741        2.08774853695396       -2.17355859090259
C           -1.70916290881811       -5.15139005111476        4.54589116440596
H           -1.96248764097410        3.11018731694788       -0.96473007532947
H           -3.46785696893695       -0.39822187196047       -2.10628946387910
H            2.47916952160181        2.85109101307032        0.95744934331451
H            3.36686722405069       -0.23732072682854        3.71050643961662
H            0.52705329215699       -3.95476811113860        4.39788445575395
H           -3.57832436509222       -3.71438912006233        3.21810425118932
O           -4.36650380875037        3.15800103828242       -1.80435536523115