116
 energy: -22.928061455056 gnorm: 0.329736929581 xtb: 6.6.1 (8d0f1dd)
C           -3.31122850772930        0.79849766164622       -0.92477639677520
C           -2.44380812530352       -0.12270372891954       -0.27661132624697
C           -1.41337090092821        0.39579727573559        0.56335275196199
C           -0.89266158675590        1.65801491088749        0.27377586709581
C           -1.72665675402493        2.51431363229076       -0.49448366572522
C           -2.95444148494349        2.13954154133227       -1.01494489940871
C           -0.74098268209890       -0.43411532818871        1.49825021926784
C            0.56872586496315        0.03782116815119        1.86248088067890
C            1.03782416582094        1.29402317993033        1.50887470833621
N            0.31238977034758        2.07067427098208        0.65193736800696
C           -1.29695700510141       -1.39996043042223        2.41574187746061
C           -0.38243517664656       -2.18060797534842        3.13232615520648
N            0.91308504082021       -1.90366887689689        3.30325166013478
C            1.37712470144904       -0.74872102533751        2.81811050966982
C            2.52149331701875       -0.17739833758153        3.39379298866852
C            2.95849061756259        1.02681208890480        2.95105897606587
C            2.24288949469137        1.78498308775960        2.03503020483770
C           -2.74860936222260       -1.74497937691422        2.38401158947411
C           -3.09416315450955       -2.91614440870436        3.00571134491758
C           -2.16786021984049       -3.77788778654213        3.63251872101904
C           -0.85708937311598       -3.40495313382985        3.68547234358092
O           -3.71994433332149       -0.94984598373544        1.67726658385724
O           -2.55702603277562       -1.47241711578389       -0.57241635275616
C           -3.84297843593025        3.13357444054366       -1.60938954875544
C           -2.68769581069131       -5.03867041417370        4.30484659386931
H           -1.39666850744143        3.51251503834900       -0.76806311868865
H           -4.27662633836220        0.55105838579656       -1.33106614114542
H            2.66329581305412        2.73912661909249        1.72562431984580
H            3.05775395548473       -0.69369546277216        4.16536137542516
H           -0.24710966264510       -4.12034095424229        4.22946223699121
H           -4.11477991332403       -3.04712728052358        3.03244694615357
O           -4.21824883374556        4.03433712717988       -0.87713382485991
O           -4.44510595673734        2.90643496899600       -2.81853501752979
C           -5.44216520282800        3.83300025693726       -3.02488532025093
C            4.23586651889298        1.50004220933226        3.59165660008449
O            5.05927614697201        0.66079890002952        3.91714215179376
O            4.47001334453535        2.86385149488593        3.72605651435371
C            5.79457498613219        3.08584475587818        4.15829123132174
O           -3.82227255313510       -5.27347675879771        4.16636005494405
O           -1.85023202017753       -5.79767454267276        5.06656077253571
C           -2.55119635829503       -6.86252441382958        5.62930343183426
C           -5.07197156564436       -1.42399175670916        1.58830531863830
C           -1.33089900128490       -2.23622472573986       -0.99264499351172
H           -2.54510546830388       -7.76426885143998        4.99136022291012
H           -3.57194749219491       -6.44405511486021        5.74196173723541
H           -2.09133598235598       -7.02043774843818        6.64022264233588
H            5.72707967266424        3.46798026205549        5.10135971236643
H            6.34060091246885        3.78468702308830        3.50069950143490
H            6.17933064298187        2.03010500085905        4.19342358084693
H           -0.91862729772622       -2.57650129080332       -0.01361370304871
H           -0.49769766914251       -1.60651221708571       -1.34094446550576
H           -1.52632419730509       -2.94569707152159       -1.75361447637286
H           -5.11788846557077       -2.41810833635233        1.17520213188926
H           -5.67929807973498       -0.69619639428435        1.04301666067831
H           -5.57598832326623       -1.42383358739762        2.57928294206544
H           -6.13050215934830        3.76035386975488       -2.23272855695873
H           -5.86615610071888        3.45938329385866       -4.02668959924245
H           -5.13479557532099        4.87790991548477       -2.98314551356402
C           -1.38192942069774        3.73616555005018        2.91232598411686
C           -1.84821468128685        2.59982427735607        3.49755545445181
C           -1.05946531454833        2.05730632010638        4.60922730982276
C            0.19893954712228        2.69376791964407        4.86302140881997
C            0.50425395911860        3.94630308659851        4.28768785650746
C           -0.26031777722226        4.46998310053134        3.25072669343212
C           -1.20488993561782        0.74454293276906        5.14851520323437
C           -0.06287609782692        0.02744069315890        5.60930570802864
C            1.19208754369866        0.71421540266195        5.78882868583885
N            1.19428660993148        2.06344359410476        5.62744624321596
C           -2.41361422770794        0.07928500213936        5.25249410304426
C           -2.45851584031083       -1.32662100968547        5.60237876023992
N           -1.29466212405906       -1.98318595734370        5.89916817085159
C           -0.14475655767527       -1.32117560077092        5.98824682881008
C            0.97209270935794       -1.98958449505532        6.53157704134458
C            2.21982707914082       -1.36973967291181        6.68703967237737
C            2.30561929262884       -0.09745313075593        6.26436900324455
C           -3.73018485967715        0.71367583494582        5.25810242262992
C           -4.89964478833448       -0.06184623426677        5.21204641615509
C           -4.82617965800088       -1.39228978090841        5.46901303780036
C           -3.67144193418464       -1.98914944386360        5.67265433266067
O           -3.75568638935321        2.07705011038914        5.52067969627343
O           -2.94192434743730        1.91263938797883        3.01658762327703
C            0.21273512614467        5.50086066357994        2.34765104514621
C           -6.06660304520411       -2.17604633098929        5.80641622556876
H            1.41756699010566        4.38133362238595        4.66974005703471
H           -1.82880610647429        4.11982501512100        2.06992133318584
H            3.26888037378556        0.32655662585251        6.31721410015598
H            0.87146188387207       -3.08471526305024        6.57830423410869
H           -3.67716811065157       -3.05999292755990        5.83019634570050
H           -5.77379677507622        0.43595144608221        4.71017130754348
O            1.34459852619901        5.82615848916894        2.44941456579099
O           -0.74718748219123        6.07961784856304        1.59848183464284
C           -0.21473095568964        7.24015934882472        1.05753806029483
C            3.53228080814219       -2.00967610361154        7.02506769044485
O            3.64093082622715       -3.14437803815732        7.50071391725347
O            4.56565258381079       -1.22937033368332        6.69086985080897
C            5.72579357310716       -1.80692399125161        7.22246151275881
O           -7.04801223588612       -1.95726935745904        5.14194115322235
O           -6.01514389321278       -2.93743591896022        6.94765316328794
C           -7.21292732384718       -3.62681918543340        7.15115816329978
C           -4.95459780685163        2.65960679932188        5.86868674392943
C           -3.68284113682406        2.59129188358641        2.05479246020704
H           -7.43119628931628       -4.22607794725959        6.20622607140901
H           -8.06548455146707       -2.91765848248592        7.29781126410398
H           -7.07314693247270       -4.33087306029711        7.91223421050944
H            6.57332189837178       -1.29353136199234        6.78341268688262
H            5.74663761932316       -2.84282155125561        6.88089468184451
H            5.69426191474290       -1.72781984964892        8.29460302186842
H           -4.10481209541493        3.44288266176275        2.60483747673152
H           -4.49244774344916        1.87419893016926        1.82433103764650
H           -3.18901540870812        2.85154642679373        1.06781919454921
H           -5.55414326821421        2.76698137191684        4.93950725322359
H           -4.78658370641210        3.62090640967288        6.25983200635257
H           -5.43485580473958        1.97242995129449        6.65265772412460
H            0.89164886030839        7.38838561720231        1.13776105146914
H           -0.62894889903848        8.04195665205089        1.64837664327952
H           -0.59282546386754        7.45699159724320        0.03719083132488
116
 energy: -22.551995475092 gnorm: 0.578315016057 xtb: 6.6.1 (8d0f1dd)
C           -3.28872635632841        0.68946130522587       -0.57107264150510
C           -2.17484887390597       -0.19613858857062       -0.49139858962441
C           -1.20654018697482        0.08477768485062        0.46565271127551
C           -0.86742877716565        1.47401519349981        0.28685026622838
C           -1.80257231364028        2.43945783893466       -0.07951758348090
C           -3.02174004921655        2.00514127416046       -0.42772614951184
C           -0.52340455107680       -0.73134317778763        1.43255044634991
C            0.72509573690794       -0.15912956385153        1.61475583203881
C            1.18796737298601        1.03965278297589        0.98268453246622
N            0.26727688886602        1.92787379699895        0.68241731155221
C           -1.01381571366239       -1.87796007030596        2.09748569268932
C           -0.08117639008510       -2.49187962024635        2.88572704432576
N            1.05964584420437       -1.84680017276159        3.50759253661741
C            1.52137082583976       -0.77020259991794        2.63523214109146
C            2.75789670758205       -0.17079757793633        3.01077197702851
C            3.25264273610389        0.91340806705777        2.25841229730670
C            2.54316783683665        1.56946736359630        1.25841229743789
C           -2.35821333820433       -2.39973597668226        2.01901668210246
C           -2.79796110556094       -3.37793841583861        2.89881447402173
C           -1.89009005436269       -3.92982689996926        3.79037312514746
C           -0.54148892891913       -3.53071311297183        3.70551647161975
O           -3.25115142214497       -1.81031094999150        1.02600520404761
O           -2.24442816018882       -1.42783855520218       -1.24524991607177
C           -4.00883895605338        3.03104749944860       -0.66112756612313
C           -2.29438948849777       -4.87318541127162        4.90131240043020
H           -1.44891653348550        3.43108144321755       -0.17704229279693
H           -3.94626515428661        0.39837648553235       -1.36500030073702
H            2.91362771516331        2.51205533608709        1.04074167288454
H            3.33770840257404       -0.60396246951964        3.82843611753607
H            0.27678439460602       -4.29407711435091        3.99280307987511
H           -3.82491049830053       -3.32439576058296        3.05584902517823
O           -3.61949441401537        4.14015999179532       -0.29290904558003
O           -5.17121385552618        2.89500609177194       -1.44781697585210
C           -5.87441453671386        4.11355914894520       -1.30485658418853
C            4.59079095649191        1.51132552152169        2.62441717484544
O            5.52039027425155        0.73147972512606        2.70796945232167
O            4.57008789677345        2.82529208260700        3.03374950033299
C            5.56810952854763        3.08961195823861        3.95286054795512
O           -1.46136426995214       -5.12229645575557        5.74906171459050
O           -3.72990831511225       -5.15420601126971        4.88775302070110
C           -4.16139321871643       -5.85644989222236        5.92920053013298
C           -4.12789515435432       -2.72000157345603        0.30330822340526
C           -1.16651594134717       -2.06286480669883       -1.67239912871791
H           -5.23506650600979       -5.97879100249129        5.96988927681055
H           -4.05619482815321       -5.39233733931185        7.10887158886522
H           -3.98786374747300       -6.86059864934920        5.95803445833780
H            6.07909034309756        3.97981775629202        3.59863846796609
H            6.22416646630358        2.36959805479428        3.75224469649214
H            5.09196889700826        3.38720981443776        5.09469947618258
H           -0.27824304470893       -1.27145947707715       -1.73712710077997
H           -1.27018230043236       -2.21308611014194       -2.87094297903514
H           -1.10711573073088       -3.15492327662413       -1.42198427727363
H           -5.06396447317069       -2.59310462586539        0.75551909229788
H           -3.90593013342878       -3.73752152800665        0.07513566928092
H           -3.85541207214294       -2.26560612840388       -0.74396267431010
H           -6.14520744223217        4.20780629012140       -0.25148365736532
H           -6.80293764266911        4.19646397605324       -1.99319639482681
H           -5.28300853021420        5.02360407811391       -1.75021324224489
C           -1.81656759480714        3.68401002326599        3.15144903495720
C           -2.16270282066702        2.61016947141945        4.03307009294714
C           -1.06009003769684        2.05635640260324        4.81358680047688
C            0.22356447187456        2.56990871419033        4.82300346342673
C            0.52284495525985        3.64545703024138        4.01575946037526
C           -0.46217330022589        4.05087457891867        3.14260413605959
C           -1.35929543340405        0.90310447071739        5.69625339526582
C           -0.16763155800206        0.09004582899911        5.99071795832469
C            1.11154500992397        0.57443390554352        5.75362926032068
N            1.33925993548775        1.87799085453130        5.42789765661037
C           -2.60051421258640        0.26210160040772        6.27084728483730
C           -2.48439400886740       -1.12390883228798        6.21114016640044
N           -1.34315976486171       -1.73234630529202        6.44580830645305
C           -0.16244329494675       -1.16390002586846        6.57991952707448
C            1.05953542865272       -1.74901178311294        7.00946385573275
C            2.36496754222238       -1.22885767284903        6.76760416153732
C            2.39547143475714       -0.00844892244145        6.01742633557627
C           -3.91061252978107        0.76628906361439        6.49823515518083
C           -5.04535523566820       -0.13121039596090        6.42219157791390
C           -4.95582809878543       -1.44245970742607        6.05857157928348
C           -3.69073973938735       -1.86041962362153        6.17207988687032
O           -3.90362039415028        2.10787912523463        6.87828479447171
O           -3.66363214434103        2.41669867707819        3.97377744055684
C           -0.01140227667943        5.03559486510365        2.06244402626204
C           -6.09711759318475       -1.86349648149444        5.22161574997282
H            1.36265773182660        4.23138159128137        4.05574014507748
H           -2.44398747976628        4.33494760782571        2.71997497017044
H            3.28903098111432        0.53140256967016        5.80994777109010
H            0.90535954188246       -2.27922454896533        7.96123123735636
H           -3.75152828780301       -2.95941999145002        6.23473583734000
H           -6.07328772063221        0.37102365230376        6.23798003621079
O            0.61784466813188        5.96614790912277        2.53089069297792
O           -0.43229732546181        4.92056439779526        0.73804809537846
C            0.10608091756559        5.91509206728059       -0.16994443008086
C            3.61994313473983       -1.80180378623578        7.05827958995703
O            3.84164844516298       -2.85954699116693        7.52776682580998
O            4.71203162011101       -0.98408089494273        6.58688927147808
C            5.97580016713378       -1.28121680473506        7.12789730872361
O           -5.97312939880664       -2.80172531866894        4.49948279544493
O           -7.26331862131790       -1.07594821633603        5.42375652190440
C           -8.16866924728879       -1.24198255129505        4.37870022218310
C           -5.11338792672622        2.63103253762052        7.32752030726695
C           -3.94148826611419        1.83845808864678        2.56375247607193
H           -7.71047667565506       -1.64148556812393        3.50017074456818
H           -8.46914496460739       -0.23762219868230        4.12698667289031
H           -8.94066209686848       -2.03674702680475        4.53702755966827
H            6.07923312988062       -2.33408610595035        7.23228781971372
H            6.41340628745026       -0.61041827240624        7.90456277882684
H            6.64216769747031       -0.89682384365945        6.33038062444016
H           -4.45584196764486        2.74134824841358        2.27170663493269
H           -4.63171516652816        0.94530758850116        2.81431753905781
H           -3.08596580500307        1.82887954162773        1.98102518233995
H           -5.88713589485423        2.73566460866531        6.56951957913739
H           -5.17823435918553        3.58177870202590        7.86370188445953
H           -5.68152125097464        2.00334821582715        8.01700672725659
H           -0.78302080166603        6.39849883685496       -0.57794413349367
H            0.52444820073530        5.33001131041544       -0.88485694841158
H            0.96786334844789        6.66175654471667        0.14232726985504
116
 energy: -22.603789906034 gnorm: 0.526720455290 xtb: 6.6.1 (8d0f1dd)
C           -3.11534234654435        0.21403283031335       -0.85682530070806
C           -2.18539056191081       -0.68980425438701       -0.40424109068591
C           -1.06445813981044       -0.06602113136607        0.38540512287171
C           -0.72621256674452        1.29322860473582        0.03254700853259
C           -1.43422930626020        1.87176199065775       -1.04086314638728
C           -2.67599183362592        1.37773522668302       -1.48478177004902
C           -0.32411746925407       -0.61537786751073        1.47378031742542
C            0.93325980605016       -0.06912399378833        1.71016304021068
C            1.18055018790539        1.17945402762921        1.04176914658412
N            0.35994684356524        1.91839795989521        0.32405035380857
C           -0.73332661584824       -1.72325083331007        2.45063060231701
C            0.28755484868662       -2.40797450449902        3.22984251680239
N            1.56301150724989       -1.94718630135811        3.08454798554703
C            1.86418517353696       -0.74334569096008        2.51865242627865
C            2.99605942306298       -0.00971074515208        2.81610201438481
C            3.32092569580985        1.10128577152789        2.08658034228827
C            2.43133921760802        1.72349448802111        1.18804187155022
C           -2.09885687587281       -2.18624025737406        2.48153260619786
C           -2.36708208172495       -3.28031657262314        3.27661154437273
C           -1.32366365708339       -4.18436019917050        3.61047702713405
C           -0.08834881669513       -3.62145758230840        3.71429278172189
O           -3.03864202329459       -1.41986142910185        1.92627152481892
O           -2.25470957607504       -2.05497209776341       -0.56224627959472
C           -3.61323815272259        2.29095301877050       -2.35557070814035
C           -1.40711065217038       -5.77647689049373        3.46923762334341
H           -1.08445137258569        2.89034789080496       -1.17237786153442
H           -4.13977099150297       -0.10588311081730       -0.96267597702075
H            2.73183611785526        2.45297170923244        0.53201461416189
H            3.61732959755856       -0.50832978349500        3.60885149041313
H            0.81546376021091       -4.31946899331715        3.85141591192007
H           -3.31960352545032       -3.66571533521592        3.14108794606608
O           -3.14143764595786        3.40359889347525       -2.60601652670100
O           -4.83379465664506        1.74888918465655       -2.77719603558316
C           -5.79375790808132        2.66248502463721       -3.16331923292340
C            4.67236083380107        1.50674514139121        2.43243166769120
O            5.16565545076946        1.50264692611472        3.57483944252233
O            5.31773592705438        1.98682925021818        1.34172118725743
C            6.38775662131137        2.81722687648845        1.69177723804102
O           -1.17264739823433       -6.12854254511394        2.32622619609605
O           -1.89404227884409       -6.62862322749070        4.48652010521075
C           -2.46949898931445       -7.91392081284121        4.21806856972685
C           -3.97646036593404       -0.96753238343525        2.84810151176822
C           -1.12139579884904       -2.82732349104949       -0.66240395001400
H           -1.94255569762986       -8.61686029514008        4.63874869928317
H           -2.94092787613351       -8.11916199838426        3.23335422727779
H           -3.46071250512508       -7.84607178013325        4.83054527398203
H            7.24077927697138        2.78195159899267        0.89322674849689
H            6.52590065083576        2.42506101933457        2.66300301844166
H            5.87126830647845        3.72485100209926        1.89506808900266
H           -1.48202338251856       -3.66143757676828       -1.25689838396303
H           -0.71523318658636       -3.06115947182942        0.38953725400739
H           -0.19157858745853       -2.49531374979765       -1.27624263201355
H           -4.78805957019694       -1.54057374458980        3.49625911985572
H           -4.54903589593225       -0.29771064971676        2.23592907238594
H           -3.30650311319830       -0.44423165353774        3.61504974293819
H           -6.35333125708837        2.96079517603904       -2.22055239664640
H           -6.54688144650637        2.01744305715545       -3.59045432342181
H           -5.37228148237753        3.37739196459340       -3.80855413527606
C           -1.58931188232815        4.11052099841678        3.17183333454780
C           -1.97251810152068        2.84466806377736        3.56025136855798
C           -1.18346421816492        1.99717714077692        4.41735124828526
C            0.14008593346248        2.41648663162078        4.43928634339786
C            0.50726868660573        3.71952562286537        4.16870791802615
C           -0.39367309800938        4.59364703277059        3.56261287637345
C           -1.54152379633591        0.81145667983281        5.24715574674056
C           -0.49271408796070        0.16977498309343        5.87308851939185
C            0.86661455336265        0.62734613024673        5.75110728164678
N            1.11244204648989        1.82753249142458        5.06341652605998
C           -2.78028345584623        0.44003287190392        5.79077833992985
C           -3.03793562084526       -0.92513505458428        6.44383602129957
N           -1.99617684182303       -1.58833962642548        7.01284219526831
C           -0.81678856048997       -1.07603063742073        6.78052173001296
C            0.33958811095939       -1.77702525149259        7.11189184731743
C            1.63308280959180       -1.32683232599472        6.86192076156090
C            1.95488104238744       -0.12440893738375        6.22100737972533
C           -3.95152987437744        1.26681633624856        5.71336952647204
C           -5.24880066330960        0.68727438036764        5.83323937305024
C           -5.39629863684894       -0.66442525579101        6.18121271087087
C           -4.33180137521827       -1.49925913465602        6.56861964945446
O           -3.79054391942840        2.70646961273515        5.67335296090392
O           -3.18754595856104        2.17878853451331        3.27961474857905
C            0.00867541621981        5.88884094204607        3.14694653606866
C           -6.86139308049275       -1.21298991834000        6.39456858539372
H            1.50482985863061        3.96949327333403        4.29198280644210
H           -2.19325644982799        4.57175877003564        2.55582656773440
H            2.94937917878903        0.25730135247613        6.06109478566897
H            0.41524458415756       -2.77049209157820        7.59040613552291
H           -4.53730062875167       -2.05270568973605        7.49524582016230
H           -6.13619375672435        1.29392128039091        5.49922992130750
O            1.13317347850171        6.12813904164648        2.71503918044596
O           -1.01330058608389        6.76417172915557        3.39237880453516
C           -0.76792944531255        7.93226850955141        2.72310139221958
C            2.87971602962913       -2.11397194883984        7.28880371093708
O            3.13685384265438       -3.22475922661487        6.72368608946077
O            3.70712731767690       -1.31697348766240        8.13415493630824
C            4.93082164898334       -1.82777606697712        8.17783808339192
O           -6.94187010242712       -2.13876661469544        5.62085800031091
O           -7.87192080210004       -0.68014560809954        7.02610780220284
C           -8.91313295297314       -1.70880257289856        7.28174191629607
C           -4.89851911147757        3.35359498265460        6.28759396054843
C           -3.98056625601884        3.29966050235466        2.72112805686030
H           -8.53546505135206       -2.70423698268467        7.11795889887520
H           -9.70522337408999       -1.63121807846537        6.39008490000729
H           -9.47153808194347       -1.52550973891047        8.21971187489244
H            5.16132270222671       -2.35570151177684        7.28362105073171
H            4.83908704657810       -2.84882034577237        8.69332447222890
H            5.63245716411485       -1.25642640724432        8.65852696543886
H           -4.51548303492917        3.69558026500605        3.60169855700595
H           -5.03601959951511        2.97506173274810        2.34581557000956
H           -3.64205988008136        3.66699373696016        1.80105314626892
H           -5.70215758056831        3.42475599967596        5.52532700431273
H           -4.50083774205296        4.40132564333757        6.32347161179437
H           -4.80877650626454        2.81176931906811        7.29244374257287
H           -1.64773816399216        8.49241455618741        2.20950919026738
H            0.20237070459130        8.04075649005006        2.21478488347251
H           -0.79936487911167        8.99404425567844        3.34318671897963
116
 energy: -22.620771333232 gnorm: 0.525632175132 xtb: 6.6.1 (8d0f1dd)
C           -2.62597383935194       -0.20338592586317       -1.41655047127163
C           -1.89203624089772       -0.84715058420206       -0.48081656868786
C           -1.08973001618159       -0.15613489135637        0.41869019599487
C           -1.04340900656251        1.24258890420702        0.29414705090517
C           -1.87603520748895        1.95406436350807       -0.55846343487616
C           -2.70216381278262        1.20488443033448       -1.35176435341634
C           -0.48783007211777       -0.70855661085032        1.57616517532892
C            0.76907182965387       -0.07378568479931        1.92580868435036
C            0.89282984975367        1.30295682619650        1.51403854167698
N           -0.04677704985878        1.97212671923679        0.92654980527587
C           -0.82922840841288       -1.86618512173196        2.12972061605701
C            0.29405704108037       -2.53183595498740        2.85827905136820
N            1.61304035887491       -2.10912322738578        2.82317983401836
C            1.68536399653593       -0.74621643704611        2.79593565756415
C            2.88504930204425       -0.20144383163444        2.99274262519622
C            3.18818097167551        0.95082834538168        2.37368801125221
C            2.07950716563666        1.83801519399784        1.79582506870186
C           -2.05288235249032       -2.51166208376508        2.18959559593425
C           -2.24746849763112       -3.66557938210266        2.97684922190084
C           -1.11072622761542       -4.39002196556979        3.52380750096745
C            0.12187752993336       -3.86594793972420        3.34530378344242
O           -3.06537549467062       -1.84880310368957        1.46003312211633
O           -1.88880139779010       -2.34444345295611       -0.67645233885417
C           -3.34226573164904        1.97139237438110       -2.48498602311085
C           -1.11494247111006       -5.77396586368025        3.97852814802134
H           -1.47700656481467        2.95769127575072       -0.74298396293828
H           -3.29869518622759       -0.77140102453154       -2.09875888354410
H            2.24384158838854        2.79450579896116        1.19869445384466
H            3.66752397472942       -0.53779584714613        3.76851695662857
H            0.94511268386288       -4.43201902966339        3.83816637518464
H           -3.15270021763395       -4.21866073802646        2.90021329912008
O           -3.78075325938802        3.13103527774494       -2.41611593261228