116
 energy: -22.928061455056 gnorm: 0.329736929581 xtb: 6.6.1 (8d0f1dd)
C           -3.31122850772930        0.79849766164622       -0.92477639677520
C           -2.44380812530352       -0.12270372891954       -0.27661132624697
C           -1.41337090092821        0.39579727573559        0.56335275196199
C           -0.89266158675590        1.65801491088749        0.27377586709581
C           -1.72665675402493        2.51431363229076       -0.49448366572522
C           -2.95444148494349        2.13954154133227       -1.01494489940871
C           -0.74098268209890       -0.43411532818871        1.49825021926784
C            0.56872586496315        0.03782116815119        1.86248088067890
C            1.03782416582094        1.29402317993033        1.50887470833621
N            0.31238977034758        2.07067427098208        0.65193736800696
C           -1.29695700510141       -1.39996043042223        2.41574187746061
C           -0.38243517664656       -2.18060797534842        3.13232615520648
N            0.91308504082021       -1.90366887689689        3.30325166013478
C            1.37712470144904       -0.74872102533751        2.81811050966982
C            2.52149331701875       -0.17739833758153        3.39379298866852
C            2.95849061756259        1.02681208890480        2.95105897606587
C            2.24288949469137        1.78498308775960        2.03503020483770
C           -2.74860936222260       -1.74497937691422        2.38401158947411
C           -3.09416315450955       -2.91614440870436        3.00571134491758
C           -2.16786021984049       -3.77788778654213        3.63251872101904
C           -0.85708937311598       -3.40495313382985        3.68547234358092
O           -3.71994433332149       -0.94984598373544        1.67726658385724
O           -2.55702603277562       -1.47241711578389       -0.57241635275616
C           -3.84297843593025        3.13357444054366       -1.60938954875544
C           -2.68769581069131       -5.03867041417370        4.30484659386931
H           -1.39666850744143        3.51251503834900       -0.76806311868865
H           -4.27662633836220        0.55105838579656       -1.33106614114542
H            2.66329581305412        2.73912661909249        1.72562431984580
H            3.05775395548473       -0.69369546277216        4.16536137542516
H           -0.24710966264510       -4.12034095424229        4.22946223699121
H           -4.11477991332403       -3.04712728052358        3.03244694615357
O           -4.21824883374556        4.03433712717988       -0.87713382485991
O           -4.44510595673734        2.90643496899600       -2.81853501752979
C           -5.44216520282800        3.83300025693726       -3.02488532025093
C            4.23586651889298        1.50004220933226        3.59165660008449
O            5.05927614697201        0.66079890002952        3.91714215179376
O            4.47001334453535        2.86385149488593        3.72605651435371
C            5.79457498613219        3.08584475587818        4.15829123132174
O           -3.82227255313510       -5.27347675879771        4.16636005494405
O           -1.85023202017753       -5.79767454267276        5.06656077253571
C           -2.55119635829503       -6.86252441382958        5.62930343183426
C           -5.07197156564436       -1.42399175670916        1.58830531863830
C           -1.33089900128490       -2.23622472573986       -0.99264499351172
H           -2.54510546830388       -7.76426885143998        4.99136022291012
H           -3.57194749219491       -6.44405511486021        5.74196173723541
H           -2.09133598235598       -7.02043774843818        6.64022264233588
H            5.72707967266424        3.46798026205549        5.10135971236643
H            6.34060091246885        3.78468702308830        3.50069950143490
H            6.17933064298187        2.03010500085905        4.19342358084693
H           -0.91862729772622       -2.57650129080332       -0.01361370304871
H           -0.49769766914251       -1.60651221708571       -1.34094446550576
H           -1.52632419730509       -2.94569707152159       -1.75361447637286
H           -5.11788846557077       -2.41810833635233        1.17520213188926
H           -5.67929807973498       -0.69619639428435        1.04301666067831
H           -5.57598832326623       -1.42383358739762        2.57928294206544
H           -6.13050215934830        3.76035386975488       -2.23272855695873
H           -5.86615610071888        3.45938329385866       -4.02668959924245
H           -5.13479557532099        4.87790991548477       -2.98314551356402
C           -1.38192942069774        3.73616555005018        2.91232598411686
C           -1.84821468128685        2.59982427735607        3.49755545445181
C           -1.05946531454833        2.05730632010638        4.60922730982276
C            0.19893954712228        2.69376791964407        4.86302140881997
C            0.50425395911860        3.94630308659851        4.28768785650746
C           -0.26031777722226        4.46998310053134        3.25072669343212
C           -1.20488993561782        0.74454293276906        5.14851520323437
C           -0.06287609782692        0.02744069315890        5.60930570802864
C            1.19208754369866        0.71421540266195        5.78882868583885
N            1.19428660993148        2.06344359410476        5.62744624321596
C           -2.41361422770794        0.07928500213936        5.25249410304426
C           -2.45851584031083       -1.32662100968547        5.60237876023992
N           -1.29466212405906       -1.98318595734370        5.89916817085159
C           -0.14475655767527       -1.32117560077092        5.98824682881008
C            0.97209270935794       -1.98958449505532        6.53157704134458
C            2.21982707914082       -1.36973967291181        6.68703967237737
C            2.30561929262884       -0.09745313075593        6.26436900324455
C           -3.73018485967715        0.71367583494582        5.25810242262992
C           -4.89964478833448       -0.06184623426677        5.21204641615509
C           -4.82617965800088       -1.39228978090841        5.46901303780036
C           -3.67144193418464       -1.98914944386360        5.67265433266067
O           -3.75568638935321        2.07705011038914        5.52067969627343
O           -2.94192434743730        1.91263938797883        3.01658762327703
C            0.21273512614467        5.50086066357994        2.34765104514621
C           -6.06660304520411       -2.17604633098929        5.80641622556876
H            1.41756699010566        4.38133362238595        4.66974005703471
H           -1.82880610647429        4.11982501512100        2.06992133318584
H            3.26888037378556        0.32655662585251        6.31721410015598
H            0.87146188387207       -3.08471526305024        6.57830423410869
H           -3.67716811065157       -3.05999292755990        5.83019634570050
H           -5.77379677507622        0.43595144608221        4.71017130754348
O            1.34459852619901        5.82615848916894        2.44941456579099
O           -0.74718748219123        6.07961784856304        1.59848183464284
C           -0.21473095568964        7.24015934882472        1.05753806029483
C            3.53228080814219       -2.00967610361154        7.02506769044485
O            3.64093082622715       -3.14437803815732        7.50071391725347
O            4.56565258381079       -1.22937033368332        6.69086985080897
C            5.72579357310716       -1.80692399125161        7.22246151275881
O           -7.04801223588612       -1.95726935745904        5.14194115322235
O           -6.01514389321278       -2.93743591896022        6.94765316328794
C           -7.21292732384718       -3.62681918543340        7.15115816329978
C           -4.95459780685163        2.65960679932188        5.86868674392943
C           -3.68284113682406        2.59129188358641        2.05479246020704
H           -7.43119628931628       -4.22607794725959        6.20622607140901
H           -8.06548455146707       -2.91765848248592        7.29781126410398
H           -7.07314693247270       -4.33087306029711        7.91223421050944
H            6.57332189837178       -1.29353136199234        6.78341268688262
H            5.74663761932316       -2.84282155125561        6.88089468184451
H            5.69426191474290       -1.72781984964892        8.29460302186842
H           -4.10481209541493        3.44288266176275        2.60483747673152
H           -4.49244774344916        1.87419893016926        1.82433103764650
H           -3.18901540870812        2.85154642679373        1.06781919454921
H           -5.55414326821421        2.76698137191684        4.93950725322359
H           -4.78658370641210        3.62090640967288        6.25983200635257
H           -5.43485580473958        1.97242995129449        6.65265772412460
H            0.89164886030839        7.38838561720231        1.13776105146914
H           -0.62894889903848        8.04195665205089        1.64837664327952
H           -0.59282546386754        7.45699159724320        0.03719083132488
116
 energy: -22.850217490617 gnorm: 0.410698481463 xtb: 6.6.1 (8d0f1dd)
C           -3.10207816533122        0.34610414791741       -1.61602696374575
C           -2.16777473291280       -0.62526658793929       -1.18880850410161
C           -1.21849541484447       -0.19223038015742       -0.21688185386544
C           -0.98786519599810        1.31329534294515       -0.10041197811385
C           -1.87785912633396        2.23713008402482       -0.69978151072013
C           -2.96326679857258        1.81624734830436       -1.40836005869203
C           -0.66899317917506       -0.92451031986375        0.95356608414487
C            0.52410235931847       -0.28767427537692        1.46494932385969
C            0.78874795719592        1.08255993216273        1.27210221275101
N           -0.08812644220328        1.94435974188819        0.75308596423148
C           -1.20960981365711       -1.94837927225435        1.76743800410603
C           -0.31804800719987       -2.66186185034788        2.65774249879834
N            0.99400933593494       -2.31337815457738        2.91387333917385
C            1.21082272289450       -1.06801468294738        2.50840038708696
C            2.39026073652541       -0.49831191074808        3.02862001423252
C            2.75626447670569        0.77388839686615        2.63474802701925
C            1.89896219310509        1.59048322213888        1.88025947554923
C           -2.58224112281600       -2.21732541743129        1.92132247139414
C           -3.05133277172344       -3.29942458323362        2.66385967533368
C           -2.12612298423123       -4.12312253187297        3.40254481509025
C           -0.79960256100584       -3.75997712029834        3.33746944281851
O           -3.52638474783916       -1.31278251294216        1.46441600090747
O           -2.47181604921118       -1.88906574673705       -1.64363891325373
C           -3.98134053366939        2.67971923574931       -1.96455317192107
C           -2.55812005663042       -5.15327236893306        4.43280290949388
H           -1.61417744678310        3.29718428999903       -0.59730490596557
H           -3.75680521933587       -0.07877534181800       -2.36517145697250
H            2.14065279944890        2.58871888368786        1.71358111030462
H            2.91390959347147       -1.09759426619887        3.85403655938731
H           -0.19765230769511       -4.37232173899231        3.97352969322474
H           -4.02586974318483       -3.36171510801731        2.87024985770761
O           -3.70900498507119        3.85063130373851       -2.20411284083608
O           -5.21387859759847        2.08536229282652       -2.03719480280465
C           -6.21613513546432        3.10598105647425       -2.36408577562331
C            4.03377351891067        1.32880111281611        3.24901648410182
O            4.77025219623540        0.62912663093623        3.91249992793032
O            4.34591080482567        2.64923723984416        2.92209196056611
C            5.50068690847483        3.04044333589655        3.56176589715045
O           -3.74307413402654       -5.41903685654761        4.68092954448964
O           -1.47982403127422       -5.64273536069448        5.11203579222121
C           -1.81654369357769       -6.76677074416443        5.82915345763266
C           -4.64301074538903       -1.74517635873831        0.85949392357155
C           -1.60204032633945       -2.93575235275968       -1.41542078085434
H           -1.83528387465415       -7.57937634961543        5.22503816725032
H           -2.82270727583483       -6.69042588263573        6.04127161810042
H           -1.02193240838668       -6.94621834907161        6.56101013241376
H            6.34021915693381        2.88925070919546        2.92395692789052
H            5.56814588820776        2.39197609243028        4.31774992583132
H            5.32119071637157        4.06214336196997        3.97576629170866
H           -2.08091032061384       -3.57116718609575       -0.70904095637115
H           -0.75781995859949       -2.62400015742531       -1.00892515258540
H           -1.63038865790233       -3.54323062851672       -2.36718771845062
H           -4.72921983364992       -2.85892179691616        0.68638526137920
H           -5.02679580452969       -1.18445655067009        0.02859096231643
H           -5.41785036591484       -1.59874478240164        1.57887576637434
H           -6.07210088935629        4.01932628262987       -1.71368082479890
H           -7.24218752354735        2.74684749481969       -2.70041108767215
H           -5.88579319604316        3.43808123958617       -3.37356165299365
C           -1.44642115395555        4.05567143832469        3.42843499178589
C           -1.72029669548525        2.79962618137861        3.94674933043703
C           -0.77749479231583        2.30176411664962        4.93263134529498
C            0.54656285766025        2.85476269634699        5.10126120761527
C            0.71768464720611        4.09853600969128        4.52372325483664
C           -0.21364561861224        4.68843846989331        3.64828223166901
C           -0.96773620440101        0.96230084970649        5.53138653506117
C            0.17920625411727        0.22920594914510        5.77752544031840
C            1.40791290307176        0.91571512650563        5.90568210347444
N            1.64858059910696        2.26750373692366        5.71191950848043
C           -2.29600583124798        0.34455006622794        5.83978325093983
C           -2.29097510046252       -1.02925884314885        5.73704004593838
N           -1.21511236655917       -1.75813360631498        5.84285596863949
C           -0.01245702991444       -1.18236983935455        6.04353098336771
C            1.07975700502905       -1.86783299298960        6.60856992983129
C            2.26595867925635       -1.26795217678406        6.81284034222746
C            2.41165526887542        0.06928629536623        6.42708304791994
C           -3.50947907274232        1.14322622653913        6.09312151657086
C           -4.73306639271041        0.46322813119278        5.98037653806713
C           -4.75456539477836       -0.82739153669201        5.61240879589770
C           -3.59984772039019       -1.58676411026071        5.52792291906302
O           -3.51613350433281        2.51911677163842        6.36055007039611
O           -2.72123231479696        1.96325425259803        3.40481111204448
C            0.06122713960138        6.03858502201332        3.06453468902745
C           -6.05831644577612       -1.45773418459252        5.52650121320374
H            1.71289479470009        4.57056589043302        4.59683646876916
H           -2.02281840762908        4.53669366399883        2.64091586285722
H            3.34689296877911        0.60815684546721        6.61302552007380
H            1.10707946399764       -2.93418968356871        6.83795824120986
H           -3.71658491868246       -2.65536108764777        5.43308866577087
H           -5.68060512803580        0.98808314515087        6.18118021690582
O            1.14487196642884        6.59974672883888        3.28663967957819
O           -0.91988179718647        6.55910946340050        2.26251167539863
C           -0.48187082139867        7.86537682899443        1.85327360300592
C            3.50355379069935       -1.98252370755013        7.40388476431075
O            3.41982577225996       -3.17678762131645        7.66952459286755
O            4.69078752923658       -1.29043348383629        7.51911135214680
C            5.73261861301017       -2.11483455840395        7.98279975932726
O           -6.41119599633013       -1.61825907553401        4.35195808880503
O           -6.83146283094428       -1.80376359531915        6.58269673405745
C           -7.99961130926902       -2.42644578058426        6.21203845150923
C           -4.78974433708216        3.17846038631855        6.63738188375671
C           -3.78880712269021        2.42348231907509        2.58360760402226
H           -7.67915116247226       -3.16194042651983        5.39542337791107
H           -8.67272614209831       -1.65578929189529        5.61062206322238
H           -8.55174400394815       -2.95577212423798        6.99082130366832
H            5.47446348213819       -2.59444071092763        8.97641069545282
H            6.60134312371177       -1.49594525970585        8.07379050840829
H            5.93426699478642       -3.00335801433489        7.37582859280458
H           -3.31725299657231        3.03213574941027        1.76989950834645
H           -4.36787369367674        3.22096352382585        3.12491244538087
H           -4.51882452152273        1.64711479151561        2.19109102159097
H           -5.35049113098091        3.25872008564504        5.71537661760713
H           -4.58154157959801        4.09269823686741        7.03455209117688
H           -5.52093630934952        2.69108631424875        7.34308248006885
H            0.58814775815766        7.96874824708902        1.86086980693704
H           -0.80425852160232        8.46620343602389        2.67618572758304
H           -0.91280874160448        8.27884162521210        1.00971536338463
116
 energy: -22.845140634407 gnorm: 0.388607076694 xtb: 6.6.1 (8d0f1dd)
C           -3.55045973073015        0.43822221155615       -1.16027327546841
C           -2.66457516752047       -0.47370948694823       -0.49687746801631
C           -1.54190494752580        0.15609195955126        0.25915516321634
C           -1.07113734778800        1.42438799435303       -0.13232123859805
C           -1.91818998103946        2.15823403448144       -0.92404940275253
C           -3.10863280974544        1.72055169389291       -1.47081211587992
C           -0.92419702009039       -0.53205511845292        1.29974932674575
C            0.29520751549253        0.05459302363715        1.66531715600377
C            0.67127032149042        1.38084619280906        1.31659712302416
N           -0.04011877548289        2.01974280035638        0.45881456508863
C           -1.28635921460596       -1.62920354164266        2.16619028251207
C           -0.30727119231495       -2.36158571942398        2.95763679921562
N            0.96316367705992       -1.92380242465881        2.96400105630270
C            1.18348383127499       -0.63904145320674        2.58346143146764
C            2.36330365978844       -0.02078603406956        2.93600125973145
C            2.63880696273781        1.24687878644989        2.66839363187629
C            1.76777131929997        2.02377518507342        1.87499198090552
C           -2.60741806016892       -1.96443571174777        2.41298047116716
C           -2.89720532925764       -3.22899433496728        2.97809464753291
C           -1.87027094682774       -4.07670341788340        3.44527035714967
C           -0.53857163108011       -3.65092345143211        3.33842933714177
O           -3.48031620013892       -0.95108480621264        2.04037602114024
O           -3.10517059453493       -1.78375443033860       -0.60347611838087
C           -3.75135748188560        2.56606287106070       -2.51545178914662
C           -2.14924652041234       -5.21923629253385        4.38879454603210
H           -1.69928454455670        3.24253151129711       -0.97778626505793
H           -4.33569430395853       -0.05112549840506       -1.65396147453015
H            1.94832839948394        3.10894693452196        1.59329861398361
H            3.17679207963189       -0.69524785265571        3.28839156835860
H            0.23134230972957       -4.22214191455128        3.72713571319575
H           -3.89246345028118       -3.46865920441618        3.07278913804195
O           -4.30882766143233        3.68875507608471       -2.36626836526804
O           -3.86383634766744        1.86092309040160       -3.72620763673897
C           -4.81355612207972        2.55118001800953       -4.55600344402372
C            3.94166549538475        1.88180807973284        3.00914238051930
O            4.60867955267071        1.50999044407347        3.98296182952731
O            4.29589768598522        2.90889139766287        2.25373602840799
C            5.49229369122524        3.51247122609793        2.75840447677134
O           -3.14321367023920       -5.13282964426769        5.05454798156364
O           -1.47487019091302       -6.43775514669377        4.23759478760292
C           -2.05221047206133       -7.43266546300807        5.08719371117792
C           -4.84264872782094       -1.16293289340466        2.23613602333684
C           -2.01935408194114       -2.80957884998567       -0.49996250455217
H           -1.27079615121067       -8.06407761916462        5.52050391520491
H           -2.83396691831737       -8.14498484564157        4.52438113936403
H           -2.47511811354649       -6.79120107030247        5.93850387399233
H            6.25080007000940        2.72301253120858        2.46565605228739
H            5.50733262978751        3.47465651078758        3.89552324813153
H            5.55918463543449        4.56674099530679        2.28634315458604
H           -1.70691680498550       -2.80100430501758        0.48506353637009
H           -1.22472343296972       -2.65346135619705       -1.21033902735615
H           -2.39501746385333       -3.78359819307574       -0.70432851030707
H           -4.92184059870326       -1.63829729306644        3.23479465504750
H           -5.09631420476958       -1.81109236375682        1.40330167992631
H           -5.41466496731278       -0.19322613317754        2.33603729521081
H           -5.29085605642956        1.71291589337834       -5.06629052909942
H           -4.24945335659432        3.14223699414387       -5.26617434365379
H           -5.38964434508741        3.28126044531491       -4.02546259645222
C           -1.42337519521703        3.88952307903310        3.45933328347824
C           -1.80655481844786        2.69273077714370        3.99729439030292
C           -0.77268317410112        2.01458694195554        4.76200543171071
C            0.55930511742788        2.48776802119426        4.83975233896358
C            0.72337606425083        3.81967286867790        4.30592438318727
C           -0.24981016289926        4.50517731409031        3.68573288443184
C           -1.19408710677179        0.86071487239509        5.55225307302522
C           -0.12014210373583        0.11287201378387        5.95657533155448
C            1.22794716995829        0.71483930206908        6.02272624571827
N            1.56550899730887        1.96519732914199        5.58092755313361
C           -2.43497955012061        0.28271520543153        6.00062126032288
C           -2.48882168425422       -1.08991098353975        6.37902635170289
N           -1.41108495045957       -1.76619595832653        6.77993977835518
C           -0.24667118217706       -1.24809213230974        6.42701402586987
C            0.90592225369642       -1.91648349044048        6.70360417168772
C            2.14466254727896       -1.20853562517262        6.84628634729408
C            2.30778820957837        0.13552165828659        6.65654538958552
C           -3.63012731332753        0.98859710805574        5.84631706553496
C           -4.74443835545819        0.27336682736960        5.47240717839286
C           -4.75567218251767       -1.08344882965861        5.58768050340700
C           -3.65720247659615       -1.81676474989284        6.07934526829260
O           -3.84632533803952        2.38145068660982        5.94102683042150
O           -2.97532678741554        1.97085737978819        3.54318243415585
C            0.03067156267904        5.91643907500598        3.42761419383529
C           -5.95967143592025       -1.89627885428988        5.28830391221537
H            1.70369900801862        4.32720438128977        4.48668642999555
H           -2.00937902070745        4.41172715097062        2.71964061477662
H            3.23182687748338        0.58000424486272        6.92154305320093
H            0.81376901859555       -2.97953218708931        6.95543516974382
H           -3.61223775823167       -2.89204663518290        6.24201078181935
H           -5.72324203673016        0.83833152077330        5.41672986390269
O            1.17517907284253        6.33552924005436        3.53815482427092
O           -1.01472165494982        6.64401024487472        2.85526493531585
C           -0.42957196100650        7.84464558638359        2.48081409342355
C            3.25301114576126       -2.08983647190277        7.38808434419299
O            2.97994086395615       -3.24031003529919        7.69733374013916
O            4.61811925882024       -1.62289324156168        7.43775612588377
C            5.46957784923495       -2.70238123143792        7.30957168267730
O           -5.90334885556561       -2.92486242361298        4.61682618924725
O           -7.11654184126752       -1.42191852492758        5.93199852174887
C           -8.31990483085545       -2.12363256864643        5.68482823426362
C           -2.84621778033332        3.09990755218811        6.70596943793777
C           -3.98535735474605        2.72631282976707        2.98295353585120
H           -8.58694830438608       -2.87857015183450        6.57748890213777
H           -8.33755827557027       -2.65884416286852        4.67893129497039
H           -9.13411389976119       -1.41097533254128        5.65143149009503
H            6.00145206161026       -2.70820375960027        6.31285565261723
H            4.98454975768051       -3.64713331417983        7.49446714495388
H            6.33270691699777       -2.75790267431925        8.05850964452673
H           -3.60486576508730        3.21248535638199        2.11397083440529
H           -4.50030161289949        3.31103750894991        3.74881237328349
H           -4.80833379254081        2.10984534545598        2.61214025193787
H           -2.84750154634346        4.21796779273706        6.50879695914476
H           -1.79940853502171        2.76190031536781        6.35951090279491
H           -3.07925369319131        2.94435400127702        7.77210888266154
H            0.08528795384202        7.66660472742161        1.49316260841476
H            0.34040295835837        8.12377137679698        3.14012911844507
H           -1.19404504496738        8.52974217291358        2.25620709644591
116
 energy: -22.860548861690 gnorm: 0.391216951978 xtb: 6.6.1 (8d0f1dd)
C           -2.91902192730226        0.23104960070228       -1.67454513478908
C           -2.43285858710728       -0.29531992809336       -0.46497760928394
C           -1.50809680989457        0.35400058813285        0.34181409078089
C           -1.17164373296018        1.71632545635154       -0.07668676433527
C           -1.90461405249260        2.32440461615506       -1.11484083073165
C           -2.82263363351395        1.60925433692328       -1.90976060221929
C           -0.86762996190324       -0.19183282801760        1.54515035732204
C            0.31890430612330        0.37209501064272        1.94316427689930
C            0.58712395409989        1.69136711878789        1.50530785506779
N           -0.21196399643299        2.36484074218903        0.61356728613098
C           -1.24452439079247       -1.42883618299390        2.26637874264023
C           -0.09533261777975       -2.18027521744902        2.63226215888537
N            1.08865273850979       -1.67420764875892        3.01452895497147
C            1.19825893874782       -0.38549548573267        2.75060153745125
C            2.42267848525718        0.30394211792440        3.01909868239018
C            2.73110377206715        1.69060900834023        2.62926210412641
C            1.80208421968926        2.22223200076506        1.78163806535127
C           -2.58646858561685       -2.00126521110960        2.35728497669556
C           -2.77128218891228       -3.31381883705456        2.79372273856166
C           -1.65629567908017       -4.14407016881544        3.11758153357246
C           -0.38801017633916       -3.52610017888340        3.12270664692417
O           -3.59477857588321       -1.17335065704012        2.06873761091727
O           -2.40190828048150       -1.70893171141000       -0.28394316649261
C           -3.62359700043386        2.41795316780996       -2.91806566198588
C           -1.93829598874292       -5.39376626530088        3.81394669009858
H           -1.85377341311313        3.37652669945305       -1.36278217545005
H           -3.47768737798214       -0.44731638768174       -2.30463021493318
H            2.09757695607669        3.23159794060118        1.37605473945483
H            3.03631676138372       -0.26091334389579        3.71002484128456
H            0.31706354549695       -3.96100378203816        3.76764200003814
H           -3.69255930190787       -3.72069557506685        2.55522770666814
O           -3.49212350616928        3.60625433802696       -2.88079405663493