156
 energy: -222.783618320785 gnorm: 0.111268318937 xtb: 6.7.1 (edcfbbe)
C           -2.76410000000000        2.02180000000000       -0.72820000000000
C           -2.88590000000000        0.70630000000000       -0.29320000000000
C           -1.78550000000000        0.11370000000000        0.40820000000000
C           -0.54450000000000        0.79200000000000        0.38690000000000
C           -0.47380000000000        2.09670000000000       -0.10030000000000
C           -1.57950000000000        2.74720000000000       -0.61160000000000
C           -1.88160000000000       -1.17290000000000        1.06600000000000
C           -0.68430000000000       -1.91180000000000        1.29100000000000
C            0.58290000000000       -1.28150000000000        1.19380000000000
C            0.67800000000000        0.12890000000000        0.83520000000000
C           -3.11920000000000       -1.72570000000000        1.58130000000000
C           -3.22730000000000       -3.12310000000000        1.78030000000000
C           -2.02760000000000       -3.96090000000000        1.77180000000000
C           -0.73810000000000       -3.28020000000000        1.66400000000000
C            0.44220000000000       -3.96110000000000        1.92930000000000
C            1.68580000000000       -3.34100000000000        1.86280000000000
C            1.72910000000000       -2.00520000000000        1.48370000000000
C           -4.19520000000000       -0.90160000000000        2.05340000000000
C           -5.41700000000000       -1.50860000000000        2.32590000000000
C           -5.58690000000000       -2.89320000000000        2.31280000000000
C           -4.47130000000000       -3.67960000000000        2.08760000000000
O           -3.93220000000000        0.45220000000000        2.31030000000000
O           -4.01130000000000       -0.08030000000000       -0.57760000000000
O            1.75010000000000        0.73150000000000        0.88480000000000
O           -2.09910000000000       -5.18070000000000        1.91880000000000
C           -5.01240000000000        1.17690000000000        2.85520000000000
C           -5.14070000000000        0.63150000000000       -1.03290000000000
C           -6.98410000000000       -3.48660000000000        2.56710000000000
C           -6.95180000000000       -5.02790000000000        2.62160000000000
C           -7.54750000000000       -2.96320000000000        3.90450000000000
C           -7.92140000000000       -3.06170000000000        1.42040000000000
C           -1.52570000000000        4.20440000000000       -1.10270000000000
C           -2.62620000000000        5.02330000000000       -0.39870000000000
C           -0.16630000000000        4.86390000000000       -0.79120000000000
C           -1.74990000000000        4.23920000000000       -2.62610000000000
C            2.99320000000000       -4.10090000000000        2.14210000000000
C            3.95110000000000       -3.22030000000000        2.97030000000000
C            3.66130000000000       -4.46260000000000        0.80440000000000
C            2.72990000000000       -5.39510000000000        2.93660000000000
H            3.66760000000000       -5.87390000000000        3.22620000000000
H            2.16410000000000       -6.11750000000000        2.34640000000000
H            2.16890000000000       -5.18270000000000        3.84700000000000
H            4.82620000000000       -3.78670000000000        3.29560000000000
H            3.44640000000000       -2.83950000000000        3.85790000000000
H            4.31140000000000       -2.36470000000000        2.39790000000000
H            4.59720000000000       -5.00210000000000        0.96530000000000
H            3.88440000000000       -3.56510000000000        0.22450000000000
H            3.00580000000000       -5.09450000000000        0.20190000000000
H           -8.92510000000000       -3.46960000000000        1.56000000000000
H           -7.54310000000000       -3.41740000000000        0.46010000000000
H           -8.00740000000000       -1.97520000000000        1.36290000000000
H           -8.52120000000000       -3.40910000000000        4.12040000000000
H           -7.68030000000000       -1.88030000000000        3.88750000000000
H           -6.88000000000000       -3.20230000000000        4.73350000000000
H           -7.95010000000000       -5.43220000000000        2.80480000000000
H           -6.30170000000000       -5.38450000000000        3.42230000000000
H           -6.59680000000000       -5.44750000000000        1.67850000000000
H           -4.69350000000000        2.20270000000000        3.04090000000000
H           -5.32710000000000        0.73500000000000        3.80100000000000
H           -5.84490000000000        1.19510000000000        2.15230000000000
H           -5.99470000000000       -0.04510000000000       -1.06280000000000
H           -4.96640000000000        1.01770000000000       -2.03720000000000
H           -5.36930000000000        1.44810000000000       -0.34840000000000
H           -1.70370000000000        5.26200000000000       -3.00720000000000
H           -2.72520000000000        3.82860000000000       -2.89330000000000
H           -0.98760000000000        3.65250000000000       -3.14270000000000
H            0.04270000000000        4.84580000000000        0.28040000000000
H           -0.15770000000000        5.90850000000000       -1.11100000000000
H            0.64870000000000        4.35740000000000       -1.31170000000000
H           -2.59520000000000        6.07070000000000       -0.70760000000000
H           -2.49960000000000        4.98870000000000        0.68530000000000
H           -3.62090000000000        4.63990000000000       -0.63130000000000
H            0.36700000000000       -4.99640000000000        2.20720000000000
H            2.67400000000000       -1.49910000000000        1.40290000000000
H            0.48290000000000        2.58550000000000       -0.08480000000000
H           -3.60050000000000        2.49040000000000       -1.21120000000000
H           -6.25990000000000       -0.89310000000000        2.57740000000000
H           -4.53870000000000       -4.75010000000000        2.15530000000000
C            0.90080000000000        1.08530000000000        4.33960000000000
C            0.74210000000000       -0.22990000000000        4.78940000000000
C            1.80400000000000       -0.83540000000000        5.54460000000000
C            3.01950000000000       -0.11600000000000        5.65080000000000
C            3.12160000000000        1.17510000000000        5.16230000000000
C            2.06940000000000        1.79940000000000        4.50920000000000
C            1.73100000000000       -2.17430000000000        6.08040000000000
C            2.96010000000000       -2.88570000000000        6.30290000000000
C            4.19060000000000       -2.19760000000000        6.37000000000000
C            4.22060000000000       -0.74590000000000        6.20480000000000
C            0.49820000000000       -2.88930000000000        6.30330000000000
C            0.49110000000000       -4.30630000000000        6.23760000000000
C            1.73990000000000       -5.06210000000000        6.32670000000000
C            2.97850000000000       -4.29380000000000        6.42260000000000
C            4.18180000000000       -4.95630000000000        6.58620000000000
C            5.39180000000000       -4.28250000000000        6.65780000000000
C            5.36990000000000       -2.89850000000000        6.55600000000000
C           -0.73690000000000       -2.24120000000000        6.65730000000000
C           -1.92440000000000       -2.96700000000000        6.49710000000000
C           -1.92860000000000       -4.31260000000000        6.16810000000000
C           -0.71140000000000       -4.98160000000000        6.13390000000000
O           -0.68210000000000       -0.96000000000000        7.17940000000000
O           -0.38240000000000       -0.96560000000000        4.46770000000000
O            5.22010000000000       -0.09450000000000        6.47330000000000
O            1.74450000000000       -6.28410000000000        6.36190000000000
C           -1.93090000000000       -0.40630000000000        7.52080000000000
C           -1.46570000000000       -0.22360000000000        3.95950000000000
C           -3.22800000000000       -5.08470000000000        5.91050000000000
C           -3.05520000000000       -5.98750000000000        4.67240000000000
C           -3.55750000000000       -5.94660000000000        7.13910000000000
C           -4.40150000000000       -4.12660000000000        5.63570000000000
C            2.18020000000000        3.21550000000000        3.92620000000000
C            1.20360000000000        4.14490000000000        4.66670000000000
C            3.60700000000000        3.77700000000000        4.06880000000000
C            1.82130000000000        3.17890000000000        2.42840000000000
C            6.69560000000000       -5.08060000000000        6.79320000000000
C            7.92180000000000       -4.15430000000000        6.89890000000000
C            6.86300000000000       -5.97560000000000        5.55190000000000
C            6.63400000000000       -5.95300000000000        8.06010000000000
H            7.55930000000000       -6.51340000000000        8.19340000000000
H            5.81580000000000       -6.67010000000000        8.00840000000000
H            6.48260000000000       -5.33560000000000        8.94520000000000
H            8.83770000000000       -4.73520000000000        7.00760000000000
H            7.84220000000000       -3.49670000000000        7.76410000000000
H            8.02650000000000       -3.53950000000000        6.00550000000000
H            7.78860000000000       -6.54850000000000        5.60380000000000
H            6.88790000000000       -5.37240000000000        4.64480000000000
H            6.03740000000000       -6.67990000000000        5.45960000000000
H           -5.29740000000000       -4.68880000000000        5.37930000000000
H           -4.17280000000000       -3.46090000000000        4.80380000000000
H           -4.63780000000000       -3.52150000000000        6.50960000000000
H           -4.47960000000000       -6.50700000000000        6.98740000000000
H           -3.68130000000000       -5.32410000000000        8.02450000000000
H           -2.75890000000000       -6.65950000000000        7.34020000000000
H           -3.99230000000000       -6.47660000000000        4.41030000000000
H           -2.31330000000000       -6.76560000000000        4.84120000000000
H           -2.73020000000000       -5.40280000000000        3.81330000000000
H           -1.77130000000000        0.59770000000000        7.91490000000000
H           -2.41330000000000       -1.01430000000000        8.28710000000000
H           -2.56400000000000       -0.33850000000000        6.63580000000000
H           -2.32440000000000       -0.89020000000000        3.87320000000000
H           -1.22070000000000        0.16190000000000        2.97010000000000
H           -1.71600000000000        0.59370000000000        4.63600000000000
H            1.98960000000000        4.14650000000000        1.95780000000000
H            0.77660000000000        2.91410000000000        2.27720000000000
H            2.41990000000000        2.43310000000000        1.90530000000000
H            3.89580000000000        3.85550000000000        5.11630000000000
H            3.67640000000000        4.77320000000000        3.63240000000000
H            4.32810000000000        3.14030000000000        3.55710000000000
H            1.25850000000000        5.16020000000000        4.27500000000000
H            1.43550000000000        4.17840000000000        5.73080000000000
H            0.17610000000000        3.79950000000000        4.55870000000000
H            4.15890000000000       -6.02920000000000        6.64060000000000
H            6.28170000000000       -2.33270000000000        6.59290000000000
H            4.06710000000000        1.67200000000000        5.27380000000000
H            0.10330000000000        1.54440000000000        3.78960000000000
H           -2.85920000000000       -2.46240000000000        6.63850000000000
H           -0.67980000000000       -6.04940000000000        6.01720000000000
156
 energy: -222.800015248317 gnorm: 0.046370314338 xtb: 6.7.1 (edcfbbe)
C           -2.75942115784473        2.02169876585982       -0.72947132219066
C           -2.88087307653420        0.72238102341915       -0.27478918933600
C           -1.79681756186074        0.11067505543812        0.41903084511863
C           -0.55262992612090        0.78325434020534        0.38200143377827
C           -0.46876059817351        2.08772701873563       -0.11135841595836
C           -1.56921649107089        2.74814369457768       -0.61293096444526
C           -1.89306990566130       -1.16619975713620        1.06376376520508
C           -0.70249426940176       -1.90095517544590        1.29105868581447
C            0.56874000450877       -1.28497680626346        1.18445668626650
C            0.67737818397313        0.12322395589705        0.82596179065656
C           -3.11655851662595       -1.71523591782471        1.57315031234169
C           -3.22514090230323       -3.10954117242061        1.77533971563660
C           -2.03009344303038       -3.95713412293988        1.75183687422094
C           -0.74653970491542       -3.26621190756890        1.66624971389520
C            0.43465675853272       -3.95427227777266        1.92999869896491
C            1.68251247777143       -3.34432425960970        1.85718217310903
C            1.71968966794005       -2.00950102964575        1.47326733216738
C           -4.20634806180583       -0.91432597036230        2.02689274970572
C           -5.41630426286708       -1.51347028081528        2.32108824876275
C           -5.58544259093626       -2.90290115505594        2.30397549095268
C           -4.46491149760720       -3.67825829324400        2.08735690755835
O           -3.95920130207576        0.43600957157405        2.26085040829328
O           -4.00338479743009       -0.05430288956578       -0.54485496617021
O            1.76556605066142        0.71344526039208        0.82819270671922
O           -2.10637809784346       -5.18676770938826        1.87383786801779
C           -5.01081272542556        1.16821249395200        2.83773420763142
C           -5.13316545369464        0.63082571517447       -1.02196798136804
C           -6.97761237451369       -3.48784363888685        2.56399429259624
C           -6.95455025644520       -5.02163610791045        2.61967595934329
C           -7.54546136980519       -2.96584057104710        3.89591239223872
C           -7.91625189661270       -3.06253943581833        1.42239804208872
C           -1.52250471543599        4.19985657523627       -1.09875526897453
C           -2.62168166908344        5.01852464961409       -0.40028879754781
C           -0.17228412740880        4.86321728889659       -0.79314690562549
C           -1.74928966069981        4.23874097327395       -2.61902377562524
C            2.98498579724855       -4.09905543919808        2.14368122133208
C            3.94329946294722       -3.22163160959489        2.96474035199891
C            3.65284670956226       -4.45856951074989        0.80616413926773
C            2.72943996358230       -5.39095619703286        2.93127497824968
H            3.67286941298325       -5.85573675608169        3.21855259918717
H            2.16955798907173       -6.11486135016591        2.34083706289933
H            2.17212897779297       -5.17802488557431        3.83982274000270
H            4.81085073570143       -3.79686781916779        3.28958085689987
H            3.43917683346178       -2.84397242729086        3.84975726665388
H            4.30652715961108       -2.36969052221628        2.39320743529751
H            4.58734633601017       -4.99603653244177        0.97531582834620
H            3.87518913758383       -3.56063817703878        0.23026225208223
H            2.99791463778148       -5.09136035460489        0.20700370353913
H           -8.91771971451930       -3.47203071396364        1.56748485004986
H           -7.53408237917673       -3.41949083357279        0.46699269710016
H           -7.99831925347262       -1.97803174714457        1.36692354522766
H           -8.51764995554324       -3.41586843829981        4.10556325785425
H           -7.67767235849058       -1.88542313491682        3.87704982634741
H           -6.87414405564307       -3.20560729867813        4.71751670731862
H           -7.95715275890038       -5.41186901906071        2.80481911642011
H           -6.30372979766353       -5.37146791750225        3.41812019182938
H           -6.59996769289778       -5.43774250532193        1.67844691775386
H           -4.65248218620868        2.18415240933585        3.01472515099553
H           -5.32032210923034        0.73470911833265        3.79530964754914
H           -5.86974959173823        1.21010737119249        2.16001852554790
H           -5.96499785475913       -0.07573808888843       -1.04401597040431
H           -4.97114741842019        1.01195473328660       -2.03662544426033
H           -5.38835793282488        1.46031220264216       -0.35551111364915
H           -1.70247525418376        5.26254417718927       -2.99462828078057
H           -2.72204758000576        3.82654952006492       -2.88314873393571
H           -0.98672844500741        3.65147726878043       -3.12900379343898
H            0.03427734841598        4.83968060562985        0.27512548337858
H           -0.17849812556447        5.90596088346227       -1.11588280128561
H            0.63839606133946        4.35731707103823       -1.31382601794662
H           -2.58580372843841        6.06378330155628       -0.71263839272300
H           -2.49034231409541        4.97951891672128        0.68008400075519
H           -3.61318990284764        4.63377563149749       -0.63264958914496
H            0.34810729836409       -4.99171903506059        2.20892327982442
H            2.66217958970250       -1.48882913221621        1.40309015838612
H            0.49610925530628        2.56409201966397       -0.08393465102817
H           -3.59812131420784        2.49298510200062       -1.21687951480051
H           -6.26092270209760       -0.89781150532011        2.58725330852026
H           -4.51207878793973       -4.75115338690339        2.16524031497413
C            0.91150987478381        1.08147925332751        4.34394855433344
C            0.75628023293457       -0.21911668793770        4.80216725049448
C            1.80093643803743       -0.83927831151842        5.55022247428079
C            3.01691619781369       -0.12123911533944        5.65218170656244
C            3.13169116041179        1.17631993659809        5.15886586057248
C            2.08735126503070        1.80379566700475        4.51134452043327
C            1.72441446429397       -2.17191448010780        6.08113343352043
C            2.93888907041047       -2.87413788685702        6.29451508736125
C            4.17836432961018       -2.19035691789389        6.36017405000848
C            4.22093346263755       -0.73763931089543        6.21143388332181
C            0.50201327981723       -2.88580998713973        6.30085678386890
C            0.49171934027775       -4.30037802319369        6.24158325349022
C            1.73458369638195       -5.06651737765067        6.32398936348022
C            2.96543605012997       -4.28601487525300        6.42997858417359
C            4.17471583833533       -4.94892896435301        6.58864845629012
C            5.39016950028194       -4.27755120298402        6.65406642764289
C            5.36143753237733       -2.89248735238597        6.55004236579420
C           -0.73322132138206       -2.25603724944605        6.63429452875696
C           -1.91351687984119       -2.97085544432940        6.49760013768392
C           -1.92606307476232       -4.32353519110997        6.16590102515060
C           -0.71422399642971       -4.98648227781674        6.14288243720812
O           -0.68513462883961       -0.97712962000782        7.15664247875791
O           -0.36662605690401       -0.94851979718946        4.49335781589387
O            5.23614103452894       -0.08197410879580        6.47933653224504
O            1.74084858119884       -6.30377369820339        6.36250208511167
C           -1.92076212965318       -0.41132390690721        7.51375794146777
C           -1.45581799093879       -0.22446015793922        3.97830131428658
C           -3.22552111356504       -5.08379402695142        5.91195417375722
C           -3.06083743144057       -5.99219610985209        4.68577513200960
C           -3.55721360769002       -5.94338901766863        7.14067167588365
C           -4.39922324441216       -4.13318450092463        5.64118850935294
C            2.18686434023106        3.21605446353077        3.93353990579914
C            1.20890952246522        4.14341047548739        4.67115807314421
C            3.60477494005328        3.78303568506536        4.07126839439463
C            1.82546199495659        3.19156169876572        2.44232171522377
C            6.69057945681018       -5.07329502126890        6.79294081172458
C            7.91998958927682       -4.16004757881739        6.89896016795620
C            6.86106726746074       -5.97151213761530        5.55716020052830
C            6.63351637312445       -5.94867510377093        8.05521960231360
H            7.56142992279556       -6.50837480835719        8.18378327578377
H            5.81362162349629       -6.66122611707938        8.00091299026862
H            6.48187880602833       -5.32820601816383        8.93716640549267
H            8.82920710753733       -4.75311931747562        7.00810714452300
H            7.83849502873186       -3.50330817245703        7.76310151694812
H            8.02377729572725       -3.54758572764782        6.00563806154748
H            7.78848034285366       -6.54362285831098        5.61367420069662
H            6.88614152686992       -5.36512224208416        4.65315107165709
H            6.03323769755013       -6.67145527320113        5.46727566451924
H           -5.28851577696852       -4.70718847197610        5.38384754873980
H           -4.16718793874124       -3.47288583752210        4.80740267943249
H           -4.64001005037414       -3.53008220624534        6.51619446119229
H           -4.47990512246711       -6.50374895696930        6.98347021168414
H           -3.67967636635115       -5.31837333146605        8.02494632682252
H           -2.75508601648779       -6.65204288780142        7.33673021508186
H           -4.00315490023401       -6.47784088839295        4.43202149423254
H           -2.32076616264490       -6.76820033060764        4.85866842949106
H           -2.73300961327903       -5.41738736153825        3.82476634758698
H           -1.72765140607288        0.58858899336807        7.90712943292024
H           -2.41485232521494       -1.00847280138151        8.28902924195661
H           -2.57803603868086       -0.32778890281202        6.64346780340961
H           -2.29382695985737       -0.91628422138576        3.90102969095868
H           -1.23863152532477        0.16618166709899        2.98293595730363
H           -1.72571966351834        0.60221858118275        4.64312627668598
H            1.99769859466414        4.16371673937751        1.97839402083308
H            0.78160133501156        2.92681998386195        2.29410239401162
H            2.41853842371807        2.44369817822347        1.92207264954525
H            3.89391764666832        3.85992797575857        5.11785874952934
H            3.66055097680514        4.77850112493289        3.62905177105178
H            4.31822948767150        3.14318022815890        3.55635966000637
H            1.26450344824493        5.15794448622195        4.27384089734037
H            1.44182410923054        4.17486296922568        5.73472365878500
H            0.18485942585120        3.79186936154225        4.55921753701996
H            4.14438761437758       -6.02720768179062        6.64159584843154
H            6.27048153749111       -2.31518295123300        6.59490910446519
H            4.08449246798880        1.66281349688928        5.27966931175746
H            0.10999567551269        1.53954745991247        3.79066821002151
H           -2.85058015955769       -2.46374612301104        6.64713772856871
H           -0.67243564960757       -6.05735339241112        6.02937246938538
156
 energy: -222.806658429192 gnorm: 0.016128811843 xtb: 6.7.1 (edcfbbe)
C           -2.75468009434775        2.02896375582457       -0.72647691076480
C           -2.87572123253983        0.74194314336174       -0.26018545410245
C           -1.80272597983950        0.11244667060339        0.42651662813163
C           -0.55623373118102        0.77852341055301        0.37397298947370
C           -0.46280585109479        2.08500696007442       -0.11864511458487
C           -1.55779486526180        2.75447234507510       -0.61224284777770
C           -1.90390114090187       -1.15848105698292        1.05987419666009
C           -0.71822456261788       -1.89197128409810        1.28748099767783
C            0.55635927835522       -1.28662554395254        1.17476213462250
C            0.68212661734605        0.11287854317308        0.79024346568879
C           -3.11866289314371       -1.71003381124759        1.55895192841481
C           -3.22618001245585       -3.10109450131800        1.76763668342912
C           -2.03499839758831       -3.95418279447456        1.73308077058707
C           -0.75641746075148       -3.25564295068051        1.66368662928287
C            0.42382940761076       -3.94772597767357        1.92961196016740
C            1.67460673204325       -3.34474595454427        1.85730895647903
C            1.70752422512026       -2.01056756332097        1.47099557147101
C           -4.22113313508696       -0.92783842857196        1.99978067826179
C           -5.42055675855169       -1.52137831335868        2.31123704729966
C           -5.58637444819546       -2.91592221871957        2.29899977169935
C           -4.46103426596523       -3.68034911149184        2.08862454066883
O           -3.98909600974396        0.42243769321252        2.20135862219444
O           -3.99767543223747       -0.02646633393655       -0.50974621466250
O            1.77823480522823        0.69458047942586        0.75834849835009
O           -2.11721606114276       -5.19101022597169        1.81256093197715
C           -5.00552567800239        1.16498205087965        2.81362371258298
C           -5.12989493411790        0.62510016480822       -1.00795152330865
C           -6.97396529767269       -3.49137037158353        2.55951183459111
C           -6.95609582757049       -5.01993269493252        2.61623549308936
C           -7.54032269163182       -2.96832350403330        3.88901201686628
C           -7.90916840595029       -3.06256959561436        1.41815676097914
C           -1.51788522384189        4.19811233602664       -1.09768399731849
C           -2.61717612170277        5.01164669489884       -0.39789751915362
C           -0.17415738399196        4.86371831625219       -0.79432873787777
C           -1.74715938123684        4.23569557934336       -2.61613265815987
C            2.97281478623089       -4.09572884753901        2.14140485806691
C            3.93057615840365       -3.22130123378011        2.95967593487648
C            3.64083496303988       -4.45257009326169        0.80303908832079
C            2.72522417623965       -5.38596025481579        2.92559944787343
H            3.67487766453142       -5.83850331574874        3.20907104075092
H            2.17188083362088       -6.11240841942418        2.33471640781587
H            2.17054539321584       -5.17779307486866        3.83498591654784
H            4.79222088188886       -3.80453487806760        3.28333548363612
H            3.42889466013592       -2.84359177444608        3.84395655291073
H            4.29768375017348       -2.37359238163324        2.38741589481567
H            4.57462055704224       -4.98768122097520        0.97913594331073
H            3.86117617203689       -3.55343676865297        0.23113807002468
H            2.98659847225599       -5.08661355631620        0.20677480579890
H           -8.90894721166364       -3.47209251211681        1.56831165852310
H           -7.52551905945973       -3.42125956600313        0.46576279487217
H           -7.98765824035708       -1.97921329196210        1.36544359224085
H           -8.51079507211490       -3.42292402553396        4.09141718948707
H           -7.67543302151399       -1.88994036744259        3.86787817168909
H           -6.86724527601331       -3.20847470598417        4.70667078633317
H           -7.96199317708493       -5.39836808106207        2.80252731093571
H           -6.30617199655391       -5.36608854260852        3.41416024761045
H           -6.60243675711311       -5.43499900293239        1.67641786519978
H           -4.60437099243508        2.16832800177963        2.97831953739740
H           -5.30050598340657        0.73947809116947        3.78347064021437
H           -5.89737421718610        1.23496082535464        2.17179336169467
H           -5.93584311862077       -0.11303590903930       -1.01784285471439
H           -4.97939505630835        0.99444162061776       -2.03333275544962
H           -5.41741972708470        1.46970778887728       -0.36661607622344
H           -1.70105506144507        5.26067920026463       -2.98574777336989
H           -2.71887004796425        3.82282179487211       -2.87645428613647
H           -0.98375070060491        3.64902266362333       -3.12209587485496
H            0.03195480841622        4.83679261847368        0.27184337804384
H           -0.19303378775818        5.90505687665677       -1.11796123741720
H            0.63417611986993        4.36030059504183       -1.31676159589549