116
 energy: -22.928061455056 gnorm: 0.329736929581 xtb: 6.6.1 (8d0f1dd)
C           -3.31122850772930        0.79849766164622       -0.92477639677520
C           -2.44380812530352       -0.12270372891954       -0.27661132624697
C           -1.41337090092821        0.39579727573559        0.56335275196199
C           -0.89266158675590        1.65801491088749        0.27377586709581
C           -1.72665675402493        2.51431363229076       -0.49448366572522
C           -2.95444148494349        2.13954154133227       -1.01494489940871
C           -0.74098268209890       -0.43411532818871        1.49825021926784
C            0.56872586496315        0.03782116815119        1.86248088067890
C            1.03782416582094        1.29402317993033        1.50887470833621
N            0.31238977034758        2.07067427098208        0.65193736800696
C           -1.29695700510141       -1.39996043042223        2.41574187746061
C           -0.38243517664656       -2.18060797534842        3.13232615520648
N            0.91308504082021       -1.90366887689689        3.30325166013478
C            1.37712470144904       -0.74872102533751        2.81811050966982
C            2.52149331701875       -0.17739833758153        3.39379298866852
C            2.95849061756259        1.02681208890480        2.95105897606587
C            2.24288949469137        1.78498308775960        2.03503020483770
C           -2.74860936222260       -1.74497937691422        2.38401158947411
C           -3.09416315450955       -2.91614440870436        3.00571134491758
C           -2.16786021984049       -3.77788778654213        3.63251872101904
C           -0.85708937311598       -3.40495313382985        3.68547234358092
O           -3.71994433332149       -0.94984598373544        1.67726658385724
O           -2.55702603277562       -1.47241711578389       -0.57241635275616
C           -3.84297843593025        3.13357444054366       -1.60938954875544
C           -2.68769581069131       -5.03867041417370        4.30484659386931
H           -1.39666850744143        3.51251503834900       -0.76806311868865
H           -4.27662633836220        0.55105838579656       -1.33106614114542
H            2.66329581305412        2.73912661909249        1.72562431984580
H            3.05775395548473       -0.69369546277216        4.16536137542516
H           -0.24710966264510       -4.12034095424229        4.22946223699121
H           -4.11477991332403       -3.04712728052358        3.03244694615357
O           -4.21824883374556        4.03433712717988       -0.87713382485991
O           -4.44510595673734        2.90643496899600       -2.81853501752979
C           -5.44216520282800        3.83300025693726       -3.02488532025093
C            4.23586651889298        1.50004220933226        3.59165660008449
O            5.05927614697201        0.66079890002952        3.91714215179376
O            4.47001334453535        2.86385149488593        3.72605651435371
C            5.79457498613219        3.08584475587818        4.15829123132174
O           -3.82227255313510       -5.27347675879771        4.16636005494405
O           -1.85023202017753       -5.79767454267276        5.06656077253571
C           -2.55119635829503       -6.86252441382958        5.62930343183426
C           -5.07197156564436       -1.42399175670916        1.58830531863830
C           -1.33089900128490       -2.23622472573986       -0.99264499351172
H           -2.54510546830388       -7.76426885143998        4.99136022291012
H           -3.57194749219491       -6.44405511486021        5.74196173723541
H           -2.09133598235598       -7.02043774843818        6.64022264233588
H            5.72707967266424        3.46798026205549        5.10135971236643
H            6.34060091246885        3.78468702308830        3.50069950143490
H            6.17933064298187        2.03010500085905        4.19342358084693
H           -0.91862729772622       -2.57650129080332       -0.01361370304871
H           -0.49769766914251       -1.60651221708571       -1.34094446550576
H           -1.52632419730509       -2.94569707152159       -1.75361447637286
H           -5.11788846557077       -2.41810833635233        1.17520213188926
H           -5.67929807973498       -0.69619639428435        1.04301666067831
H           -5.57598832326623       -1.42383358739762        2.57928294206544
H           -6.13050215934830        3.76035386975488       -2.23272855695873
H           -5.86615610071888        3.45938329385866       -4.02668959924245
H           -5.13479557532099        4.87790991548477       -2.98314551356402
C           -1.38192942069774        3.73616555005018        2.91232598411686
C           -1.84821468128685        2.59982427735607        3.49755545445181
C           -1.05946531454833        2.05730632010638        4.60922730982276
C            0.19893954712228        2.69376791964407        4.86302140881997
C            0.50425395911860        3.94630308659851        4.28768785650746
C           -0.26031777722226        4.46998310053134        3.25072669343212
C           -1.20488993561782        0.74454293276906        5.14851520323437
C           -0.06287609782692        0.02744069315890        5.60930570802864
C            1.19208754369866        0.71421540266195        5.78882868583885
N            1.19428660993148        2.06344359410476        5.62744624321596
C           -2.41361422770794        0.07928500213936        5.25249410304426
C           -2.45851584031083       -1.32662100968547        5.60237876023992
N           -1.29466212405906       -1.98318595734370        5.89916817085159
C           -0.14475655767527       -1.32117560077092        5.98824682881008
C            0.97209270935794       -1.98958449505532        6.53157704134458
C            2.21982707914082       -1.36973967291181        6.68703967237737
C            2.30561929262884       -0.09745313075593        6.26436900324455
C           -3.73018485967715        0.71367583494582        5.25810242262992
C           -4.89964478833448       -0.06184623426677        5.21204641615509
C           -4.82617965800088       -1.39228978090841        5.46901303780036
C           -3.67144193418464       -1.98914944386360        5.67265433266067
O           -3.75568638935321        2.07705011038914        5.52067969627343
O           -2.94192434743730        1.91263938797883        3.01658762327703
C            0.21273512614467        5.50086066357994        2.34765104514621
C           -6.06660304520411       -2.17604633098929        5.80641622556876
H            1.41756699010566        4.38133362238595        4.66974005703471
H           -1.82880610647429        4.11982501512100        2.06992133318584
H            3.26888037378556        0.32655662585251        6.31721410015598
H            0.87146188387207       -3.08471526305024        6.57830423410869
H           -3.67716811065157       -3.05999292755990        5.83019634570050
H           -5.77379677507622        0.43595144608221        4.71017130754348
O            1.34459852619901        5.82615848916894        2.44941456579099
O           -0.74718748219123        6.07961784856304        1.59848183464284
C           -0.21473095568964        7.24015934882472        1.05753806029483
C            3.53228080814219       -2.00967610361154        7.02506769044485
O            3.64093082622715       -3.14437803815732        7.50071391725347
O            4.56565258381079       -1.22937033368332        6.69086985080897
C            5.72579357310716       -1.80692399125161        7.22246151275881
O           -7.04801223588612       -1.95726935745904        5.14194115322235
O           -6.01514389321278       -2.93743591896022        6.94765316328794
C           -7.21292732384718       -3.62681918543340        7.15115816329978
C           -4.95459780685163        2.65960679932188        5.86868674392943
C           -3.68284113682406        2.59129188358641        2.05479246020704
H           -7.43119628931628       -4.22607794725959        6.20622607140901
H           -8.06548455146707       -2.91765848248592        7.29781126410398
H           -7.07314693247270       -4.33087306029711        7.91223421050944
H            6.57332189837178       -1.29353136199234        6.78341268688262
H            5.74663761932316       -2.84282155125561        6.88089468184451
H            5.69426191474290       -1.72781984964892        8.29460302186842
H           -4.10481209541493        3.44288266176275        2.60483747673152
H           -4.49244774344916        1.87419893016926        1.82433103764650
H           -3.18901540870812        2.85154642679373        1.06781919454921
H           -5.55414326821421        2.76698137191684        4.93950725322359
H           -4.78658370641210        3.62090640967288        6.25983200635257
H           -5.43485580473958        1.97242995129449        6.65265772412460
H            0.89164886030839        7.38838561720231        1.13776105146914
H           -0.62894889903848        8.04195665205089        1.64837664327952
H           -0.59282546386754        7.45699159724320        0.03719083132488
116
 energy: -22.457412394877 gnorm: 0.612331382709 xtb: 6.6.1 (8d0f1dd)
C           -2.40659814624296        0.40602096377932       -2.02103732337862
C           -1.61665080648752       -0.69750137150700       -1.43543642968876
C           -0.63328322097006       -0.16077026255220       -0.56474982936042
C           -0.32010989301818        1.13752829536436       -0.25191852513347
C           -1.19200751491031        2.05270910855016       -0.76135980563536
C           -2.25431154033316        1.74167140546470       -1.52794441535201
C            0.09983742053747       -1.11495761754777        0.18493288986407
C            1.35290685103892       -0.76902511881093        0.52133139081526
C            1.66165023353512        0.61577112847880        0.46432179540795
N            0.76995038208582        1.66116445745354        0.29856076838411
C           -0.46190093257160       -2.19313075756773        0.97073305728379
C            0.54875245084171       -3.07064523691058        1.55901041531022
N            1.90009405353935       -2.98821585296864        1.34530875718997
C            2.23579758828880       -1.70816607744411        1.04852200938784
C            3.65449847406536       -1.34838672058466        1.19840084604691
C            3.96830436758209        0.02939053989363        0.98615026370617
C            3.06131605764559        1.05934626603644        0.72162629407262
C           -1.79386552279448       -2.21842819282112        1.49791343615995
C           -2.24027474252421       -3.24513663979970        2.34947267917758
C           -1.20796426805286       -4.07660680410846        2.81453277530027
C            0.16231246194004       -4.02619658768458        2.61903858009030
O           -2.48822429306674       -0.94734163746650        1.36806576936870
O           -1.83498717278224       -2.06409648759421       -1.61984074654872
C           -3.20274188080486        2.82607064139809       -1.90688476728224
C           -1.54181639416294       -4.91096448634112        4.12229737202125
H           -1.02048750528885        3.10678259875371       -0.39204705954628
H           -3.18012345289350        0.01980724817255       -2.81181974034319
H            3.12902088141362        2.02654617630586        1.00692843945981
H            4.24107608938664       -2.09336863719157        1.72760592131906
H            0.69069860896898       -4.75094288902183        3.06781009369587
H           -3.16000263787520       -3.65315109605997        2.64698670528207
O           -3.20440906486920        3.79230581605140       -1.21636104708313
O           -4.01110797070356        2.63791530600225       -3.01900675214279
C           -4.44409065294514        3.78466512001494       -3.71881155154716
C            5.36222923492743        0.56682784012325        1.74265306665684
O            5.95417767367660       -0.20309988568664        2.43476447613962
O            5.95251836843455        1.84696117953601        1.35741343061775
C            6.69732242322495        2.46957252027383        2.31383130786541
O           -2.64502813759840       -5.38879301753531        4.24899838914374
O           -0.54623388277712       -5.57161894879593        4.96466952004762
C           -1.14412380641966       -6.02136831893095        6.05486506889830
C           -3.55351974544895       -0.76404206678713        2.27932858367967
C           -3.05991255258946       -2.32911435920405       -2.23765767696023
H           -1.30809469299713       -5.18265064928241        6.86527421070948
H           -0.56112953858089       -6.99781917459768        6.35088843196097
H           -2.21868474132158       -6.46996115291427        5.84600400888391
H            7.60605138815775        2.61701274974021        1.94668539294141
H            6.86097126354958        1.54571256904409        2.92389170999812
H            6.44357694512101        3.29889727022020        3.04240729839100
H           -3.17823621116835       -3.45506301319465       -2.19869539122315
H           -2.87527385532888       -2.12317859188546       -3.29915077604525
H           -3.81836590177626       -1.53120750951066       -2.00976640623114
H           -3.77063310636523        0.11833080774397        2.78351174726959
H           -3.31928583390440       -1.41846144649332        3.14347183662485
H           -4.52260639698954       -1.30899353234260        2.10457104623488
H           -4.61721431457360        4.54088386712626       -3.03444269100924
H           -5.33372297767552        3.31443135796084       -4.27117508646943
H           -4.09386059539804        3.93362666363087       -4.68193608635644
C           -2.66616714419216        4.30380049089058        4.13029781546016
C           -2.81966263335902        2.88923688058540        4.14934883591905
C           -1.82701147672216        2.16256367527507        5.01250806940759
C           -0.65493379580326        2.99568134204746        5.40780396293210
C           -0.59582416116104        4.42555038689326        5.44652013580612
C           -1.57425633619631        5.12855813576471        4.74416463139029
C           -1.96743046854702        0.76620358097647        5.55263509829204
C           -0.74627289082620        0.09078208167156        5.78196764640698
C            0.48133659598626        0.84487357717462        5.82598286337250
N            0.43191343855343        2.26533961236208        5.93535045420029
C           -3.18449923986593        0.14157732960131        5.62686428337551
C           -3.09292232100298       -1.27356651895783        5.94407483648866
N           -2.00566766715946       -1.85767299773519        6.46489606431708
C           -0.76369197585026       -1.28464780490489        6.32755759806417
C            0.63865400632232       -1.76726739090835        6.66716015453368
C            1.89428187250591       -1.17239425846853        6.40936827218820
C            1.64790058115022        0.12605813072976        5.83523312482467
C           -4.46155689002414        0.82284111761400        5.80722432745967
C           -5.67701869502578       -0.07682839935391        5.75610086346916
C           -5.58664687124703       -1.52334868497680        5.89909772628464
C           -4.30316077887880       -2.00599466009152        5.96825414008897
O           -4.48547349765647        2.12922778496757        6.03056353952974
O           -3.70380278978087        2.06210100108634        3.34097848973957
C           -1.19051465507077        6.64267970463810        4.70428880123865
C           -6.69197995900196       -1.90498297816618        6.88211900035056
H            0.13890588112479        5.03814138414877        5.93235637522294
H           -3.47452647804483        4.67972116327230        3.63766304900956
H            2.60571115820629        0.66787460085514        5.68625968772103
H            0.62748472860790       -2.41540492563012        7.45228759680553
H           -4.11688051968906       -3.12466679134955        6.07600920686330
H           -6.64205201512268        0.32327772803535        6.22181545371237
O           -1.21492315549792        7.31632354430452        5.73374742373050
O           -0.89809211997409        7.21360142467230        3.39501793725317
C           -0.73914152470134        8.56313863028727        3.76529778586290
C            2.96424619676008       -1.83226805145317        7.12791343249464
O            2.92881047171954       -3.03724122337168        7.28253587053241
O            3.85801210863939       -1.06703710175638        7.84947033283794
C            4.40731505119306       -1.47057851453510        8.98993781190169
O           -7.75441615296777       -2.46554370045932        6.42855857461994
O           -6.71396874880797       -1.32697403613104        8.20421750531566
C           -7.96518004450406       -1.65521178502633        8.84446009386816
C           -5.94206433651394        2.62663582847343        6.25528535750473
C           -4.59522518976787        2.75814374658329        2.49860530649938
H           -7.60407669875119       -2.71938079351998        9.02125276815068
H           -8.94628585337546       -1.50339335826884        8.28987281565713
H           -8.07991543396201       -1.01390978851041        9.79130960056557
H            4.80220548433656       -0.57360019478096        9.72414303552467
H            5.29987979102340       -2.05749800953571        8.66062324215058
H            3.72276744376298       -2.28532097075478        9.54769883679126
H           -5.02000523074937        3.63465782001107        2.83210800406946
H           -5.65565446311687        2.20171181037522        2.30143274459690
H           -3.78239002291509        2.94078811328603        1.88656141919217
H           -6.60847557149376        2.86919773530511        5.53691097378637
H           -5.42226501696486        3.54268069258421        6.67957480400482
H           -6.53323893130701        2.12249056489902        7.08076898954714
H           -0.98991385838473        9.02916782395583        2.89560100931785
H            0.30612385851428        8.56846874458730        3.86219947950438
H           -1.30782109670187        8.94493702046924        4.72905367085179
116
 energy: -22.506298107051 gnorm: 0.611615751142 xtb: 6.6.1 (8d0f1dd)
C           -1.77006711353141       -0.14952230565486       -1.53785068773933
C           -0.87519755553618       -0.71175344118645       -0.57516245697658
C            0.13279022594421        0.12237735229033       -0.02906781515992
C            0.74495186218430        1.17610387041701       -0.78524513176586
C           -0.08494892441547        1.64839960946311       -1.80183414915078
C           -1.47931826898889        1.17850535289207       -1.89783879881992
C            0.78769316955365       -0.59881335366456        1.08974883863585
C            2.17136204116287       -0.35764300819763        0.85479929137353
C            2.58835299008386        0.89336858157361        0.21782640002716
N            1.98208080406453        1.50974198734809       -0.84226861587347
C            0.44486896005581       -1.77700066916682        1.82490332929973
C            1.36830581850789       -2.68903611748964        2.28832181915020
N            2.68870234896623       -2.47090941963906        2.00901605547718
C            3.11303906249021       -1.33288818830956        1.37494228014343
C            4.51504686991285       -1.10243339565903        1.31794561159108
C            4.90669191761718        0.13547177285674        0.68797100900495
C            4.03804314134057        1.09365219392907        0.12901665548701
C           -0.94851388732648       -1.91822234676554        2.16028133549429
C           -1.45350740695350       -3.07861007507995        2.75070660653854
C           -0.56489707662747       -3.97748409344148        3.31273392681069
C            0.91216615214702       -3.83719476557054        3.04087695420270
O           -1.77390271502268       -0.83308401404302        2.00777749835739
O           -0.80287975109789       -1.99769043681501       -0.23765031244945
C           -2.38717841999890        1.78729337425935       -3.08953382792432
C           -0.98716576933317       -5.27185776680608        3.97178990208393
H            0.23585311945328        2.32476900304256       -2.69657308902789
H           -2.86747626759367       -0.45651516677393       -1.65643547062854
H            4.38321246276031        1.68452604583786       -0.62957273901566
H            5.32269631785554       -1.81991496259359        1.53459074134300
H            1.49207006600377       -4.48470568195821        3.59159358746800
H           -2.42685112636697       -3.18106493754814        3.00585222558705
O           -1.62659229460854        2.61993646165778       -3.69378756382618
O           -3.70111776937847        1.38312792170216       -3.33512406788434
C           -4.41198183834422        2.26987145412593       -4.16327136640129
C            6.27906786957924        0.28204039236600        0.28768492445081
O            7.11198632371232       -0.18705628751285        1.05435388747350
O            6.54486375694067        1.05012965262922       -0.78844582869247
C            7.97929733663660        0.90369187040235       -1.14806752158449
O           -1.77895684077555       -4.99236392165516        4.99020555185408
O           -0.38282818983319       -6.60022603611982        3.61641930059241
C           -1.02517043462376       -7.68497232044705        4.23638604189532
C           -2.37797218214745       -0.23970971138817        3.25247845572563
C           -1.78436217406527       -2.87690723873390       -0.84823279584103
H           -2.18826400445024       -7.23479743329286        4.36814268074994
H           -0.54126983220803       -7.92113940769661        5.12944476990255
H           -1.35332517441854       -8.63628964495650        3.77591966086383
H            7.95277706463063        0.42984369867655       -2.17612754127382
H            8.52794129052188        0.31740099978806       -0.39757236978395
H            8.40178023584950        2.00994965594959       -1.03198503781882
H           -2.66401239606428       -2.45841332276570       -0.42605000601728
H           -1.55840719640926       -3.95896664831839       -0.76987563223067
H           -1.78247531058270       -2.63584935305566       -2.02051974310688
H           -3.18178083320290        0.01120044554307        2.55773120069828
H           -1.79395370008804        0.53656767325177        3.55606624568663
H           -2.68801406699973       -1.04164400369127        3.88121614526325
H           -4.06522073118691        3.38381607946646       -3.91601787000881
H           -5.46446044114908        2.05114533363157       -3.70353022165092
H           -4.60230183483460        1.89947879135335       -5.23305620886910
C           -3.52705496001224        4.86264405081468        5.27204566259323
C           -3.49801330954048        3.47636286929054        5.00601650447837
C           -2.48171638599775        2.65714707803410        5.38469326213015
C           -1.22153604769322        3.25231092161542        5.31186521003986
C           -1.06831061542524        4.59804252401371        5.24201528155244
C           -2.19074196469451        5.31452413979904        5.28335917268150
C           -2.63723441034759        1.28047877916424        5.98819736225168
C           -1.43517007921170        0.56700158159624        6.34172176100267
C           -0.13425779603016        1.10885487128851        6.03111576858169
N           -0.10080532251973        2.43955046715618        5.70153485136171
C           -4.00710371748140        0.66826518119150        6.55234221473295
C           -3.91841068219884       -0.82291973521055        6.55142534734920
N           -2.69231713967924       -1.49754132041419        6.41836951747699
C           -1.55018102033400       -0.84476753163386        6.56130784886362
C           -0.37520487390416       -1.51607351138752        6.73275518458399
C            0.91898975351674       -1.01169631600345        6.55464375613542
C            0.89760031636642        0.30037991095548        6.16716703065536
C           -5.18555586099051        1.36374091317793        6.98092006031047
C           -6.27075164528220        0.50022219235793        7.28152589929390
C           -6.22295376372653       -0.84573545003787        6.78276315132945
C           -5.12211624180169       -1.49014501197537        6.28393028166520
O           -5.25518977834648        2.68605161608453        7.49640544665215
O           -4.60290161668537        3.04307913174321        4.41892952534213
C           -2.20250511215619        6.77114921070723        5.22870119342217
C           -7.60311926343957       -1.27514697258289        6.71395851925112
H           -0.07207238352148        5.04170595044325        5.47398732156369
H           -4.39822282715210        5.41602413257956        5.52934924568037
H            1.89433858537190        0.73987959829860        6.06235360846556
H           -0.30686449252865       -2.55563732552383        7.06417374883357
H           -5.13167913665483       -2.45450479806323        6.52627484931150
H           -7.19686705156045        0.90204672028554        7.68806413401615
O           -1.27449930211843        7.52138682290974        4.89941786407455
O           -3.44823739096217        7.35284986876114        5.45342755885173
C           -3.16655091517170        8.76104054617314        5.41434322234180
C            2.12184689080875       -2.06707512288799        6.78504334966190
O            1.63655400617084       -3.05505633125856        7.13871528609721
O            3.53851052495445       -1.71868238119915        6.66147839502921
C            4.38590093433443       -2.77356571061287        6.28968121093290
O           -7.78555830316227       -2.54200994832242        6.71153647423196
O           -8.63477382540719       -0.44866622861630        6.57998489988151
C           -9.75249204155461       -1.10445268332356        6.57969330441963
C           -5.09859920244655        2.79481154307337        8.99928011731229
C           -5.69170001273931        3.87877118538263        4.00564844518877
H          -10.35878461247921       -1.26161065335574        5.68096555173498
H          -10.32085899606253       -0.39291689182565        7.05051674913262
H           -9.76936359340722       -1.95393161869169        7.25038006555415
H            3.90718114979470       -3.73123567778907        6.71561734218749
H            5.49432600809590       -2.75028312366664        6.76682766152621
H            4.44263516395220       -2.74783197181231        5.12127113382303
H           -6.28288980517853        4.21796745485958        4.95058829617205
H           -6.23132022485889        3.32921431783405        3.23500390037098
H           -5.30261275522707        4.66690157473436        3.45505611644355
H           -6.00898071269202        2.35537996885828        9.51431593808002
H           -4.97078977747285        3.81519240019392        9.54722559264606
H           -4.15829729210604        2.34033201962437        9.13160405551244
H           -4.04746851036904        9.17607819337691        5.02182290562318
H           -2.29674884729800        9.17007665428153        4.84095464128055
H           -2.95800573297378        8.87541317231991        6.50583424032617
116
 energy: -22.515885765171 gnorm: 0.578955214311 xtb: 6.6.1 (8d0f1dd)
C           -1.51028027259554        0.16591228948752       -1.82888142354833
C           -0.71360653424949       -0.64525865252337       -0.99690928188342
C            0.69717347215141       -0.37045282865267       -0.86916538574396
C            1.23676047620463        0.33028489990333       -1.95987124725628
C            0.37372427794375        0.92828489784959       -2.86916053530057
C           -1.01150039166914        0.97721100024626       -2.78291577527722
C            1.50734775016257       -1.11642202520912        0.01650078498529
C            2.81825249891041       -1.13236204548598       -0.36264323188028
C            3.23922870217391       -0.27475312493839       -1.32772954744051
N            2.54861125504931        0.32449900265303       -2.27240681546159
C            1.10066760349303       -1.93881511217367        1.11288448579489
C            1.79814124664539       -3.18144241658996        1.32236526178270
N            3.15621591690334       -3.16382530246745        1.03695013183645
C            3.56781557012488       -2.23715861471702        0.13665256804495
C            5.00036741530905       -2.22320243859149       -0.16509625336284
C            5.55992093393630       -1.17680083084983       -0.79016099467043
C            4.64952145219039       -0.37045470399601       -1.49775510397606
C            0.05460472207613       -1.45450803500899        1.98878479493098
C           -0.47926192625133       -2.42815419072858        2.85874493443512
C            0.10935657584251       -3.55654531361272        3.11816685997945
C            1.29185652187861       -3.88534306044205        2.43146195352847
O           -0.21900449121273        0.04631463281283        2.38875810519290
O           -1.45400094413689       -1.42169151798641       -0.04999922709501
C           -1.82687868384541        1.63005287472288       -3.69078259777866
C           -0.43464381324617       -4.47157578733145        4.08437316107351
H            0.92571731004253        1.60567139859844       -3.66290674957563
H           -2.60482171450653        0.48933065551650       -1.55298756340386
H            5.04580572736446        0.08151744568605       -2.38305605074451
H            5.64803339161966       -2.51763076700212        0.75342060878688
H            1.56551241887172       -4.88890486197028        2.78256402480939
H           -1.52400048396710       -2.20071534336264        3.20111840749334
O           -1.55747044177127        2.80040454676715       -4.02545736094381