116
 energy: -22.928061455056 gnorm: 0.329736929581 xtb: 6.6.1 (8d0f1dd)
C           -3.31122850772930        0.79849766164622       -0.92477639677520
C           -2.44380812530352       -0.12270372891954       -0.27661132624697
C           -1.41337090092821        0.39579727573559        0.56335275196199
C           -0.89266158675590        1.65801491088749        0.27377586709581
C           -1.72665675402493        2.51431363229076       -0.49448366572522
C           -2.95444148494349        2.13954154133227       -1.01494489940871
C           -0.74098268209890       -0.43411532818871        1.49825021926784
C            0.56872586496315        0.03782116815119        1.86248088067890
C            1.03782416582094        1.29402317993033        1.50887470833621
N            0.31238977034758        2.07067427098208        0.65193736800696
C           -1.29695700510141       -1.39996043042223        2.41574187746061
C           -0.38243517664656       -2.18060797534842        3.13232615520648
N            0.91308504082021       -1.90366887689689        3.30325166013478
C            1.37712470144904       -0.74872102533751        2.81811050966982
C            2.52149331701875       -0.17739833758153        3.39379298866852
C            2.95849061756259        1.02681208890480        2.95105897606587
C            2.24288949469137        1.78498308775960        2.03503020483770
C           -2.74860936222260       -1.74497937691422        2.38401158947411
C           -3.09416315450955       -2.91614440870436        3.00571134491758
C           -2.16786021984049       -3.77788778654213        3.63251872101904
C           -0.85708937311598       -3.40495313382985        3.68547234358092
O           -3.71994433332149       -0.94984598373544        1.67726658385724
O           -2.55702603277562       -1.47241711578389       -0.57241635275616
C           -3.84297843593025        3.13357444054366       -1.60938954875544
C           -2.68769581069131       -5.03867041417370        4.30484659386931
H           -1.39666850744143        3.51251503834900       -0.76806311868865
H           -4.27662633836220        0.55105838579656       -1.33106614114542
H            2.66329581305412        2.73912661909249        1.72562431984580
H            3.05775395548473       -0.69369546277216        4.16536137542516
H           -0.24710966264510       -4.12034095424229        4.22946223699121
H           -4.11477991332403       -3.04712728052358        3.03244694615357
O           -4.21824883374556        4.03433712717988       -0.87713382485991
O           -4.44510595673734        2.90643496899600       -2.81853501752979
C           -5.44216520282800        3.83300025693726       -3.02488532025093
C            4.23586651889298        1.50004220933226        3.59165660008449
O            5.05927614697201        0.66079890002952        3.91714215179376
O            4.47001334453535        2.86385149488593        3.72605651435371
C            5.79457498613219        3.08584475587818        4.15829123132174
O           -3.82227255313510       -5.27347675879771        4.16636005494405
O           -1.85023202017753       -5.79767454267276        5.06656077253571
C           -2.55119635829503       -6.86252441382958        5.62930343183426
C           -5.07197156564436       -1.42399175670916        1.58830531863830
C           -1.33089900128490       -2.23622472573986       -0.99264499351172
H           -2.54510546830388       -7.76426885143998        4.99136022291012
H           -3.57194749219491       -6.44405511486021        5.74196173723541
H           -2.09133598235598       -7.02043774843818        6.64022264233588
H            5.72707967266424        3.46798026205549        5.10135971236643
H            6.34060091246885        3.78468702308830        3.50069950143490
H            6.17933064298187        2.03010500085905        4.19342358084693
H           -0.91862729772622       -2.57650129080332       -0.01361370304871
H           -0.49769766914251       -1.60651221708571       -1.34094446550576
H           -1.52632419730509       -2.94569707152159       -1.75361447637286
H           -5.11788846557077       -2.41810833635233        1.17520213188926
H           -5.67929807973498       -0.69619639428435        1.04301666067831
H           -5.57598832326623       -1.42383358739762        2.57928294206544
H           -6.13050215934830        3.76035386975488       -2.23272855695873
H           -5.86615610071888        3.45938329385866       -4.02668959924245
H           -5.13479557532099        4.87790991548477       -2.98314551356402
C           -1.38192942069774        3.73616555005018        2.91232598411686
C           -1.84821468128685        2.59982427735607        3.49755545445181
C           -1.05946531454833        2.05730632010638        4.60922730982276
C            0.19893954712228        2.69376791964407        4.86302140881997
C            0.50425395911860        3.94630308659851        4.28768785650746
C           -0.26031777722226        4.46998310053134        3.25072669343212
C           -1.20488993561782        0.74454293276906        5.14851520323437
C           -0.06287609782692        0.02744069315890        5.60930570802864
C            1.19208754369866        0.71421540266195        5.78882868583885
N            1.19428660993148        2.06344359410476        5.62744624321596
C           -2.41361422770794        0.07928500213936        5.25249410304426
C           -2.45851584031083       -1.32662100968547        5.60237876023992
N           -1.29466212405906       -1.98318595734370        5.89916817085159
C           -0.14475655767527       -1.32117560077092        5.98824682881008
C            0.97209270935794       -1.98958449505532        6.53157704134458
C            2.21982707914082       -1.36973967291181        6.68703967237737
C            2.30561929262884       -0.09745313075593        6.26436900324455
C           -3.73018485967715        0.71367583494582        5.25810242262992
C           -4.89964478833448       -0.06184623426677        5.21204641615509
C           -4.82617965800088       -1.39228978090841        5.46901303780036
C           -3.67144193418464       -1.98914944386360        5.67265433266067
O           -3.75568638935321        2.07705011038914        5.52067969627343
O           -2.94192434743730        1.91263938797883        3.01658762327703
C            0.21273512614467        5.50086066357994        2.34765104514621
C           -6.06660304520411       -2.17604633098929        5.80641622556876
H            1.41756699010566        4.38133362238595        4.66974005703471
H           -1.82880610647429        4.11982501512100        2.06992133318584
H            3.26888037378556        0.32655662585251        6.31721410015598
H            0.87146188387207       -3.08471526305024        6.57830423410869
H           -3.67716811065157       -3.05999292755990        5.83019634570050
H           -5.77379677507622        0.43595144608221        4.71017130754348
O            1.34459852619901        5.82615848916894        2.44941456579099
O           -0.74718748219123        6.07961784856304        1.59848183464284
C           -0.21473095568964        7.24015934882472        1.05753806029483
C            3.53228080814219       -2.00967610361154        7.02506769044485
O            3.64093082622715       -3.14437803815732        7.50071391725347
O            4.56565258381079       -1.22937033368332        6.69086985080897
C            5.72579357310716       -1.80692399125161        7.22246151275881
O           -7.04801223588612       -1.95726935745904        5.14194115322235
O           -6.01514389321278       -2.93743591896022        6.94765316328794
C           -7.21292732384718       -3.62681918543340        7.15115816329978
C           -4.95459780685163        2.65960679932188        5.86868674392943
C           -3.68284113682406        2.59129188358641        2.05479246020704
H           -7.43119628931628       -4.22607794725959        6.20622607140901
H           -8.06548455146707       -2.91765848248592        7.29781126410398
H           -7.07314693247270       -4.33087306029711        7.91223421050944
H            6.57332189837178       -1.29353136199234        6.78341268688262
H            5.74663761932316       -2.84282155125561        6.88089468184451
H            5.69426191474290       -1.72781984964892        8.29460302186842
H           -4.10481209541493        3.44288266176275        2.60483747673152
H           -4.49244774344916        1.87419893016926        1.82433103764650
H           -3.18901540870812        2.85154642679373        1.06781919454921
H           -5.55414326821421        2.76698137191684        4.93950725322359
H           -4.78658370641210        3.62090640967288        6.25983200635257
H           -5.43485580473958        1.97242995129449        6.65265772412460
H            0.89164886030839        7.38838561720231        1.13776105146914
H           -0.62894889903848        8.04195665205089        1.64837664327952
H           -0.59282546386754        7.45699159724320        0.03719083132488
116
 energy: -22.625597947926 gnorm: 0.520521110698 xtb: 6.6.1 (8d0f1dd)
C           -2.89146292181382        0.26678042208108       -1.11159963972415
C           -2.20876596626315       -0.72817044138205       -0.34887387545721
C           -1.10127294444559       -0.16923272220521        0.47864392288693
C           -0.70720872991123        1.22034898068430        0.44002359884094
C           -1.35671674133822        2.03269365926024       -0.54970438160201
C           -2.46862355088058        1.61786882101429       -1.26762289737754
C           -0.35493842294798       -0.99774750131090        1.45421891264494
C            0.94805672278922       -0.48927514262413        1.87078606133516
C            1.38694400376582        0.84005614632430        1.56929122447770
N            0.49529017706014        1.71971364225028        0.90693475579820
C           -0.64055350058241       -2.39864321789838        1.97455395633842
C            0.44730722657044       -3.11378836909878        2.56852163612094
N            1.72819923466661       -2.61425355421280        2.81505631948137
C            1.84683972188666       -1.28677651268584        2.67522329266908
C            3.07276056977505       -0.58434374048969        3.14015720492957
C            3.30385107180084        0.66406306024819        2.80271099382676
C            2.54015666785426        1.41479393494993        1.99812095358637
C           -1.95856834706578       -2.84964854636021        2.03551933837712
C           -2.14216198549632       -4.16974298320553        2.32948145123840
C           -1.13887133069975       -4.85700387220475        2.92279629252539
C            0.08146894818626       -4.36196906822131        3.02537228654558
O           -2.98530915820846       -1.92743448676542        1.97273178555044
O           -2.67318407524218       -2.13870711220262       -0.33487429844172
C           -3.34621448996204        2.46626537766221       -1.95101147531178
C           -1.41626043499970       -6.37785491840294        3.09734998240998
H           -1.13378227056603        2.99637809110223       -1.00972278390246
H           -3.84954013865979       -0.10749370101701       -1.54482386642323
H            3.10483680131342        2.21850367105069        1.40590821109798
H            3.83408357327713       -0.95127651928951        3.89139592521055
H            0.95825945671956       -5.02930804317735        3.09377542005551
H           -3.18415272798952       -4.51035200216984        2.26479344173211
O           -3.25537617848162        2.70434718219299       -3.13833288128432
O           -4.32269783344707        2.88895704915611       -1.16632469118015
C           -5.48051689948287        3.18931070209121       -1.91233534846605
C            4.47689691754402        1.30029042029433        3.38535320617251
O            5.10202415634911        0.60638533917382        4.19476075746087
O            4.63249572221174        2.63193752262047        2.92963891283481
C            5.76852541993059        3.23185124340909        3.42879423233361
O           -2.53870108944483       -6.83256362901863        3.39881347417759
O           -0.32799613337565       -7.21027938954406        3.05381985331991
C           -0.59252679143774       -8.37671044696968        3.81690002807276
C           -3.65588069617262       -1.59483781768909        3.17654756831553
C           -2.09102300472628       -3.05489183585387       -1.13317662035106
H           -0.27266775467880       -9.36969961558302        3.59248674189999
H           -1.68385522749238       -8.66722298147518        3.59551685498987
H           -0.39427921271370       -8.42633278603636        4.98698834710904
H            6.63913998478827        2.76510430582145        3.14675307082367
H            5.60356932308921        3.37852474172724        4.53258991374394
H            5.99974082356667        4.18723381714083        2.85873165891516
H           -1.54430513439636       -2.84415569653869       -2.11052685673176
H           -2.89928745145204       -3.72658127790469       -1.31695827494370
H           -1.38968918591867       -3.77311151351074       -0.54467792712134
H           -3.03697216668513       -1.10933336814790        3.80321736757513
H           -3.98481073242150       -2.52226878778797        3.75719443247005
H           -4.62153236994827       -1.30098793053402        2.79426016165570
H           -5.93261522084201        2.20187672789444       -1.73752078394628
H           -5.36017978132146        3.09425338946863       -3.05691989436982
H           -5.98104967205569        4.15310706278444       -1.52841194873041
C           -1.74240538439634        3.93964857712509        3.42547517378707
C           -2.01760778531148        2.83156920091643        4.16701902814653
C           -1.19287382804755        2.73783305554673        5.32383100477717
C            0.20780217116772        3.23341708202119        5.19215871735645
C            0.47345096433833        4.19646136769242        4.21312941484782
C           -0.56375432406856        4.57250836150457        3.42909162172592
C           -1.55492528534817        1.83283475126064        6.37978360022992
C           -0.52605085553505        0.86514495688184        6.53803313732857
C            0.79144139744161        1.31903499433287        6.32456154867586
N            1.23928333523453        2.49404374691304        5.72352907040513
C           -2.91602802990130        1.44109651415891        6.73773835149642
C           -3.13326921036121        0.02915716126751        6.61697035365540
N           -2.12599372951092       -0.88557439698216        6.60039456794628
C           -0.91097127967046       -0.50304158970975        6.67131063856823
C            0.20933287489833       -1.43518813393120        6.85433332220333
C            1.48806372491164       -1.00390406710144        6.57797062841747
C            1.77699305621998        0.32807950580523        6.44042531639529
C           -4.15899151654668        2.34086922787665        6.57919692308964
C           -5.31499470016179        1.76255742220131        6.12652035220903
C           -5.51671977327102        0.42083356712175        6.11134630550981
C           -4.47776817490883       -0.36560079658714        6.52068518744710
O           -4.19602427702219        3.62034189105351        6.91871089387662
O           -3.14750181139656        1.93001379498229        3.87851861259841
C           -0.34342041375127        5.64123299012263        2.35776577540922
C           -6.84699557460686       -0.19138458149377        5.83880753150362
H            1.37773720610503        4.63755069214522        4.13153292405681
H           -2.40673982327187        4.01663044989614        2.65825228602261
H            2.73610157661434        0.63422354422176        6.05196084406748
H            0.20335182608762       -2.43436798142890        7.04222717657763
H           -4.85521067085963       -1.27614083229506        6.96803239658219
H           -6.17731564132719        2.26492037408421        5.69201824088181
O            0.63498873267008        6.39134759596213        2.52034539855778
O           -1.10741292404677        5.43892437756506        1.24797884264007
C           -0.81617490093109        6.37669037312293        0.30470458845939
C            2.51594401844156       -1.87944254537615        6.73252539995979
O            2.57542952589292       -2.63262104404733        7.65025303090602
O            3.49584298072265       -1.72876412814270        5.82728554977495
C            4.58565016494195       -2.53632982495147        6.40460885592644
O           -7.78843334228498       -0.02590493999538        6.59490762616350
O           -6.96554028004475       -0.84704350319151        4.65700446187870
C           -8.08200826107050       -1.42983111793882        4.34550395350255
C           -4.79498902290443        3.97051048748021        8.28045571199414
C           -4.17059784151977        2.14952760685279        2.91574158873710
H           -8.42360073600449       -0.51753917337127        3.65470435729675
H           -8.73330490699190       -1.61994395564318        5.15032456237400
H           -7.89542684695443       -2.50634662369084        4.03686998610690
H            5.46469702015164       -2.63869059334112        5.76272857406037
H            4.14742169922256       -3.35817203035674        6.81406321160565
H            5.00435929054028       -1.81320405099596        7.28550884351493
H           -4.81451275107308        1.22308299127277        2.90427966384020
H           -3.76720817406550        2.02782464532146        1.89142418794094
H           -4.74228543875801        3.05304540445561        3.08477368363724
H           -4.94738280217550        3.02392868488333        8.73588449393411
H           -5.83332456033117        4.55664817703693        8.08241234876926
H           -4.11306004965002        4.58641733933129        8.92691761835474
H           -1.56536252440653        6.62636511700240       -0.40628976476534
H            0.06981414841142        6.32601985169578       -0.29950258946629
H           -0.68845994382090        7.37023623262960        0.87165172827718
116
 energy: -22.626021098136 gnorm: 0.503495034379 xtb: 6.6.1 (8d0f1dd)
C           -2.67292946143672       -0.03482012456778       -0.44998506990818
C           -1.52686415146838       -0.85747653477570       -0.00528222790498
C           -0.90140637740583       -0.33408067179823        1.17660420378210
C           -0.60364489197104        1.02689115935285        0.85603055114161
C           -1.62498853231801        1.91077442705032        0.37806496948113
C           -2.69247284582178        1.38722865312198       -0.36716269348817
C           -0.01861240574724       -1.03595337592122        2.12208078528851
C            1.21589779891325       -0.48834025687878        2.47763931677415
C            1.38409934246623        0.88464313392030        2.29564456368279
N            0.36697676579788        1.62503486696973        1.69672213684281
C           -0.16401545945609       -2.39862272382227        2.59900951076744
C            0.93999103670658       -3.11341693634186        3.13178355662038
N            2.00021719590709       -2.53272337106349        3.54327494070616
C            2.30413814613645       -1.32140485978007        2.94538580916514
C            3.52424526135361       -0.80757386288035        3.04222241577734
C            3.72493010536420        0.58411770406876        2.82390987998535
C            2.65634342528817        1.37608387767768        2.48607022254350
C           -1.38975661824237       -3.22268540885737        2.36373189882373
C           -1.20410950852282       -4.58574184803347        2.22441865174804
C            0.00691945698420       -5.22166468892916        2.51545385864294
C            1.10424294277926       -4.52399623587688        2.87375040982643
O           -2.76891721913771       -2.79741241769279        2.25378436783086
O           -1.19264311368038       -2.02852655992399       -0.89610607718658
C           -3.88409380514775        2.13300812366696       -0.73994592484479
C            0.11442544127062       -6.71101336244995        2.65548800588262
H           -1.13207830228076        2.83067596017214        0.05077776788432
H           -3.47514570714471       -0.35502405763850       -1.06462969136088
H            2.66855124261850        2.50600616664630        2.49187775654829
H            4.27612439849445       -1.48139895374484        3.35901251519405
H            2.02594507123000       -5.07928456779186        3.02991457436850
H           -2.14756016994346       -5.14737829617210        2.31245350643911
O           -4.85020656248582        1.45235363543586       -1.20342154958348
O           -3.78703468634741        3.55290598008197       -0.55865059867801
C           -5.00552109924091        4.18738129313941       -0.66873171989355
C            5.02288607881199        1.25830055978259        3.10906014653589
O            5.48096699943314        1.16799350209891        4.26637353693864
O            5.54216418948715        1.90331556085864        2.03117621991181
C            6.57025765449694        2.59660387931746        2.29772167511066
O           -0.54995418512392       -7.26206784221309        3.49457613906165
O            1.00474728321931       -7.44243670450433        1.77608412201877
C            1.19516469213957       -8.88472822743141        2.05777665435680
C           -3.09655159129045       -1.86989025135360        3.25834790227051
C            0.13324850265802       -2.58321690992282       -0.68421073662346
H            0.70622497036307       -9.05729041330673        3.01375488953298
H            2.26648498420213       -8.97274388876994        2.27437061293378
H            0.77043128002925       -9.52823562856540        1.41751979485101
H            7.28730339249057        1.87358149534609        2.52118025480339
H            6.26891257620893        3.13124281615385        3.29498901374582
H            6.70172156714661        3.39911229194372        1.53308083311827
H            0.50378585955200       -3.22266130595862       -1.49600373903079
H            0.34341174311098       -3.01389061575017        0.25701999811553
H            0.74852600974274       -1.67970569411346       -0.52202571834001
H           -3.51035020329173       -0.97233428199491        2.81581873470682
H           -2.09040102360995       -1.84430063272683        3.71847604105662
H           -3.86417408264095       -2.25257804144089        3.86756785773166
H           -5.09915969427470        4.48366955131397       -1.78303325433311
H           -5.00738560717843        5.10718930819297       -0.02789230955486
H           -5.89293440156087        3.54640388264379       -0.26923345639567
C           -1.93851388006604        4.02531119396402        2.46657714351676
C           -2.51086118944131        2.87274240602493        3.11808392481997
C           -1.65323649728558        2.32988406247497        4.08115253851295
C           -0.24798964155807        2.74904383836803        4.39455042790187
C            0.17547205520774        3.93628197497733        3.74075688427479
C           -0.68285451892467        4.64526460091171        2.88297249821937
C           -2.26849827192069        1.42606930159243        4.98241398476156
C           -1.37986802105460        0.46833926625164        5.65900691845570
C            0.01927480989126        0.65295958295483        5.47394322690686
N            0.52164270137547        1.84299986809784        5.10423600968553
C           -3.64444457354829        1.47636228849629        5.61955925733473
C           -4.10116371780850        0.21020339238585        6.06587673966040
N           -3.15908878584433       -0.84205288322872        6.33462148892086
C           -1.88322405777615       -0.78056560970007        6.08956824330129
C           -1.03549253880656       -1.77300136630435        6.54791277295798
C            0.33405075157623       -1.40722158599386        6.69004804465186
C            0.91390103840629       -0.18346975085559        6.17543289308830
C           -4.65029984738082        2.51714555173349        5.83252204389772
C           -6.03147784782269        2.22998406039600        6.29128164391291
C           -6.34102227751572        0.91682318761589        6.64113797133302
C           -5.34308539943857       -0.12379713036370        6.53671033724913
O           -4.46269951715850        3.89740869067478        5.78199536180973
O           -3.79681784417009        2.37610357642793        3.10289373958608
C           -0.18012510900978        5.90174276549536        1.96752318921336
C           -7.84570948611520        0.67159276258358        6.79976395622009
H            1.08314682931295        4.40407099172615        4.16653197154720
H           -2.41932569169574        4.44643556996496        1.67341032206336
H            1.91180579376626        0.10285051049807        5.78030737825597
H           -1.09285883482485       -2.76789549451134        6.31716584837165
H           -5.39550548256870       -0.98127665270858        7.16223814685196
H           -6.85872600039000        2.90718554494155        6.51742465147634
O            0.85573259695156        6.63699428122346        2.09174051608121
O           -1.06537280878841        6.00064664915949        1.02915786798496
C           -0.84601846360393        7.17494293901209        0.21956321159831
C            1.22296631366586       -2.50156259878987        6.94013728446053
O            0.84981942326142       -3.64433092781958        6.61070425885053
O            2.39635642415513       -2.14208664553837        7.54170902360806
C            3.41179337859700       -2.84166622414659        7.15611836165112
O           -8.28792391344965        1.10417001864628        7.89686569095195
O           -8.38887184414675       -0.09662273720491        5.86295248742963
C           -9.69644834406230       -0.47037728625354        6.43797655514835
C           -3.17159293417215        4.25363867383101        6.27390954518957
C           -4.81832410031194        3.35324375790293        3.00750975942393
H           -9.83385638910184        0.00615811217743        7.45522071373639
H           -9.64720937819196       -1.55320826772766        6.58358180620820
H          -10.63182488435469       -0.42552652837869        5.91259428461103
H            3.71910239633378       -2.55749041962594        6.09355917827866
H            3.21377836885272       -3.96573372407678        7.47828312973474
H            4.25732937256253       -2.53160436070623        7.89545920626505
H           -5.75048723015688        2.80247239412862        2.76339581957893
H           -4.83802114228713        3.90593617001377        2.07987542606986
H           -4.99713033040907        3.93313930760550        3.94156636544550
H           -2.39656415857392        4.05608460826003        5.42241999535374
H           -2.80336572703918        3.43137865976476        7.01166680110944
H           -3.14331006126475        5.21093264917853        6.64939316733535
H           -0.60385422427460        6.60075632540979       -0.77701996195889
H           -0.13382496174682        7.88279461363467        0.59783964446661
H           -1.71863112232074        7.79568871650807        0.05445258960928
116
 energy: -22.625894597085 gnorm: 0.493831638211 xtb: 6.6.1 (8d0f1dd)
C           -2.32986751064525       -0.29869553930570       -0.65794428686965
C           -1.29033583348789       -1.11187870690396       -0.21415692168768
C           -0.19266152096990       -0.47757662362333        0.52210164166771
C           -0.03654370658708        0.93749458991922        0.57940666509877
C           -0.96080786046199        1.72501084558346       -0.15118931249145
C           -2.13481578216066        1.14785086658346       -0.70210157686242
C            0.66742080309173       -1.20985636564637        1.38733138990042
C            1.83030903617487       -0.54377642329194        1.80557021624859
C            2.05058379408739        0.92880348651147        1.66977765089213
N            1.02737899074650        1.61377614275611        1.05921496197959
C            0.58542575317755       -2.60885873113622        1.86995775225422
C            1.85931588986629       -3.27807245243395        1.89016415324207
N            3.02180359785355       -2.69957242535816        2.13536563328897
C            2.97980765047987       -1.37761445298441        2.18553095813809
C            4.13757296133754       -0.72946769406135        2.53674385352059
C            4.09177971438091        0.70533565954997        2.74452259463606
C            3.04951976825530        1.49133576968613        2.45237201754336
C           -0.63548523231546       -3.28113150060265        2.20967894084582
C           -0.60368776007464       -4.74939861704387        2.01135765827222
C            0.68873875484706       -5.31438457477682        1.89010686534936
C            1.87444772656996       -4.60883344687608        1.81391215864941
O           -1.60428582296967       -2.77916154215618        3.00568767909877
O           -1.42661916674646       -2.47874534073988       -0.02017978780953
C           -3.05783896476129        2.13164230137219       -1.49159359561722
C            0.72023175819237       -6.80394662007326        2.21083600134811
H           -0.80668272196847        2.89040796742345       -0.17220340088353
H           -3.13980320681075       -0.85345969997333       -0.99098175328242
H            3.04949803284966        2.60767876634765        2.49350694116670
H            4.98709879302501       -1.10482947049364        3.01354615340861
H            2.85870434683256       -5.10901708923928        1.82675592148256
H           -1.44820381103543       -5.43043535796872        2.13822740665925
O           -4.19868918105538        1.86568943554686       -1.94053412035878