116
 energy: -22.928061455056 gnorm: 0.329736929581 xtb: 6.6.1 (8d0f1dd)
C           -3.31122850772930        0.79849766164622       -0.92477639677520
C           -2.44380812530352       -0.12270372891954       -0.27661132624697
C           -1.41337090092821        0.39579727573559        0.56335275196199
C           -0.89266158675590        1.65801491088749        0.27377586709581
C           -1.72665675402493        2.51431363229076       -0.49448366572522
C           -2.95444148494349        2.13954154133227       -1.01494489940871
C           -0.74098268209890       -0.43411532818871        1.49825021926784
C            0.56872586496315        0.03782116815119        1.86248088067890
C            1.03782416582094        1.29402317993033        1.50887470833621
N            0.31238977034758        2.07067427098208        0.65193736800696
C           -1.29695700510141       -1.39996043042223        2.41574187746061
C           -0.38243517664656       -2.18060797534842        3.13232615520648
N            0.91308504082021       -1.90366887689689        3.30325166013478
C            1.37712470144904       -0.74872102533751        2.81811050966982
C            2.52149331701875       -0.17739833758153        3.39379298866852
C            2.95849061756259        1.02681208890480        2.95105897606587
C            2.24288949469137        1.78498308775960        2.03503020483770
C           -2.74860936222260       -1.74497937691422        2.38401158947411
C           -3.09416315450955       -2.91614440870436        3.00571134491758
C           -2.16786021984049       -3.77788778654213        3.63251872101904
C           -0.85708937311598       -3.40495313382985        3.68547234358092
O           -3.71994433332149       -0.94984598373544        1.67726658385724
O           -2.55702603277562       -1.47241711578389       -0.57241635275616
C           -3.84297843593025        3.13357444054366       -1.60938954875544
C           -2.68769581069131       -5.03867041417370        4.30484659386931
H           -1.39666850744143        3.51251503834900       -0.76806311868865
H           -4.27662633836220        0.55105838579656       -1.33106614114542
H            2.66329581305412        2.73912661909249        1.72562431984580
H            3.05775395548473       -0.69369546277216        4.16536137542516
H           -0.24710966264510       -4.12034095424229        4.22946223699121
H           -4.11477991332403       -3.04712728052358        3.03244694615357
O           -4.21824883374556        4.03433712717988       -0.87713382485991
O           -4.44510595673734        2.90643496899600       -2.81853501752979
C           -5.44216520282800        3.83300025693726       -3.02488532025093
C            4.23586651889298        1.50004220933226        3.59165660008449
O            5.05927614697201        0.66079890002952        3.91714215179376
O            4.47001334453535        2.86385149488593        3.72605651435371
C            5.79457498613219        3.08584475587818        4.15829123132174
O           -3.82227255313510       -5.27347675879771        4.16636005494405
O           -1.85023202017753       -5.79767454267276        5.06656077253571
C           -2.55119635829503       -6.86252441382958        5.62930343183426
C           -5.07197156564436       -1.42399175670916        1.58830531863830
C           -1.33089900128490       -2.23622472573986       -0.99264499351172
H           -2.54510546830388       -7.76426885143998        4.99136022291012
H           -3.57194749219491       -6.44405511486021        5.74196173723541
H           -2.09133598235598       -7.02043774843818        6.64022264233588
H            5.72707967266424        3.46798026205549        5.10135971236643
H            6.34060091246885        3.78468702308830        3.50069950143490
H            6.17933064298187        2.03010500085905        4.19342358084693
H           -0.91862729772622       -2.57650129080332       -0.01361370304871
H           -0.49769766914251       -1.60651221708571       -1.34094446550576
H           -1.52632419730509       -2.94569707152159       -1.75361447637286
H           -5.11788846557077       -2.41810833635233        1.17520213188926
H           -5.67929807973498       -0.69619639428435        1.04301666067831
H           -5.57598832326623       -1.42383358739762        2.57928294206544
H           -6.13050215934830        3.76035386975488       -2.23272855695873
H           -5.86615610071888        3.45938329385866       -4.02668959924245
H           -5.13479557532099        4.87790991548477       -2.98314551356402
C           -1.38192942069774        3.73616555005018        2.91232598411686
C           -1.84821468128685        2.59982427735607        3.49755545445181
C           -1.05946531454833        2.05730632010638        4.60922730982276
C            0.19893954712228        2.69376791964407        4.86302140881997
C            0.50425395911860        3.94630308659851        4.28768785650746
C           -0.26031777722226        4.46998310053134        3.25072669343212
C           -1.20488993561782        0.74454293276906        5.14851520323437
C           -0.06287609782692        0.02744069315890        5.60930570802864
C            1.19208754369866        0.71421540266195        5.78882868583885
N            1.19428660993148        2.06344359410476        5.62744624321596
C           -2.41361422770794        0.07928500213936        5.25249410304426
C           -2.45851584031083       -1.32662100968547        5.60237876023992
N           -1.29466212405906       -1.98318595734370        5.89916817085159
C           -0.14475655767527       -1.32117560077092        5.98824682881008
C            0.97209270935794       -1.98958449505532        6.53157704134458
C            2.21982707914082       -1.36973967291181        6.68703967237737
C            2.30561929262884       -0.09745313075593        6.26436900324455
C           -3.73018485967715        0.71367583494582        5.25810242262992
C           -4.89964478833448       -0.06184623426677        5.21204641615509
C           -4.82617965800088       -1.39228978090841        5.46901303780036
C           -3.67144193418464       -1.98914944386360        5.67265433266067
O           -3.75568638935321        2.07705011038914        5.52067969627343
O           -2.94192434743730        1.91263938797883        3.01658762327703
C            0.21273512614467        5.50086066357994        2.34765104514621
C           -6.06660304520411       -2.17604633098929        5.80641622556876
H            1.41756699010566        4.38133362238595        4.66974005703471
H           -1.82880610647429        4.11982501512100        2.06992133318584
H            3.26888037378556        0.32655662585251        6.31721410015598
H            0.87146188387207       -3.08471526305024        6.57830423410869
H           -3.67716811065157       -3.05999292755990        5.83019634570050
H           -5.77379677507622        0.43595144608221        4.71017130754348
O            1.34459852619901        5.82615848916894        2.44941456579099
O           -0.74718748219123        6.07961784856304        1.59848183464284
C           -0.21473095568964        7.24015934882472        1.05753806029483
C            3.53228080814219       -2.00967610361154        7.02506769044485
O            3.64093082622715       -3.14437803815732        7.50071391725347
O            4.56565258381079       -1.22937033368332        6.69086985080897
C            5.72579357310716       -1.80692399125161        7.22246151275881
O           -7.04801223588612       -1.95726935745904        5.14194115322235
O           -6.01514389321278       -2.93743591896022        6.94765316328794
C           -7.21292732384718       -3.62681918543340        7.15115816329978
C           -4.95459780685163        2.65960679932188        5.86868674392943
C           -3.68284113682406        2.59129188358641        2.05479246020704
H           -7.43119628931628       -4.22607794725959        6.20622607140901
H           -8.06548455146707       -2.91765848248592        7.29781126410398
H           -7.07314693247270       -4.33087306029711        7.91223421050944
H            6.57332189837178       -1.29353136199234        6.78341268688262
H            5.74663761932316       -2.84282155125561        6.88089468184451
H            5.69426191474290       -1.72781984964892        8.29460302186842
H           -4.10481209541493        3.44288266176275        2.60483747673152
H           -4.49244774344916        1.87419893016926        1.82433103764650
H           -3.18901540870812        2.85154642679373        1.06781919454921
H           -5.55414326821421        2.76698137191684        4.93950725322359
H           -4.78658370641210        3.62090640967288        6.25983200635257
H           -5.43485580473958        1.97242995129449        6.65265772412460
H            0.89164886030839        7.38838561720231        1.13776105146914
H           -0.62894889903848        8.04195665205089        1.64837664327952
H           -0.59282546386754        7.45699159724320        0.03719083132488
116
 energy: -22.848794683647 gnorm: 0.377048193620 xtb: 6.6.1 (8d0f1dd)
C           -2.62639778470412        0.15109619652333       -0.92348776783055
C           -1.96037511895960       -0.66938144289766        0.00040153585392
C           -0.88560461911666       -0.03060192442663        0.76813554992941
C           -0.46279506282478        1.31489569666195        0.44675101165180
C           -1.31339800849698        2.01544517050289       -0.39179949983464
C           -2.35231570355347        1.50370958995943       -0.99489250210702
C           -0.12634470281120       -0.78336560139173        1.71046223633311
C            1.18922520567426       -0.38378731660558        1.73255521962368
C            1.58788632369836        0.87302380659869        1.19117932463981
N            0.73369119772100        1.80069667936615        0.62062689344004
C           -0.55914113010383       -1.91510099136923        2.57640178504642
C            0.44588391351030       -2.73554502108056        3.15391779182912
N            1.73582705013699       -2.47820947049356        2.93876667460615
C            2.08459092992685       -1.35194620812247        2.37386034715321
C            3.44028064088710       -0.94323937168506        2.55687879893985
C            3.82544205265998        0.32232212445521        2.19411584120928
C            2.90744310586139        1.18676235590379        1.58005108629448
C           -1.87583233381368       -2.13609759983335        2.96071358068572
C           -2.22655619299734       -3.35253634867503        3.62014640470448
C           -1.17904109092250       -4.22983398882913        3.99781404580293
C            0.12770131879932       -3.94647816379829        3.68446288706955
O           -2.78726284786734       -1.00548981137701        2.87052893771264
O           -2.18549355323088       -2.05753932648966       -0.01030807396164
C           -3.21795862079102        2.36959962897815       -1.81918069790161
C           -1.62358908467733       -5.52274516564211        4.52427152139453
H           -1.26251472258410        3.07436517884529       -0.57831968765808
H           -3.45588963641489       -0.22508835595626       -1.50302071564858
H            3.35556009051080        2.17926684606582        1.46197497462651
H            4.17481101583899       -1.59454501534103        3.06309860691584
H            0.82801365147963       -4.68702195213572        3.90311499688957
H           -3.22826087280127       -3.63544094276839        3.72821302205333
O           -2.76714187194001        3.47982754205080       -1.91186548381095
O           -4.39202436475945        1.91034568863299       -2.41779184727104
C           -4.92500521074590        2.96477158471829       -3.32296293764602
C            5.20219580164221        0.72553380838508        2.49823547420311
O            5.90837807599504       -0.02770971437091        3.17726190418790
O            5.75692900659333        1.80017902692046        1.75050648810816
C            7.08632311407701        2.03380698784355        1.77988929008298
O           -2.73223758405401       -6.08000586888589        4.29956986922014
O           -0.54152022406377       -6.22346395180121        5.00878607429221
C           -0.85476753223659       -7.34032344654572        5.77946645387550
C           -4.13400149396437       -1.19911102311628        2.49702590482061
C           -1.07996870246670       -2.64958832413542       -0.50897755554315
H           -1.60528038622227       -7.85744431100066        5.21802109595520
H           -1.14019727860537       -6.88210120028564        6.71849329426569
H           -0.05173848292380       -8.14344670892211        5.83975137801016
H            7.48749256640634        2.12762033698008        2.85344663240440
H            7.38997856678132        3.06079753142615        1.36944457332659
H            7.41833964600960        1.12387270517830        1.29055960953599
H           -0.19121460908915       -2.39611857347564       -0.02312616067613
H           -0.96177585724250       -2.33608107980660       -1.59535285269585
H           -1.58749781998572       -3.63907114555114       -0.60570554639852
H           -4.10128197948258       -2.00000496341326        1.70231085272083
H           -4.57270079214678       -0.30563109964640        2.04476381395370
H           -4.76963534873534       -1.44931577218568        3.31905249863090
H           -5.36943793331318        3.70018824611077       -2.66969329214535
H           -5.70202650197349        2.57450525400137       -4.13253192148344
H           -4.20702220818966        3.63046250367327       -3.82374236715911
C           -2.58889856364224        4.53175987692376        3.70926265175702
C           -2.71123770203300        3.17980385518394        4.06275092428345
C           -1.71458098745733        2.43760142226387        4.75883365639005
C           -0.37996472861466        2.94690554309587        4.81104411852216
C           -0.25957901708911        4.25278732693015        4.42882900398072
C           -1.28754026685892        5.04996510552564        3.89901105369983
C           -1.85996417826803        1.16621690968605        5.34930458504308
C           -0.74722595898191        0.32413858695254        5.44642234463714
C            0.50504230119886        0.88042309780375        5.36415983222561
N            0.74299821358498        2.20625697490763        5.20442803230091
C           -3.14958448752878        0.61548082952701        5.80454488294824
C           -3.26210375326093       -0.76262172880277        6.03716007572690
N           -2.21008843488355       -1.53263560610233        6.12363671281072
C           -0.98248511391855       -1.00151202465656        6.01936466117505
C            0.15908459735218       -1.76888612714855        6.18669183195959
C            1.45010778261780       -1.25755045033271        6.10179160415623
C            1.60170839216838        0.10667959389922        5.67865834937018
C           -4.24094324910273        1.48002447133331        6.09718482821411
C           -5.46062661758200        0.82895844045858        6.11306849450466
C           -5.62741820384915       -0.47721648349036        5.79570537698493
C           -4.54452279591717       -1.30375133174002        6.04553678081118
O           -4.06675371458590        2.89285563368634        6.37550894540491
O           -3.82450684372326        2.42750426627982        3.51449156299092
C           -0.98864461056058        6.48912330728878        3.68546019763876
C           -6.99798153186772       -1.01581654318512        5.48361529882349
H            0.69630240233656        4.60870356169010        4.25451692838947
H           -3.40103835743644        5.10555232335923        3.15113952988188
H            2.51254189299482        0.62349661213647        5.60389906526308
H            0.24187144961478       -2.79108162385211        6.47946115461512
H           -4.53833080473209       -2.41510201732563        6.01441582441042
H           -6.33078211601002        1.50347824191435        6.06022981354868
O            0.19758271899693        6.80763292832999        3.81299623190927
O           -2.11984236331046        7.23234317780184        3.36407922875245
C           -1.81459553822885        8.59728516837665        3.39316792877325
C            2.66505357732084       -2.05954198602868        6.49426703662276
O            2.52317009892924       -3.21233375140694        6.93699614341035
O            3.84993982002231       -1.43788176805206        6.08452672594537
C            4.97134184860791       -2.33212458306426        6.22648422955588
O           -7.93578285612189       -0.28355201748020        5.83415531125835
O           -7.01593453387772       -2.29960505668846        5.16665775342901
C           -8.35235919556811       -2.76628381206973        5.15067243588575
C           -5.08321584433291        3.83726060267478        6.27271505934752
C           -3.99491307168409        2.52083659310314        2.10137747723107
H           -8.56325924572677       -2.79721031950865        6.23956486364583
H           -8.43025435184307       -3.66853470175082        4.51813209466148
H           -9.01090580628923       -2.00326344621062        4.72162562298797
H            5.70465007103584       -1.99043700659066        5.51666146563163
H            4.73716012540739       -3.42126799111903        6.23769837362061
H            5.43874805004340       -2.13602627931489        7.20161762517607
H           -4.44696041944707        3.49302296819321        1.67571342010457
H           -4.52856730550484        1.64823358625699        1.81499021526167
H           -3.00455548445433        2.30405752617001        1.68396878284321
H           -5.85588094137590        3.42102106873780        5.68154043788210
H           -4.70207934127403        4.74719417824401        5.66353813923527
H           -5.55227432231656        4.05766992649289        7.20981739156360
H           -2.58063323853879        9.35688679750492        3.04832694770225
H           -0.77672387294865        8.75750897491153        3.04099633168766
H           -1.85046204623903        8.82697443652320        4.48772408248171
116
 energy: -22.829945786314 gnorm: 0.384743265518 xtb: 6.6.1 (8d0f1dd)
C           -2.29643225410158        0.10913827404474       -0.74368292364112
C           -1.45455728953700       -0.88739013426897       -0.17246474548307
C           -0.26597382437527       -0.38015854480890        0.46458141188224
C            0.15926686433453        1.00476744113895        0.42291766714333
C           -0.74747634270540        1.93115413339812       -0.17010644203028
C           -1.95219435123339        1.44906586842648       -0.64958442606540
C            0.57144174317298       -1.21397401638649        1.31176068989376
C            1.93965973196114       -0.93585321527494        1.29879027721871
C            2.41800782825769        0.37016596122198        0.86078240336804
N            1.48859590318688        1.33912582344458        0.74107719683336
C            0.10946056207863       -2.30290113368656        2.11349006067382
C            1.13185797618934       -3.20287021208743        2.65640451617860
N            2.41316845774028       -2.98241502208938        2.42390613482343
C            2.86869366252422       -1.83339829654330        1.86227200326508
C            4.19522636790279       -1.47790832466361        2.05666649782433
C            4.69497335677302       -0.27519893266633        1.66217757933943
C            3.78623742346718        0.65965684302358        1.19308442335796
C           -1.25142000416132       -2.55755649838330        2.58957036988551
C           -1.60321866937069       -3.64497902463662        3.35635693152526
C           -0.62162044595913       -4.46289316678379        3.81195923434714
C            0.75700436334641       -4.28976559355384        3.44642858877161
O           -2.25509340718767       -1.56196280273559        2.28554623341626
O           -1.72879053478952       -2.24757961732044       -0.47652631691283
C           -2.93827631909220        2.42619888954028       -1.13645793541758
C           -1.02655777824996       -5.61803117010071        4.69027792663834
H           -0.59188914795269        3.02553943267251       -0.16436617328878
H           -3.27103281053018       -0.08302433960524       -1.18716193779348
H            4.11180756512782        1.67138886668844        0.94328908098432
H            4.86131980026481       -2.12655546334179        2.66412355041554
H            1.53978868023444       -4.86363334829649        3.89781936306732
H           -2.55857050522181       -3.89468326835370        3.73040697844594
O           -2.73563014008689        3.58493682803258       -0.87655262836706
O           -4.03175585179316        1.83870122471833       -1.77748919073925
C           -5.25680588123250        2.70646789426603       -1.86539099202457
C            6.11192548423209        0.18138011147828        1.73827959281160
O            7.07936355487195       -0.46055967807127        1.97247376614181
O            6.25270750287523        1.51322208941441        1.58349670798552
C            7.56437943414346        2.03730800597175        1.21184274529926
O           -2.13322917833720       -5.55329855546071        5.08528450459918
O           -0.08466160939259       -6.70799242121305        5.00648537922421
C           -0.28930902246902       -7.58572741480693        6.06008028381540
C           -3.57307004100279       -1.78868110329862        2.63915436035846
C           -0.72626015543560       -3.16058536843427       -0.74564203352896
H           -0.76587031766428       -7.07473142701537        6.94965125991621
H            0.62293416906600       -8.20440703955193        6.34232329070842
H           -1.08076279692532       -8.26326701465979        5.76183935281806
H            7.50269899234595        2.92436762976582        0.55144793820410
H            8.16714000760179        1.49315523401132        0.45267835096012
H            8.23219123737804        2.02021244131569        2.13559277848277
H           -0.71530410459545       -3.32584023756915       -1.84995434881897
H           -0.91989857016630       -3.97916602928863       -0.18349723414712
H            0.34972984759954       -2.94808276458787       -0.47068026025858
H           -3.99314855795194       -2.63650893681407        2.09667917047093
H           -4.01576735700488       -0.85622410499679        2.19049639145243
H           -3.60756624235096       -1.99688441748344        3.75451370153683
H           -5.57941580837510        3.10459298556253       -0.89208805649882
H           -5.91298975928396        2.12136208835073       -2.40959914507941
H           -4.91580500270321        3.60712633652648       -2.31155963022014
C           -2.72817921573171        4.99452384238111        3.68719918881906
C           -3.11041154538299        3.67908629510957        3.94542211356373
C           -2.21176279463267        2.84775170571426        4.81893343943068
C           -0.96163948635049        3.37745538711679        5.08217305434906
C           -0.66810945423372        4.77388997547020        4.87900436045186
C           -1.52532287457029        5.56573023564449        4.13664665176968
C           -2.60352696723535        1.54908699279118        5.26531816145518
C           -1.49491846682595        0.71572512936310        5.52978064052696
C           -0.18330519587053        1.20686932673028        5.71602644649131
N           -0.03467266639923        2.59141855371085        5.65773924074409
C           -3.83836713510410        0.96328789051604        5.68265633332154
C           -3.92576285746314       -0.47725202495043        5.80832046597283
N           -2.84763994237730       -1.22454509812633        5.72467257703747
C           -1.57373574194193       -0.69157301018185        5.61653581585602
C           -0.43358304434414       -1.49598847880429        5.89861340718986
C            0.85239653720638       -0.95605128270496        5.98886401988287
C            0.94988946148403        0.42139081951058        5.96027215566381
C           -5.00193944917059        1.70644398575996        5.79719605869591
C           -6.22734097844760        1.06654761604892        6.00186118016146
C           -6.31455915419138       -0.29816317494643        6.10998311239779
C           -5.17147041310151       -1.07911224559680        6.00889653372660
O           -4.97593811717231        3.08237618727368        5.86154093242625
O           -4.29702652458018        3.08055099527933        3.37546605358567
C           -1.06025034283688        6.98843295584401        4.09802732275414
C           -7.75355164878945       -0.83041611605721        6.22491755403253
H            0.29610217834350        5.12475139460102        5.19098865971660
H           -3.55165959329226        5.72419640072839        3.36138197929554
H            1.91822400226135        0.81804623153992        6.11759056763661
H           -0.60948890024671       -2.59108805470398        5.86929707248767
H           -5.17788100380352       -2.16221993276199        6.08391250637079
H           -7.16865223313651        1.63406945526919        5.92994150336217
O            0.15105666697147        7.34582945464913        4.21274756876181
O           -2.13270296543552        7.88731157300628        3.82712696850183
C           -1.53337676652438        9.09838568329381        3.52929771613900
C            1.97135258412893       -1.97296359445144        6.19330494767816
O            1.69467165783894       -3.14171803964265        6.31448424409236
O            3.24388574454416       -1.39248071982920        6.07742034421769
C            4.13901383688951       -2.37589510860037        5.72008343874267
O           -8.66730556799318       -0.32183193862937        6.78635619325127
O           -7.79558960039523       -2.01270997874150        5.55171407845913
C           -9.01655788420873       -2.35653396328983        5.21620334806446
C           -5.98324882694701        3.54675683057221        6.72324892589547
C           -4.28048141947044        3.13778885048584        1.99708736462212
H           -9.20140267706554       -2.55107196169599        4.10108105762654
H           -9.66849032579050       -1.74042905022057        5.84679638881865
H           -9.01536248423552       -3.45261816623920        5.45903503921643
H            3.75308471551705       -3.43555601079717        5.97986318218421
H            5.04461651379832       -2.12331511043012        6.26559589907833
H            4.49710152392593       -2.34914813080636        4.66752675224175
H           -3.33634003390014        2.84768904755593        1.73689127292848
H           -4.32050756353064        4.20172110244666        1.61989896402018
H           -5.10775829409606        2.53856270751871        1.55091976921024
H           -6.83966184969354        3.85349736616269        6.10662388053398
H           -5.79959718018672        4.56111791103213        7.02338372501623
H           -6.26018466852063        2.78582283833321        7.45449257044194
H           -2.20025985091593        9.97832151027680        3.25620809748837
H           -0.59900717801410        8.90644580029170        2.88093431033716
H           -1.28901813890053        9.40968523565830        4.51527288157994
116
 energy: -22.860941223434 gnorm: 0.393156918240 xtb: 6.6.1 (8d0f1dd)
C           -2.18806056077557        0.38927148891102        0.10634602706125
C           -1.26973593374571       -0.54534499704269        0.50497102195882
C           -0.15910595259496       -0.22046853480687        1.29054279901069
C            0.17319758430082        1.15304485504150        1.49780316881075
C           -0.83275402149038        2.07594126410541        1.14990451995669
C           -1.91851360626081        1.71558089306585        0.36923307734728
C            0.75879644869665       -1.20130592033979        1.79075106018702
C            2.09190093618506       -0.78786683872873        1.89828271352729
C            2.38218661681844        0.62020965404815        1.78410960685660
N            1.43125415430220        1.59715108374166        1.64741744293747
C            0.38959128669544       -2.52715561571634        2.29490488645197
C            1.41947638330300       -3.36096926746382        2.72360909773357
N            2.75481461834185       -3.02671039873807        2.72447788634848
C            3.08756581627651       -1.78059200125093        2.24910343955119
C            4.39117574747269       -1.18775528919565        2.31781640002075
C            4.67401023309838        0.14484433976777        1.91307674025080
C            3.71058280044298        1.09926878696059        1.73065321302842
C           -0.99025532046822       -2.98445431857708        2.63435048048520
C           -1.19744721790649       -4.29434483052525        3.04901942954097
C           -0.08901712582668       -5.05923895471992        3.46295727087376
C            1.13682190661817       -4.67836598708926        3.17527812088937
O           -2.00599526828099       -2.07055233264362        2.62663675056602
O           -1.59174393758248       -1.78342942416117        0.05606167131436
C           -2.67643925298854        2.70152139060112       -0.46044546351044
C           -0.44471119239624       -6.36671960870993        4.08082035254840
H           -0.77326296394134        3.10526504142571        1.45819114682075
H           -3.06303556097923        0.13602007967480       -0.42814237298313
H            3.82277810217665        2.19756375486809        1.64954911916153
H            5.23503470171439       -1.92084627306674        2.36272015753097
H            1.89360744616983       -5.42537422258334        3.23696385996049
H           -2.11355150848573       -4.85182361455142        3.21249226860861
O           -2.36660620569020        3.87203934005868       -0.46923081375761