116
 energy: -22.752710054479 gnorm: 0.475009937786 xtb: 6.6.1 (8d0f1dd)
C           -3.27401399916715        2.34123930205915        1.38309280339337
C           -1.93363370312555        1.95340691977589        1.40574953068103
C           -1.19835712825521        1.95990721335902        2.60289410571679
C           -1.87556012720321        2.45632494267952        3.89339898865731
C           -3.17284013917972        2.94220893308078        3.72082261134661
C           -3.80019592056962        2.85139787127250        2.54311962655203
C            0.22295257338313        1.79900569354371        2.53341658077977
C            0.98758894040178        2.23597877916389        3.59400406745553
C            0.28957358520743        2.47503275103234        4.77803452159577
N           -1.03091422448754        2.73742422318434        4.92630359248853
C            1.15918481388293        1.33597661384950        1.40944933063698
C            2.54818308909083        1.85331292566398        1.30658346961328
N            3.11982587523484        2.58378629976037        2.32798121397212
C            2.39358305497749        2.54517389725979        3.46787269885486
C            3.10099784922577        2.76486454045791        4.61878768708551
C            2.57708668608862        2.83452280847424        5.88424194082286
C            1.15510179719183        2.74710708867566        5.92411059099812
C            0.91765200362555        0.28770399885129        0.42855947879611
C            1.59936587591564        0.19237205597450       -0.76643157385787
C            2.62780614943754        1.06482949751042       -0.97708079265227
C            3.19161233008825        1.75057642509771        0.01870189790410
O           -0.14861749350372       -0.53091953994681        0.83230323051912
O           -1.50330661485977        1.46786841923346        0.05794315316783
C           -5.26995963699064        3.17938673949200        2.59626620422517
C            3.16012138447368        0.72195340160481       -2.40401478295032
H           -3.31415287983419        3.54052457271802        4.66128028966237
H           -3.78937751290710        2.37872391167417        0.43515834468103
H            0.65480565472082        3.04815471427129        6.77854051190398
H            4.15783534578385        3.00365655462535        4.50100706586800
H            4.16571711546984        2.25696315973810       -0.28497500122450
H            1.42662043706360       -0.63797319030267       -1.41753749549768
O           -5.89023321267809        3.08704377929783        1.53835768824751
O           -5.88365229951289        3.45595670935057        3.83406970706407
C           -7.17623509795540        3.87761366284492        3.55850318504245
C            3.44663674156819        3.10978331022158        7.07141564225989
O            2.73526245480195        3.04463307940630        8.06803944280542
O            4.72960363044568        3.25406442591009        6.80673533531459
C            5.50097304202173        3.46765257913742        7.91472637772259
O            2.45833780436860        0.25961716760697       -3.26573035261071
O            4.53005524712618        1.13922027109927       -2.46298526279358
C            5.10583836942080        0.76317859742859       -3.69899405688248
C           -0.53644574083940       -1.61853593733486       -0.23936152496600
C           -0.96599191771208        2.39565055252042       -0.88325364378520
H            4.41772613891116       -0.14404990632134       -3.97861036664507
H            6.12392450654233        0.50136068299195       -3.35595224929432
H            5.10029405817242        1.53899537540272       -4.50189984628142
H            5.92277885750324        4.48908667832527        7.77035356699194
H            6.27456211606801        2.77571415947942        8.17290576719823
H            4.89538370228393        3.53945439461530        8.80891775025559
H           -1.63671445374703        3.26282974671026       -0.94784002496726
H           -0.97156887723216        1.99335277107398       -1.86095566737969
H            0.02243467825934        2.67272761431457       -0.66654697401095
H            0.22982313708083       -2.34386613217772       -0.39211540356957
H           -0.79754187813966       -1.25004872674340       -1.20802535555700
H           -1.36577085194367       -2.15869196169978        0.24653629054935
H           -7.93125967701495        3.13017682537047        3.30015355992476
H           -7.11943425615959        4.66612711022552        2.86761301504706
H           -7.26916191452121        4.11393243322636        4.66932346256290
C           -4.42970040686850        1.11025993947483        6.40273055869595
C           -4.14063759671532        0.08344741790438        5.49078410105688
C           -2.90585071662081       -0.60780634112748        5.42459270809022
C           -1.92013135299724        0.01743372029094        6.32261589611164
C           -2.32946877803654        0.97699238065125        7.35528917334681
C           -3.56185596515365        1.50146204232643        7.37665780607551
C           -2.51612437771045       -1.77606552671791        4.67955116021230
C           -1.10986822090646       -1.93069685507580        4.53007646360258
C           -0.18214059514598       -0.85813727315473        5.09551457671201
N           -0.57011290838328       -0.05258341823718        6.13200211924163
C           -3.31954398276469       -2.84769240284682        4.06746406306849
C           -2.86766236471511       -3.62017613621587        2.95664943063284
N           -1.53246955577270       -3.49563350701040        2.68555745106140
C           -0.65704641010621       -2.77632693153197        3.48778132748477
C            0.62679790182894       -2.61790274649888        3.00542849986835
C            1.60533074184576       -1.80769964300072        3.60999013266806
C            1.20367751807434       -1.00244374268656        4.63052320801940
C           -4.71402987306894       -3.17747197869501        4.63012602833426
C           -5.55819766628331       -4.07313060507217        3.89358276612240
C           -5.09605999665907       -4.77272139260166        2.79481104786623
C           -3.76656359388884       -4.47014090895795        2.37516062184682
O           -5.14184854471800       -2.82670461447974        5.90343795273711
O           -4.93548686591951       -0.25328133189212        4.42319094256493
C           -3.84282661403216        2.59637724134401        8.28535253476471
C           -6.04735578108328       -5.55715293810296        2.10896191239085
H           -1.58580488362487        1.25502749541146        8.04591006936094
H           -5.46555324037365        1.43794727164967        6.35843766946804
H            1.86636530575276       -0.22409880001871        4.98529161315261
H            0.84446150603675       -3.24597665661974        2.12905186797140
H           -3.36725177561259       -4.90816883087159        1.36500755870333
H           -6.48735894151597       -4.41466737120560        4.39174465817174
O           -3.07426565058652        2.95110302667107        9.07916137593272
O           -5.05477467059508        3.23043628528135        8.08103685606081
C           -5.14889535924928        4.40822930869084        8.92807125036751
C            2.94635686923702       -1.91107346115429        2.93766147645083
O            3.08197128854489       -2.94373987210710        2.23077709266683
O            3.97750488266223       -1.01600147543467        3.26246522981840
C            5.04632765266186       -1.08208736798217        2.37810599888903
O           -6.42380671936210       -6.67166243950553        2.52785282489689
O           -6.46698921501045       -5.15825460324380        0.88293980958983
C           -7.10371792019311       -6.11849177927606       -0.00155898688131
C           -4.31497466978741       -3.29095028567637        6.89063205458331
C           -5.89126269544196        0.58357962310937        3.99407702923145
H           -7.46249957603922       -5.57945069267068       -0.90883386237388
H           -7.79229833904931       -6.76464377960590        0.46888678690531
H           -6.30072548796067       -6.78786697098490       -0.18032469348601
H            5.87653454511080       -1.57418879333030        2.98886035642777
H            5.07862761222566       -0.19916646481361        1.76286835944660
H            4.95203400997944       -1.96845270750141        1.67134641382629
H           -6.88724329159521        0.25935329826781        3.74461618815961
H           -5.72802579134569        0.99435308763355        2.98605238639791
H           -6.08383791658641        1.46766680369721        4.58431378830586
H           -3.86557156296506       -2.46228373019205        7.46143712889041
H           -3.44448539521647       -3.97876567689741        6.67684391766711
H           -4.94309159330214       -3.73456992788354        7.64740930740451
H           -4.22806213599317        4.95714444358585        9.00247612421928
H           -5.43666003892500        3.88342786794921        9.86454193021620
H           -5.85045392047828        5.17198245026333        8.59140636719431
116
 energy: -22.671151935228 gnorm: 0.476001957684 xtb: 6.6.1 (8d0f1dd)
C           -3.05270744139640        3.50748997400881        1.74540828294215
C           -1.69297066656367        3.45312819142425        1.42181291842358
C           -0.96280987326411        2.89187636364488        2.56666908114595
C           -1.44875322375054        3.00907520562966        3.95026464051081
C           -2.78030721575686        3.32607584939777        4.22189937398050
C           -3.58742293827943        3.47366805611956        3.02953527293500
C            0.39063597330726        2.48048399015003        2.51019432333851
C            1.20708354664767        2.55782463077949        3.57848158407679
C            0.64663929524145        3.11874843240838        4.92068231295738
N           -0.69332245867869        3.49034749531959        4.99500664335711
C            0.95718353059823        1.90225549209669        1.32482377138568
C            2.37750642052907        1.83824984773835        1.18361736131903
N            3.16927781892556        2.16271140391455        2.22978539410190
C            2.58401843421114        2.41983394068038        3.43740745482558
C            3.46581583310967        2.76569675096623        4.41203720045130
C            2.97027988339112        3.17032674006820        5.71153335511039
C            1.58675432123905        3.38733456686717        5.91982854790849
C            0.20474353822531        1.13770701409863        0.26715009435919
C            0.94032807831568        0.61320183272241       -0.73808518143902
C            2.19274368544853        0.83879798046966       -0.98547802045922
C            2.97088069456504        1.45029386047761       -0.03692136929647
O           -1.25926609004579        0.89151954607943        0.50078495341786
O           -1.19332637222697        3.73811504391579        0.14080545935102
C           -5.05687982391845        3.18276538391261        3.27273710713474
C            2.73049938611449        0.45892222520372       -2.23494249359761
H           -3.15701199590010        3.56321395407770        5.19648288625992
H           -3.69039448019836        3.54610956932015        0.76837805219862
H            1.23958224042593        3.85071331764237        6.80024881438474
H            4.54244851017395        2.95898758282681        4.17075869774978
H            3.97306625554085        1.61530870760766       -0.30849325513641
H            0.48747049753386        0.04975199903328       -1.51803354296190
O           -5.85065397880963        2.58608375466517        2.53931181527906
O           -5.62911161877439        3.62936776096957        4.49826705161515
C           -6.98790366362028        4.00839666372569        4.22242244874120
C            3.95578114046297        3.92801134894213        6.64374120956584
O            3.70627888869484        4.90517940047264        7.28296979634925
O            5.12166426390171        3.30270786143365        6.27273818834316
C            6.23137556135324        3.83120659219945        6.94763549547878
O            2.05816116213873       -0.30146483785782       -2.95931044746469
O            3.95864760099160        0.87477214624480       -2.65550407618981
C            4.20399207830802        0.38369490014277       -3.79521110478657
C           -1.92425104711512       -0.36460457978722        0.31653602271835
C           -1.83673993719979        4.85291367960547       -0.50992832811032
H            5.24931564013387        0.03630717254094       -3.75995069186709
H            4.23852912840728        1.18263157227022       -4.55081536968216
H            3.70083896696473       -0.55913296223637       -3.80604898728130
H            6.71206503725544        3.10750673926691        7.57830587407253
H            5.73092499443785        4.45502307672600        7.71301692661831
H            6.92096669528510        4.54821953435597        6.54364302744644
H           -2.81448586965453        4.68905603893290       -1.19070868857852
H           -1.05737213684928        5.16767705486335       -1.22136927258428
H           -2.00224544095238        5.64930010790309        0.26411347350524
H           -1.37459761233725       -0.79454446243845        1.24898858073081
H           -1.62413244622139       -0.60292194112279       -0.72636231109318
H           -2.90982521344926       -0.24612242415197        0.70040414484968
H           -7.48707552440070        3.93309928113279        5.23771269182016
H           -7.41971351906023        3.49318902117770        3.33201713762869
H           -7.16882481839462        5.12653788648829        3.92055919001414
C           -4.58360618839089        0.66524015762083        5.86680301563543
C           -4.21560779847930       -0.40802130327129        5.07999594149589
C           -2.91125608453272       -0.99219147843683        5.16856116389630
C           -1.97825116992623       -0.17182959546243        5.88682780052997
C           -2.44605704978809        0.77055475430845        6.80879188474081
C           -3.70590254678730        1.29372634073581        6.68367341092137
C           -2.45040693117992       -2.09683726903727        4.45491368983764
C           -1.06840589056872       -2.23967790956807        4.35095006534623
C           -0.22713091340829       -1.34750566604219        5.17755280493151
N           -0.61871766738567       -0.40314687531055        6.09743399612887
C           -3.16366558147462       -3.04006532495790        3.69084479629397
C           -2.58985300884679       -3.66744270090957        2.58074767656846
N           -1.22779493750247       -3.59899777154086        2.38040403689426
C           -0.50258918122369       -2.96048527530969        3.26030729704757
C            0.90314063398732       -2.99001295891127        3.12526737979177
C            1.70278699501614       -2.24767051295035        3.94267395768736
C            1.09972512690788       -1.33819750127365        4.83770926906599
C           -4.47372633235356       -3.41267636628738        4.17776509157986
C           -5.23314332677495       -4.20099789414387        3.34343289906746
C           -4.63235850520305       -4.72295625582091        2.16130013513211
C           -3.37224297574210       -4.47612486217733        1.72109546111086
O           -4.99368292499857       -2.97554510035146        5.49414100368092
O           -5.02682637908350       -0.81218599627443        4.01824324520847
C           -4.06673334917638        2.56883021699568        7.45262037965371
C           -5.16825063441259       -5.93765655930905        1.50970650404532
H           -1.72425376723589        1.43892834004459        7.33098107868172
H           -5.65736804350249        0.79535318003994        5.98633439059210
H            1.90210358675618       -0.80062143245789        5.24714284965981
H            1.38779263841888       -3.19324320384465        2.16598848224273
H           -3.08951897155894       -4.66487983496820        0.62631294730927
H           -6.39656816900975       -4.48472984317492        3.52167627122094
O           -3.39942884150723        3.61938839410323        7.45108976980671
O           -5.32105321023445        2.73321411610262        8.08489032717291
C           -5.53649224460848        3.98487604771527        8.76584251887276
C            3.16170819253993       -2.66933144503582        3.64007656212042
O            3.77478017762364       -2.68563843189847        2.57176237083770
O            3.71415330532090       -3.10006750444368        4.84573131048216
C            4.96206795033384       -3.59125076954896        4.46071651020812
O           -4.89160041791415       -6.28960472575798        0.40508760215930
O           -6.12138005362651       -6.51055929978674        2.30797258757392
C           -6.22882632954085       -7.92119293245814        2.07114153162783
C           -5.76223531334286       -4.08654859430466        6.11020506374388
C           -6.32100405690679       -0.32685324603277        3.78746074668033
H           -6.37290250113078       -7.87694767718795        1.07380890882184
H           -7.00610019782594       -8.32460184151911        2.72731346533596
H           -5.12609259050875       -8.14560145244683        2.27534747182790
H            4.93182852514756       -4.69922118866629        4.60172215401242
H            5.70761664440854       -3.36860689812567        5.27843032886485
H            5.35792615165941       -3.30701759690534        3.46035453946876
H           -6.75298708739927        0.04274391911846        4.69884969496204
H           -7.05998910521228       -1.20874403539925        3.70932938493301
H           -6.14911001239359        0.65119469121541        3.16619283534027
H           -5.12314356301111       -4.66555782816155        6.79968393926013
H           -6.46041059828988       -4.68340508995580        5.48198550145053
H           -6.39799985922655       -3.65525251694445        6.89161654562781
H           -5.74658548567376        4.67305681930292        7.97531745938902
H           -4.55236676483336        4.16853660510843        9.32137373465824
H           -6.48479180559113        3.99138568680080        9.53323495040790
116
 energy: -22.652262671489 gnorm: 0.517905097962 xtb: 6.6.1 (8d0f1dd)
C           -3.12629589680611        4.13411551898424        2.18024138409602
C           -1.87358316935240        3.87571168978700        1.74500773234869
C           -0.92090916782515        3.61947171760956        2.75378834325924
C           -1.23567518327362        3.76584232927861        4.08638030636170
C           -2.51275801479551        4.19968767449590        4.39126915943071
C           -3.49929020480676        4.61129542519398        3.46549722099164
C            0.31486508978860        3.03615922304269        2.32807615448565
C            1.34190772072831        3.12860568144975        3.23798533112039
C            0.95007529103647        3.54286372677926        4.67297676197644
N           -0.26065139669638        4.02678749819200        5.04292569114788
C            0.79787562656815        2.12647665214620        1.12484243186000
C            2.15293460680754        2.25118262561145        0.78858325669908
N            3.06920941705193        2.50705091268186        1.72560454493872
C            2.68382534802951        2.75346825801418        2.94145657002526
C            3.69914885160858        2.84544230351719        3.97201642324154
C            3.31158459464611        3.24375200566994        5.28133210274641
C            1.97772518321608        3.59513964340048        5.62062854680014
C           -0.11131524813003        1.38801882939830        0.35806343365472
C            0.30015639124694        0.96869614581737       -0.81951578272924
C            1.62750466722199        1.10192933674463       -1.27518391658437
C            2.49150563212496        1.85826739885659       -0.54311790455985
O           -1.33592180929392        0.91782339958963        0.90451489609664
O           -1.39501314219209        3.93893260922309        0.42371260158558
C           -4.92963528635115        4.71868445859605        3.66923168946541
C            2.06040531683355        0.29467668046797       -2.45951117754798
H           -2.89106332061483        4.26023783602686        5.47469834289822
H           -4.10367377433457        3.85620884602419        1.62127634018825
H            1.75370376746247        4.12114902948704        6.58993344500780
H            4.71760141019486        2.44094004808566        4.11837407523753
H            3.49735042584297        1.83358514123981       -0.71902316751649
H           -0.35632483600200        0.20118788933055       -1.25271925178307
O           -5.72958873271998        4.33355242131429        2.98275421748632
O           -5.19521129480042        5.21763037031999        4.86196608680392
C           -6.58990926009289        5.29808125794840        5.01156476922092
C            4.38109352887935        3.31414593891381        6.36761052588387
O            3.82510604633300        3.36198577200426        7.47249924503618
O            5.75720960562957        3.50418197354238        6.20331287188521
C            6.27151255826347        3.64803194584216        7.56365901673821
O            2.10453497429845        0.65631434638923       -3.59255639691444
O            2.17623315242425       -1.06420815912182       -2.16202132855029
C            2.78805101020889       -1.74224992340223       -3.24158274360544
C           -1.36695627721087       -0.05046800588308        1.95857160061423
C           -2.45152980155839        4.06612671981195       -0.46920902768844
H            3.09728592508725       -2.73245253301594       -2.85542240321543
H            3.73323681633408       -1.25275433414950       -3.32123671014157
H            2.10652903746749       -1.92543718494260       -4.15111307898047
H            7.17606634004626        2.90363251670840        7.61127354217859
H            5.61421551591737        3.46346275267640        8.44465474865052
H            6.72411499024846        4.62614292300413        7.50966939567645
H           -2.74878090912875        3.07342687335107       -0.53792935608306
H           -1.96108667006429        4.37183479248461       -1.42507733774415
H           -3.26504607929016        4.70079008282416       -0.06706810135954
H           -1.91560358756286       -0.90962671731823        1.73931534389774
H           -1.51041951741595        0.41086078919567        2.86792552717890
H           -0.32577268181756       -0.48381305010352        2.04950825526942
H           -7.18902015114972        4.62106844002975        4.40793284839552
H           -6.75705155219613        6.31581918934850        4.63587331321307
H           -6.96752052984596        5.26926538824344        5.98001530334209
C           -4.78476618245541        0.57686853529076        5.01706528288675
C           -4.09698186104581       -0.35685183138359        4.16043300794967
C           -2.70379227180547       -0.73869295462909        4.49781853779230
C           -1.93570353281502        0.07193425503353        5.32365145013535
C           -2.51529193424381        1.10451419359306        6.07858275137588
C           -3.94840129947361        1.06663608481259        6.06654253411436
C           -2.28562496335760       -2.11609816995441        4.18591186860630
C           -0.89993224633340       -2.19748249427686        4.28342368872092
C           -0.06867779770836       -1.21688904479816        4.96179486252327
N           -0.55765683020886       -0.05876581238364        5.36243600009516
C           -3.00066002702694       -3.32354633496100        3.86010613625990
C           -2.29931705154146       -4.32833242756281        3.12555945147314
N           -0.97920754518282       -4.34528969526519        3.09892657139649
C           -0.26422231634747       -3.34228618181361        3.68142259027073
C            1.13163661156497       -3.52735026374896        3.79941597424123
C            1.85486284724439       -2.52106580396904        4.38245379882470
C            1.32959800994742       -1.38328312073840        5.00877985103529
C           -4.38632499422707       -3.48170155269470        3.81642970921568
C           -5.09828483839234       -4.36722412141023        2.95344273023309
C           -4.35332549562081       -5.47686674876717        2.59827281535907
C           -2.97819688050943       -5.45109192424125        2.71499201969115
O           -5.16320087535036       -2.95529081958465        4.89382882046319
O           -4.76304101564489       -0.84606304812106        3.07029120170216
C           -4.68752044036157        1.01575192204870        7.45464206541187
C           -4.98073224742429       -6.69038051022108        1.84629617785221
H           -1.91753047051673        1.61684330369992        6.85938272563541
H           -5.76264360722661        0.31389078055886        5.37806665389633
H            1.68173084640071       -0.39858814441183        5.35330345422224
H            1.70835891050293       -4.44209173703473        3.50816552964365
H           -2.69787785720977       -6.50465105987204        2.54342591764443
H           -6.20445930242613       -4.38878593901222        2.94478869350216
O           -4.02480574560231        0.68530581495659        8.37140843573381
O           -5.99547282942489        1.41873719855543        7.50378766835579
C           -6.55169004553745        1.67059089716760        8.80820040384630
C            3.38126213428188       -2.51292626317889        4.32649457030842
O            3.92311829943027       -3.62676508984563        4.46517367652146
O            4.01142834557917       -1.31768596759658        4.19219036105958
C            5.40456091542731       -1.44863601597302        4.24290171070194
O           -5.01181511557004       -7.87415327347221        2.07763393162013
O           -5.77769923921876       -6.15115430171830        0.91583707083019
C           -6.91813421621832       -7.01937408136321        0.46284750477070
C           -4.72069588019327       -2.79070444562819        6.28372501752164
C           -5.52542778974064       -0.20166281121659        2.04292200861049
H           -6.39906516804805       -7.96922048203542        0.12579547758920
H           -7.30353173256243       -6.53899391102588       -0.44333789874597
H           -7.70583365950246       -7.15322098555351        1.14418868274045
H            5.75967868916782       -0.48820879466448        3.99286101533218
H            5.83669360167084       -2.21726219613427        3.51795222489856
H            5.93948752251253       -1.83563961760105        5.22004896321845
H           -5.07717104831859        0.36143714625655        1.24531753052106
H           -6.32079125893223        0.40493529823178        2.49379928286793
H           -5.68188868808894       -0.95160524959473        1.32399337827107
H           -3.79734010369088       -2.09871046720760        6.24291413355606
H           -4.18986362722338       -3.62978290347778        6.73356559416583
H           -5.70986852067771       -2.53179686958754        6.81424407852241
H           -6.39887512019179        2.76303536852731        9.18813301205820
H           -6.12682596827741        0.95563850156158        9.53889447727593
H           -7.53076435201680        1.31714969594369        8.51915815209864
116
 energy: -22.717151177354 gnorm: 0.475080657976 xtb: 6.6.1 (8d0f1dd)
C           -3.03935652424996        3.72521950631374        2.00905145180975
C           -1.77454319237177        3.17568142596502        1.78533928304273
C           -0.97981267484589        2.57694827558023        2.86083714102668
C           -1.37814137752948        2.88602300990934        4.15831212733080
C           -2.59527583388801        3.50064862106940        4.38623159639986
C           -3.43945144791564        3.84297827058527        3.35879911118541
C            0.36231372872373        2.09582976708562        2.61643233469172
C            1.41962274193939        2.32244392826310        3.50211566832713
C            0.88003833604152        2.74796448156334        4.80820696840861
N           -0.38219999904084        3.03922996717313        5.11271556073676
C            0.66738264567810        1.31554045273590        1.43587419505313
C            2.01283184002951        0.88981054270741        1.29592951446202
N            3.08855016683854        1.50190629187089        1.95199525635268
C            2.80376791201689        2.22215558146452        3.12612665892098
C            3.65736956927971        2.51343093457368        4.13966924999460
C            3.13829850901711        2.66224242961079        5.41442365012997
C            1.85929072521090        2.77362902486191        5.77369574773403
C           -0.36748443623748        0.84595794353546        0.39441158235927
C            0.13574995570359        0.27301770552576       -0.75107680784941
C            1.40145608573300       -0.27096536105222       -0.73360741709844
C            2.41380556535863        0.06757357175540        0.21113557121215
O           -1.75371277366614        0.62129901647837        0.71423419390978
O           -1.09007188309280        3.49013419246136        0.52770594544691
C           -4.56343874540191        4.65432571380996        3.74259191818774
C            1.88734582370055       -0.74437305579115       -2.16250902300425
H           -2.80842355050303        3.74657656868360        5.56297301181056
H           -3.82610339739047        3.72229585155693        1.15554027621610
H            1.44393596468207        3.07521283802933        6.79708647484743
H            4.75665063846762        2.46184435361097        3.97708103154597
H            3.31168232244873       -0.47883987454647        0.26193497584835
H           -0.59157266708051       -0.14514923446489       -1.42614099458937
O           -5.57586226056536        4.57270322458123        3.08647982147799