Optimization of monomers started
      -----------------------------------------------------------      
     |                   =====================                   |     
     |                           x T B                           |     
     |                   =====================                   |     
     |                         S. Grimme                         |     
     |          Mulliken Center for Theoretical Chemistry        |     
     |                    University of Bonn                     |     
      -----------------------------------------------------------      

   * xtb version 6.7.1 (edcfbbe) compiled by 'runner@Mac-1732539442253.local' on 2024-11-25

   xtb is free software: you can redistribute it and/or modify it under
   the terms of the GNU Lesser General Public License as published by
   the Free Software Foundation, either version 3 of the License, or
   (at your option) any later version.
   
   xtb is distributed in the hope that it will be useful,
   but WITHOUT ANY WARRANTY; without even the implied warranty of
   MERCHANTABILITY or FITNESS FOR A PARTICULAR PURPOSE.  See the
   GNU Lesser General Public License for more details.
   
   Cite this work as:
   * C. Bannwarth, E. Caldeweyher, S. Ehlert, A. Hansen, P. Pracht,
     J. Seibert, S. Spicher, S. Grimme, WIREs Comput. Mol. Sci., 2020, 11,
     e01493. DOI: 10.1002/wcms.1493
   
   for GFN2-xTB:
   * C. Bannwarth, S. Ehlert and S. Grimme., J. Chem. Theory Comput., 2019,
     15, 1652-1671. DOI: 10.1021/acs.jctc.8b01176
   for GFN1-xTB:
   * S. Grimme, C. Bannwarth, P. Shushkov, J. Chem. Theory Comput., 2017,
     13, 1989-2009. DOI: 10.1021/acs.jctc.7b00118
   for GFN0-xTB:
   * P. Pracht, E. Caldeweyher, S. Ehlert, S. Grimme, ChemRxiv, 2019, preprint.
     DOI: 10.26434/chemrxiv.8326202.v1
   for GFN-FF:
   * S. Spicher and S. Grimme, Angew. Chem. Int. Ed., 2020, 59, 15665-15673.
     DOI: 10.1002/anie.202004239
   
   for ALPB and GBSA implicit solvation:
   * S. Ehlert, M. Stahn, S. Spicher, S. Grimme, J. Chem. Theory Comput.,
     2021, 17, 4250-4261. DOI: 10.1021/acs.jctc.1c00471
   
   for ddCOSMO and CPCM-X implicit solvation:
   * M. Stahn, S. Ehlert, S. Grimme, J. Phys. Chem. A,
     2023, XX, XXXX-XXXX. DOI: 10.1021/acs.jpca.3c04382
   
   for DFT-D4:
   * E. Caldeweyher, C. Bannwarth and S. Grimme, J. Chem. Phys., 2017,
     147, 034112. DOI: 10.1063/1.4993215
   * E. Caldeweyher, S. Ehlert, A. Hansen, H. Neugebauer, S. Spicher,
     C. Bannwarth and S. Grimme, J. Chem. Phys., 2019, 150, 154122.
     DOI: 10.1063/1.5090222
   * E. Caldeweyher, J.-M. Mewes, S. Ehlert and S. Grimme, Phys. Chem. Chem. Phys.
     2020, 22, 8499-8512. DOI: 10.1039/D0CP00502A
   
   for sTDA-xTB:
   * S. Grimme and C. Bannwarth, J. Chem. Phys., 2016, 145, 054103.
     DOI: 10.1063/1.4959605
   
   in the mass-spec context:
   * V. Asgeirsson, C. Bauer and S. Grimme, Chem. Sci., 2017, 8, 4879.
     DOI: 10.1039/c7sc00601b
   * J. Koopman and S. Grimme, ACS Omega 2019, 4, 12, 15120-15133.
     DOI: 10.1021/acsomega.9b02011
   
   for metadynamics refer to:
   * S. Grimme, J. Chem. Theory Comput., 2019, 155, 2847-2862
     DOI: 10.1021/acs.jctc.9b00143
   
   for SPH calculations refer to:
   * S. Spicher and S. Grimme, J. Chem. Theory Comput., 2021, 17, 1701-1714
     DOI: 10.1021/acs.jctc.0c01306
   
   for ONIOM refer to:
   * C. Plett, A. Katbashev, S. Ehlert, S. Grimme, M. Bursch,
     Phys. Chem. Chem. Phys., 2023, 25, 17860-17868. DOI: 10.1039/D3CP02178E
   
   for DIPRO refer to:
   * J. Kohn, N. Gildemeister, S. Grimme, D. Fazzi, A. Hansen,
     J. Chem. Phys., 2023, just accepted.
   
   for PTB refer to:
   * S. Grimme, M. Mueller, A. Hansen, J. Chem. Phys., 2023, 158, 124111.
     DOI: 10.1063/5.0137838
   
   with help from (in alphabetical order)
   P. Atkinson, C. Bannwarth, F. Bohle, G. Brandenburg, E. Caldeweyher
   M. Checinski, S. Dohm, S. Ehlert, S. Ehrlich, I. Gerasimov, C. Hölzer
   A. Katbashev, J. Kohn, J. Koopman, C. Lavigne, S. Lehtola, F. März, M. Müller,
   F. Musil, H. Neugebauer, J. Pisarek, C. Plett, P. Pracht, F. Pultar,
   J. Seibert, P. Shushkov, S. Spicher, M. Stahn, M. Steiner, T. Strunk,
   J. Stückrath, T. Rose, and J. Unsleber
   
 * started run on 2025/03/13 at 13:34:34.216     
   ID    Z sym.   atoms
    1    6 C      1-9, 11, 12, 14-21, 27-35, 37, 38, 40-47, 56, 58, 62, 65,
                  68, 71
    2    7 N      10, 13, 36, 39
    3    8 O      22, 23, 48, 49, 54, 55, 57, 59-61, 63, 64, 66, 67, 69, 70
    4   16 S      24-26, 50-52
    5    5 B      53
    6    1 H      72-101

           -------------------------------------------------
          |                Calculation Setup                |
           -------------------------------------------------

          program call               : xtb Base1SO2Me.mol --opt --chrg 0 --uhf 1 --tight --spinpol --tblite
          coordinate file            : Base1SO2Me.mol
          omp threads                :                     8


molecular fragmentation (1/2 indicates fragments):
111111111111111111111111112222222222222222222222222211111112222222221112
22222111222111111222222112211
# atoms in fragment 1/2:    49    52
 fragment masses (1/2) :      540.35      533.57
CMA distance (Bohr)    :  15.103
constraining FC (au)   :  0.0500
########################################################################
[WARNING] Please study the warnings concerning your input carefully
-1- prog_main_parseArguments: Unknown option '--tight' provided
########################################################################
repulsion energy          1.6369179641628E+00 Eh
dispersion energy         1.1753499983671E-03 Eh
interaction energy        0.0000000000000E+00 Eh
number of electrons       3.6100000000000E+02 e
integral cutoff           1.9311100799991E+01 bohr

------------------------------------------------------------
  cycle        total energy    energy error   density error
------------------------------------------------------------
      1     -202.8783762168  -2.0451647E+02   1.7550666E-01
      2     -201.0944093635   1.7839669E+00   1.4284280E-01
      3     -195.7618321942   5.3325772E+00   1.3330147E-01
      4     -166.1771036976   2.9584728E+01   1.8286072E-01
      5     -191.8922533770  -2.5715150E+01   1.2276261E-01
      6     -203.6376926574  -1.1745439E+01   7.3195131E-02
      7     -204.4865010256  -8.4880837E-01   4.6229707E-02
      8     -204.4293143346   5.7186691E-02   4.1258715E-02
      9     -204.5755231933  -1.4620886E-01   3.8424280E-02
     10     -204.6051849396  -2.9661746E-02   3.4389078E-02
     11     -204.7328586890  -1.2767375E-01   3.2569587E-02
     12     -204.6118584643   1.2100022E-01   2.8163024E-02
     13     -204.7634198426  -1.5156138E-01   2.2971145E-02
     14     -204.6748169382   8.8602904E-02   2.6439704E-02
     15     -204.7778438847  -1.0302695E-01   2.1056907E-02
     16     -204.7937517110  -1.5907826E-02   2.0284798E-02
     17     -204.8235642336  -2.9812523E-02   1.6004988E-02
     18     -204.8602979392  -3.6733706E-02   1.4247134E-02
     19     -204.8846588773  -2.4360938E-02   9.4231312E-03
     20     -204.8909415670  -6.2826897E-03   8.0450678E-03
     21     -204.8926242193  -1.6826523E-03   7.4528657E-03
     22     -204.8785371447   1.4087075E-02   7.8749819E-03
     23     -204.8982208904  -1.9683746E-02   5.0816545E-03
     24     -204.8987782138  -5.5732343E-04   4.0264275E-03
     25     -204.9015403340  -2.7621202E-03   3.0696392E-03
     26     -204.9023271295  -7.8679548E-04   2.3111688E-03
     27     -204.9031133970  -7.8626750E-04   2.1261335E-03
     28     -204.9030110388   1.0235827E-04   1.8966940E-03
     29     -204.9036637045  -6.5266576E-04   1.6301987E-03
     30     -204.9023292718   1.3344328E-03   2.1700036E-03
     31     -204.9039211056  -1.5918339E-03   1.3071172E-03
     32     -204.9040617960  -1.4069033E-04   1.3240433E-03
     33     -204.9040821059  -2.0309953E-05   1.3104626E-03
     34     -204.9041386872  -5.6581289E-05   1.2725989E-03
     35     -204.9042035578  -6.4870544E-05   1.2055186E-03
     36     -204.9041848786   1.8679113E-05   1.1754303E-03
     37     -204.9040323259   1.5255270E-04   1.3015121E-03
     38     -204.9041881432  -1.5581729E-04   1.0477867E-03
     39     -204.9041271236   6.1019667E-05   1.2212564E-03
     40     -204.9041724355  -4.5311969E-05   1.1229765E-03
     41     -204.9042122788  -3.9843238E-05   1.0358428E-03
     42     -204.9042427747  -3.0495935E-05   9.6392399E-04
     43     -204.9042629329  -2.0158218E-05   9.0927724E-04
     44     -204.9041895296   7.3403317E-05   9.5847816E-04
     45     -204.9041720418   1.7487780E-05   9.7834790E-04
     46     -204.9042733914  -1.0134952E-04   7.6088086E-04
     47     -204.9043671117  -9.3720305E-05   5.3131166E-04
     48     -204.9043854905  -1.8378886E-05   4.6902867E-04
     49     -204.9044057524  -2.0261832E-05   3.7822607E-04
     50     -204.9044053147   4.3763956E-07   3.7964882E-04
     51     -204.9044061783  -8.6356931E-07   3.6584205E-04
     52     -204.9044183970  -1.2218736E-05   2.5898650E-04
     53     -204.9044229991  -4.6020358E-06   2.0528189E-04
     54     -204.9044258353  -2.8362695E-06   1.7941350E-04
     55     -204.9044291656  -3.3302133E-06   1.5043949E-04
     56     -204.9044282211   9.4448515E-07   1.4896194E-04
     57     -204.9044307039  -2.4828020E-06   1.2407599E-04
     58     -204.9044314552  -7.5135281E-07   1.1738292E-04
     59     -204.9044304081   1.0470983E-06   1.3213459E-04
     60     -204.9044306353  -2.2713962E-07   1.2760787E-04
     61     -204.9044305552   8.0042184E-08   1.2953986E-04
     62     -204.9044299376   6.1763686E-07   1.2962098E-04
     63     -204.9044281769   1.7607376E-06   1.3976060E-04
     64     -204.9044294875  -1.3106206E-06   1.2522983E-04
     65     -204.9044289951   4.9234893E-07   1.2399419E-04
     66     -204.9044305158  -1.5206623E-06   1.0610409E-04
     67     -204.9044314627  -9.4693306E-07   9.5301782E-05
     68     -204.9044317905  -3.2778746E-07   8.9710802E-05
     69     -204.9044318956  -1.0510442E-07   8.6115625E-05
     70     -204.9044321827  -2.8711321E-07   8.0574013E-05
     71     -204.9044321362   4.6508291E-08   7.7093462E-05
     72     -204.9044324897  -3.5349390E-07   6.5529404E-05
     73     -204.9044327688  -2.7910053E-07   5.6100238E-05
     74     -204.9044335224  -7.5358807E-07   2.8480080E-05
     75     -204.9044334247   9.7672597E-08   2.9694108E-05
     76     -204.9044337271  -3.0234864E-07   1.2316747E-05
------------------------------------------------------------

electronic energy        -2.0654252704124E+02 Eh
total energy             -2.0490443372707E+02 Eh

 total:                                   8.566 sec
 - repulsion                              0.000 sec (  0%)
 - dispersion                             0.011 sec (  0%)
 - coulomb                                0.004 sec (  0%)
 - hamiltonian                            0.021 sec (  0%)
 - scc                                    8.530 sec ( 99%)

      ----------------------------------------------------------- 
     |                   =====================                   |
     |                        A N C O P T                        |
     |                   =====================                   |
     |               Approximate Normal Coordinate               |
     |                Rational Function Optimizer                |
      ----------------------------------------------------------- 
      ----------------------------------------------------------- 
     |                   =====================                   |
     |                        A N C O P T                        |
     |                   =====================                   |
     |               Approximate Normal Coordinate               |
     |                Rational Function Optimizer                |
      ----------------------------------------------------------- 

          ...................................................
          :                      SETUP                      :
          :.................................................:
          :   optimization level            normal          :
          :   max. optcycles                   303          :
          :   ANC micro-cycles                  20          :
          :   degrees of freedom               297          :
          :.................................................:
          :   RF solver                   davidson          :
          :   write xtbopt.log                true          :
          :   linear?                        false          :
          :   energy convergence         0.5000000E-05 Eh   :
          :   grad. convergence          0.1000000E-02 Eh/α :
          :   maxmium RF displ.          1.0000000          :
          :   Hlow (freq-cutoff)         0.1000000E-01      :
          :   Hmax (freq-cutoff)         5.0000000          :
          :   S6 in model hess.         20.0000000          :
          ...................................................

generating ANC from exact Hessian ...
Using Lindh-Hessian (1995)
 Shifting diagonal of input Hessian by    1.0411913911083624E-002
 Lowest  eigenvalues of input Hessian
    0.010000    0.010369    0.000000    0.000000    0.000000    0.000000
    0.000000    0.000000    0.010434    0.010461    0.010523    0.010567
    0.010608    0.010657    0.010716    0.010790    0.010821    0.010869
 Highest eigenvalues
    3.661942    3.671357    3.671711    3.671719    3.682515    3.682863


........................................................................
.............................. CYCLE    1 ..............................
........................................................................
------------------------------------------------------------
  cycle        total energy    energy error   density error
------------------------------------------------------------
      1     -204.9043399802  -2.0654243E+02   4.8853619E-04
      2     -204.8703301097   3.4009870E-02   8.4927897E-03
      3     -204.9031105755  -3.2780466E-02   2.0929706E-03
      4     -204.9044138709  -1.3032954E-03   2.7454481E-04
      5     -204.9043611407   5.2730282E-05   4.3602949E-04
      6     -204.9043975546  -3.6413889E-05   3.6076542E-04
      7     -204.9044269091  -2.9354581E-05   1.4644876E-04
      8     -204.9044324076  -5.4984849E-06   6.2123109E-05
      9     -204.9044335538  -1.1461718E-06   3.1018465E-05
     10     -204.9044336120  -5.8170713E-08   2.4345576E-05
     11     -204.9044335760   3.5924074E-08   2.4733403E-05
     12     -204.9044334965   7.9575813E-08   2.7334923E-05
     13     -204.9044336925  -1.9604283E-07   1.7269539E-05
------------------------------------------------------------

 total:                                   2.085 sec
 * total energy  :  -204.9044337 Eh     change        0.3457191E-07 Eh
   gradient norm :     0.6609608 Eh/α   predicted     0.0000000E+00 (-100.00%)
   displ. norm   :     0.7846574 α      lambda       -0.4661077E+00
   maximum displ.:     0.1947932 α      in ANC's #142, #117, #144, ...

........................................................................
.............................. CYCLE    2 ..............................
........................................................................
------------------------------------------------------------
  cycle        total energy    energy error   density error
------------------------------------------------------------
      1     -205.1512686013  -2.0676520E+02   4.5804008E-02
      2     -204.5892186417   5.6204996E-01   5.9059248E-02
      3     -205.1008730248  -5.1165438E-01   3.1494180E-02
      4     -205.0796350090   2.1238016E-02   2.9922627E-02
      5     -205.1424703449  -6.2835336E-02   2.8003011E-02
      6     -205.2383287498  -9.5858405E-02   2.3143423E-02
      7     -205.2223470972   1.5981653E-02   2.6123316E-02
      8     -205.2961502429  -7.3803146E-02   1.9188554E-02
      9     -205.1118163996   1.8433384E-01   2.8390131E-02
     10     -205.2831370593  -1.7132066E-01   1.4073927E-02
     11     -205.3163162289  -3.3179170E-02   1.4565744E-02
     12     -205.3184068856  -2.0906568E-03   1.3347538E-02
     13     -205.3135064349   4.9004507E-03   1.3080906E-02
     14     -205.3382659421  -2.4759507E-02   6.3937028E-03
     15     -205.3523463743  -1.4080432E-02   3.1725554E-03
     16     -205.3526403490  -2.9397470E-04   3.0010128E-03
     17     -205.3466301814   6.0101677E-03   5.7150675E-03
     18     -205.3500453137  -3.4151324E-03   4.0787322E-03
     19     -205.3517786742  -1.7333605E-03   2.5766577E-03
     20     -205.3540268107  -2.2481365E-03   1.5483394E-03
     21     -205.3540672839  -4.0473286E-05   1.5129672E-03
     22     -205.3538522199   2.1506402E-04   1.4944612E-03
     23     -205.3542836084  -4.3138846E-04   9.9029325E-04
     24     -205.3538496256   4.3398282E-04   1.5616815E-03
     25     -205.3543671637  -5.1753816E-04   5.4898339E-04
     26     -205.3543549492   1.2214552E-05   6.3919974E-04
     27     -205.3543104391   4.4510117E-05   7.5070940E-04
     28     -205.3542549038   5.5535271E-05   8.8095991E-04
     29     -205.3543159337  -6.1029949E-05   6.7457440E-04
     30     -205.3543170988  -1.1650462E-06   6.6905423E-04
     31     -205.3542882049   2.8893889E-05   7.1474565E-04
     32     -205.3542501688   3.8036050E-05   7.9624183E-04
     33     -205.3542309796   1.9189246E-05   7.7416367E-04
     34     -205.3542557441  -2.4764481E-05   7.3400984E-04
     35     -205.3542701461  -1.4402058E-05   7.1432552E-04
     36     -205.3542225404   4.7605766E-05   8.0886609E-04
     37     -205.3543928036  -1.7026323E-04   3.5004641E-04
     38     -205.3543912866   1.5169654E-06   3.5650600E-04
     39     -205.3543796516   1.1635075E-05   4.2654661E-04
     40     -205.3543869162  -7.2646560E-06   3.7529008E-04
     41     -205.3543952942  -8.3779680E-06   3.3265246E-04
     42     -205.3543971407  -1.8465400E-06   3.2111392E-04
     43     -205.3543913497   5.7910615E-06   3.2989595E-04
     44     -205.3543829033   8.4463687E-06   3.3647812E-04
     45     -205.3543811403   1.7630174E-06   3.4359746E-04
     46     -205.3543800020   1.1382285E-06   3.3347541E-04
     47     -205.3544133936  -3.3391578E-05   1.5717778E-04
     48     -205.3544133944  -7.3316642E-10   1.5434186E-04
     49     -205.3544149175  -1.5231721E-06   1.4288239E-04
     50     -205.3544149070   1.0572506E-08   1.4236046E-04
     51     -205.3544153163  -4.0937397E-07   1.3681198E-04
     52     -205.3544150940   2.2228275E-07   1.4058903E-04
     53     -205.3544150938   2.9029934E-10   1.4045930E-04
     54     -205.3544149761   1.1762796E-07   1.3818974E-04
     55     -205.3544153782  -4.0206464E-07   1.2888961E-04
     56     -205.3544160989  -7.2074002E-07   9.6470284E-05
     57     -205.3544167192  -6.2031353E-07   3.5341467E-05
     58     -205.3544166545   6.4759746E-08   3.0648769E-05
     59     -205.3544165896   6.4921210E-08   3.0212595E-05
     60     -205.3544165055   8.4056524E-08   3.9624499E-05
     61     -205.3544166418  -1.3633158E-07   2.5692183E-05
     62     -205.3544166937  -5.1885621E-08   1.4155490E-05
------------------------------------------------------------

 total:                                   7.277 sec
 * total energy  :  -205.3544167 Eh     change       -0.4499830E+00 Eh
   gradient norm :     0.6046028 Eh/α   predicted    -0.3765577E+00 ( -16.32%)
   displ. norm   :     0.9737695 α      lambda       -0.5809510E+00
   maximum displ.:     0.2638515 α      in ANC's #180, #142, #183, ...

........................................................................
.............................. CYCLE    3 ..............................
........................................................................
------------------------------------------------------------
  cycle        total energy    energy error   density error
------------------------------------------------------------
      1     -205.6817569639  -2.0727499E+02   3.8810636E-02
      2     -205.1859500310   4.9580693E-01   5.6997177E-02
      3     -205.6197723102  -4.3382228E-01   3.9924941E-02
      4     -205.6523259350  -3.2553625E-02   2.8223852E-02
      5     -205.4962529197   1.5607302E-01   2.9922578E-02
      6     -205.6755429687  -1.7929005E-01   2.5340248E-02
      7     -205.8577930425  -1.8225007E-01   1.3709708E-02
      8     -205.7146613250   1.4313172E-01   2.2652991E-02
      9     -205.8017395318  -8.7078207E-02   2.2232869E-02
     10     -205.8444857192  -4.2746187E-02   1.4160999E-02
     11     -205.8604162348  -1.5930516E-02   1.1153233E-02
     12     -205.8740772222  -1.3660987E-02   7.5602155E-03
     13     -205.8819469500  -7.8697277E-03   6.3440037E-03
     14     -205.8823267706  -3.7982069E-04   4.7125818E-03
     15     -205.8861714837  -3.8447131E-03   4.7965245E-03
     16     -205.8887202042  -2.5487205E-03   3.1626495E-03
     17     -205.8883652224   3.5498183E-04   3.3794620E-03
     18     -205.8878364716   5.2875081E-04   3.5034155E-03
     19     -205.8892665948  -1.4301232E-03   1.8687513E-03
     20     -205.8898454416  -5.7884679E-04   1.5996026E-03
     21     -205.8898937659  -4.8324247E-05   1.2573943E-03
     22     -205.8897016905   1.9207541E-04   1.5697875E-03
     23     -205.8896434990   5.8191445E-05   1.4744444E-03
     24     -205.8894294721   2.1402690E-04   1.6864460E-03
     25     -205.8893049465   1.2452563E-04   1.6822260E-03
     26     -205.8897721893  -4.6724284E-04   1.2557040E-03
     27     -205.8898036366  -3.1447244E-05   1.1980019E-03
     28     -205.8897181205   8.5516093E-05   1.3396375E-03
     29     -205.8897721567  -5.4036221E-05   1.2633854E-03
     30     -205.8896371899   1.3496674E-04   1.4536177E-03
     31     -205.8894254958   2.1169410E-04   1.7108469E-03
     32     -205.8897148355  -2.8933962E-04   1.2686035E-03
     33     -205.8898347857  -1.1995023E-04   1.1753036E-03
     34     -205.8898853771  -5.0591416E-05   1.1036978E-03
     35     -205.8899878612  -1.0248405E-04   9.1766223E-04
     36     -205.8901085722  -1.2071099E-04   6.1861797E-04
     37     -205.8901483306  -3.9758422E-05   4.7606705E-04
     38     -205.8901700741  -2.1743473E-05   3.6987884E-04
     39     -205.8901947966  -2.4722515E-05   1.8986631E-04
     40     -205.8902009727  -6.1761151E-06   1.3594508E-04
     41     -205.8902018143  -8.4164691E-07   1.2179949E-04
     42     -205.8901978116   4.0027409E-06   1.6671419E-04
     43     -205.8901999111  -2.0995319E-06   1.4296444E-04
     44     -205.8902008165  -9.0535312E-07   1.3460453E-04
     45     -205.8902024972  -1.6807484E-06   1.0895068E-04
     46     -205.8902040524  -1.5551820E-06   8.1616094E-05
     47     -205.8902050937  -1.0412479E-06   5.3111120E-05
     48     -205.8902052944  -2.0073864E-07   4.4730652E-05
     49     -205.8902056822  -3.8777947E-07   2.2772946E-05
     50     -205.8902058060  -1.2380335E-07   1.2119851E-05
------------------------------------------------------------

 total:                                   4.881 sec
 * total energy  :  -205.8902058 Eh     change       -0.5357891E+00 Eh
   gradient norm :     0.5198374 Eh/α   predicted    -0.5659125E+00 (   5.62%)
   displ. norm   :     0.9093747 α      lambda       -0.4504602E+00
   maximum displ.:     0.2368897 α      in ANC's #180, #142, #183, ...

........................................................................
.............................. CYCLE    4 ..............................
........................................................................
------------------------------------------------------------
  cycle        total energy    energy error   density error
------------------------------------------------------------
      1     -206.2087660333  -2.0785224E+02   1.7799865E-02
      2     -205.7975498461   4.1121619E-01   4.5095302E-02
      3     -206.2441143865  -4.4656454E-01   1.2887905E-02
      4     -206.1405198197   1.0359457E-01   1.6127205E-02
      5     -205.9700961775   1.7042364E-01   2.3047326E-02
      6     -206.2428814643  -2.7278529E-01   1.1261003E-02
      7     -206.0973129906   1.4556847E-01   2.4829881E-02
      8     -206.2572967806  -1.5998379E-01   7.6174385E-03
      9     -206.2201155320   3.7181249E-02   1.2348098E-02
     10     -206.2657837423  -4.5668210E-02   5.5716353E-03
     11     -206.2668345323  -1.0507900E-03   4.2699467E-03
     12     -206.2691499112  -2.3153789E-03   3.6197144E-03
     13     -206.2691788021  -2.8890946E-05   3.0968740E-03
     14     -206.2702423937  -1.0635915E-03   2.3281301E-03
     15     -206.2709023851  -6.5999143E-04   1.7073308E-03
     16     -206.2711307667  -2.2838158E-04   1.3443962E-03
     17     -206.2712461146  -1.1534789E-04   1.1196362E-03
     18     -206.2712166404   2.9474191E-05   1.1336192E-03
     19     -206.2713058151  -8.9174759E-05   9.5229664E-04
     20     -206.2714055404  -9.9725286E-05   7.1738509E-04
     21     -206.2714832495  -7.7709076E-05   3.9565827E-04
     22     -206.2714888246  -5.5750788E-06   3.2488588E-04
     23     -206.2714954088  -6.5841865E-06   2.6601199E-04
     24     -206.2714919574   3.4513921E-06   2.5789630E-04
     25     -206.2714975758  -5.6184377E-06   1.9052899E-04
     26     -206.2714968435   7.3227301E-07   1.7940764E-04
     27     -206.2715024676  -5.6240279E-06   1.2007573E-04
     28     -206.2715053396  -2.8720872E-06   4.7610403E-05
     29     -206.2715047557   5.8398547E-07   5.6283131E-05
     30     -206.2715050426  -2.8689630E-07   4.3245221E-05
     31     -206.2715052683  -2.2571399E-07   3.0314097E-05
     32     -206.2715054787  -2.1045244E-07   1.9363938E-05
------------------------------------------------------------

 total:                                   3.065 sec
 * total energy  :  -206.2715055 Eh     change       -0.3812997E+00 Eh
   gradient norm :     0.4133404 Eh/α   predicted    -0.4114869E+00 (   7.92%)
   displ. norm   :     0.8563434 α      lambda       -0.3021608E+00
   maximum displ.:     0.2354725 α      in ANC's #142, #117, #131, ...

........................................................................
.............................. CYCLE    5 ..............................
........................................................................
------------------------------------------------------------
  cycle        total energy    energy error   density error
------------------------------------------------------------
      1     -206.5182937719  -2.0825409E+02   1.1352261E-02
      2     -206.3340927712   1.8420100E-01   2.4983963E-02
      3     -206.4327323485  -9.8639577E-02   1.3862616E-02
      4     -206.2054333641   2.2729898E-01   2.4253544E-02
      5     -206.4621192936  -2.5668593E-01   1.1777102E-02
      6     -206.4514899168   1.0629377E-02   1.3912434E-02
      7     -206.5083262328  -5.6836316E-02   9.0824732E-03
      8     -206.5261923303  -1.7866097E-02   4.6059877E-03
      9     -206.5286819986  -2.4896683E-03   3.2558611E-03
     10     -206.5297191804  -1.0371818E-03   2.3262520E-03
     11     -206.5310878795  -1.3686991E-03   1.8444179E-03
     12     -206.5312380745  -1.5019500E-04   1.5531396E-03
     13     -206.5311642836   7.3790852E-05   1.3626069E-03
     14     -206.5314452245  -2.8094093E-04   8.9053180E-04
     15     -206.5314829178  -3.7693248E-05   7.0556919E-04
     16     -206.5314980633  -1.5145511E-05   5.9909404E-04
     17     -206.5315048753  -6.8120045E-06   5.3721960E-04
     18     -206.5315091735  -4.2981900E-06   4.8913933E-04
     19     -206.5315106591  -1.4855984E-06   4.6786097E-04
     20     -206.5315124454  -1.7863123E-06   4.3732718E-04
     21     -206.5315130190  -5.7358437E-07   4.1667935E-04
     22     -206.5315210182  -7.9991655E-06   3.2321754E-04
     23     -206.5315223512  -1.3329923E-06   2.3288827E-04
     24     -206.5315295698  -7.2186344E-06   1.2502992E-04
     25     -206.5315303992  -8.2943737E-07   8.8026356E-05
     26     -206.5315307787  -3.7947731E-07   5.2739340E-05
     27     -206.5315310495  -2.7081325E-07   3.6012119E-05
     28     -206.5315308566   1.9291812E-07   3.1547953E-05
     29     -206.5315312746  -4.1803048E-07   1.2957750E-05
------------------------------------------------------------

 total:                                   2.893 sec
 * total energy  :  -206.5315313 Eh     change       -0.2600258E+00 Eh
   gradient norm :     0.3294853 Eh/α   predicted    -0.2618726E+00 (   0.71%)
   displ. norm   :     0.8233457 α      lambda       -0.2162094E+00
   maximum displ.:     0.2122105 α      in ANC's #142, #117, #92, ...

........................................................................
.............................. CYCLE    6 ..............................
........................................................................
------------------------------------------------------------
  cycle        total energy    energy error   density error
------------------------------------------------------------
      1     -206.7039727960  -2.0856472E+02   9.4538952E-03
      2     -206.5175533301   1.8641947E-01   1.8572660E-02
      3     -206.4280512445   8.9502086E-02   2.1400700E-02
      4     -206.7043233020  -2.7627206E-01   6.1711323E-03
      5     -206.7062329414  -1.9096394E-03   3.7120072E-03
      6     -206.7041711243   2.0618171E-03   4.0072660E-03
      7     -206.7076604572  -3.4893329E-03   2.5682022E-03
      8     -206.7083031487  -6.4269151E-04   1.9644712E-03
      9     -206.7086299355  -3.2678680E-04   1.6746579E-03
     10     -206.7088840716  -2.5413606E-04   1.2319697E-03
     11     -206.7089487075  -6.4635912E-05   9.8666203E-04
     12     -206.7089810260  -3.2318540E-05   8.6595021E-04
     13     -206.7090155760  -3.4550046E-05   6.9916192E-04
     14     -206.7090398815  -2.4305461E-05   4.5176285E-04
     15     -206.7090572958  -1.7414295E-05   3.1329661E-04
     16     -206.7090631331  -5.8373106E-06   1.9052191E-04
     17     -206.7090639725  -8.3942962E-07   1.3552041E-04
     18     -206.7090668873  -2.9147460E-06   8.7700972E-05
     19     -206.7090667973   8.9964146E-08   8.7315546E-05
     20     -206.7090669292  -1.3184197E-07   8.2314243E-05
     21     -206.7090671634  -2.3424101E-07   7.1504879E-05
     22     -206.7090670392   1.2425861E-07   7.0045604E-05
     23     -206.7090671423  -1.0317189E-07   6.4011967E-05
     24     -206.7090672282  -8.5909619E-08   5.1775973E-05
     25     -206.7090674680  -2.3977287E-07   3.4754633E-05
     26     -206.7090676221  -1.5407548E-07   1.4223802E-05
------------------------------------------------------------

 total:                                   3.266 sec
 * total energy  :  -206.7090676 Eh     change       -0.1775363E+00 Eh
   gradient norm :     0.2377012 Eh/α   predicted    -0.1813886E+00 (   2.17%)
   displ. norm   :     0.7849231 α      lambda       -0.1418414E+00
   maximum displ.:     0.2031080 α      in ANC's #142, #144, #64, ...

........................................................................
.............................. CYCLE    7 ..............................
........................................................................
------------------------------------------------------------
  cycle        total energy    energy error   density error
------------------------------------------------------------
      1     -206.8152716619  -2.0881395E+02   9.1877058E-03
      2     -206.7134122259   1.0185944E-01   1.3559599E-02
      3     -206.4408486752   2.7256355E-01   2.5257747E-02
      4     -206.7704843180  -3.2963564E-01   1.1403218E-02
      5     -206.8079561417  -3.7471824E-02   5.3306092E-03
      6     -206.8154972070  -7.5410653E-03   3.3112615E-03
      7     -206.8153353305   1.6187645E-04   3.2551958E-03
      8     -206.8182133059  -2.8779754E-03   1.8453008E-03
      9     -206.8175060210   7.0728488E-04   1.8446365E-03
     10     -206.8181604170  -6.5439600E-04   1.0453935E-03
     11     -206.8183945624  -2.3414538E-04   7.1960658E-04
     12     -206.8184298753  -3.5312883E-05   6.4970014E-04
     13     -206.8183638183   6.6057029E-05   5.8540492E-04
     14     -206.8184367159  -7.2897606E-05   3.4563981E-04
     15     -206.8184467839  -1.0068000E-05   3.6426892E-04
     16     -206.8184471293  -3.4545675E-07   3.4314123E-04
     17     -206.8184542905  -7.1611477E-06   2.5892038E-04
     18     -206.8184586435  -4.3530260E-06   1.8676622E-04
     19     -206.8184572905   1.3529748E-06   1.8959252E-04
     20     -206.8184574015  -1.1101790E-07   1.7263433E-04
     21     -206.8184590930  -1.6914523E-06   1.2469351E-04
     22     -206.8184604476  -1.3545592E-06   7.0142423E-05
     23     -206.8184606893  -2.4175517E-07   3.5631247E-05
     24     -206.8184607535  -6.4232665E-08   2.1604044E-05
     25     -206.8184608309  -7.7345646E-08   4.8883439E-06
------------------------------------------------------------

 total:                                   2.980 sec
 * total energy  :  -206.8184608 Eh     change       -0.1093932E+00 Eh
   gradient norm :     0.1563168 Eh/α   predicted    -0.1146152E+00 (   4.77%)
   displ. norm   :     0.7823827 α      lambda       -0.8929693E-01
   maximum displ.:     0.1805325 α      in ANC's #64, #92, #28, ...

........................................................................
.............................. CYCLE    8 ..............................
........................................................................
------------------------------------------------------------
  cycle        total energy    energy error   density error
------------------------------------------------------------
      1     -206.8733641169  -2.0900714E+02   7.1498521E-03
      2     -206.8112746470   6.2089470E-02   1.0661585E-02
      3     -206.5137451937   2.9752945E-01   2.4635643E-02
      4     -206.8291819246  -3.1543673E-01   1.0757506E-02
      5     -206.8411036558  -1.1921731E-02   8.3231345E-03
      6     -206.8705569862  -2.9453330E-02   3.4076848E-03
      7     -206.8727988799  -2.2418937E-03   2.8810343E-03
      8     -206.8737113869  -9.1250700E-04   2.4551059E-03
      9     -206.8737409148  -2.9527955E-05   2.3168417E-03
     10     -206.8744651835  -7.2426868E-04   1.4451199E-03
     11     -206.8748960572  -4.3087369E-04   7.3298640E-04
     12     -206.8750014862  -1.0542900E-04   5.7200214E-04
     13     -206.8749917938   9.6923622E-06   5.1261873E-04
     14     -206.8750153565  -2.3562696E-05   4.0914008E-04
     15     -206.8750351587  -1.9802204E-05   4.1619411E-04
     16     -206.8750357350  -5.7624780E-07   3.6874106E-04
     17     -206.8750363277  -5.9270582E-07   2.8227399E-04
     18     -206.8750400448  -3.7171533E-06   2.7500036E-04
     19     -206.8750402169  -1.7212199E-07   2.6739584E-04
     20     -206.8750414582  -1.2412454E-06   2.0542523E-04
     21     -206.8750426336  -1.1754298E-06   1.2513811E-04
     22     -206.8750431621  -5.2845215E-07   5.8609661E-05
     23     -206.8750433581  -1.9601919E-07   1.0147509E-05
------------------------------------------------------------

 total:                                   2.470 sec
 * total energy  :  -206.8750434 Eh     change       -0.5658253E-01 Eh
   gradient norm :     0.1468134 Eh/α   predicted    -0.7197880E-01 (  27.21%)
   displ. norm   :     0.7430510 α      lambda       -0.7074030E-01
   maximum displ.:     0.2100221 α      in ANC's #64, #73, #78, ...

........................................................................
.............................. CYCLE    9 ..............................
........................................................................
------------------------------------------------------------
  cycle        total energy    energy error   density error
------------------------------------------------------------
      1     -206.9128441987  -2.0910346E+02   7.1021399E-03
      2     -206.9079734717   4.8707270E-03   5.3242725E-03
      3     -206.8296093086   7.8364163E-02   1.3182235E-02
      4     -206.6837724337   1.4583687E-01   1.9746786E-02
      5     -206.9064885161  -2.2271608E-01   4.7178404E-03
      6     -206.9134088642  -6.9203480E-03   1.0541152E-03
      7     -206.9134827125  -7.3848327E-05   7.4651294E-04
      8     -206.9133759529   1.0675956E-04   8.1810327E-04
      9     -206.9134168056  -4.0852694E-05   7.2174129E-04
     10     -206.9133880282   2.8777385E-05   6.1730741E-04
     11     -206.9135760445  -1.8801631E-04   2.7634433E-04
     12     -206.9135777922  -1.7476566E-06   2.7019364E-04
     13     -206.9135815502  -3.7579611E-06   1.9543809E-04
     14     -206.9135835627  -2.0125257E-06   1.2722931E-04
     15     -206.9135825099   1.0528096E-06   1.2213101E-04
     16     -206.9135837219  -1.2120567E-06   8.9611342E-05
     17     -206.9135842756  -5.5369247E-07   5.2035542E-05
     18     -206.9135834033   8.7231578E-07   6.5380753E-05
     19     -206.9135839078  -5.0444055E-07   4.0023255E-05
     20     -206.9135843488  -4.4104249E-07   1.4365474E-05
------------------------------------------------------------

 total:                                   2.044 sec
 * total energy  :  -206.9135843 Eh     change       -0.3854099E-01 Eh
   gradient norm :     0.0917365 Eh/α   predicted    -0.5489891E-01 (  42.44%)
   displ. norm   :     0.7262023 α      lambda       -0.3812324E-01
   maximum displ.:     0.1822942 α      in ANC's #73, #64, #28, ...

........................................................................
.............................. CYCLE   10 ..............................
........................................................................
------------------------------------------------------------
  cycle        total energy    energy error   density error
------------------------------------------------------------
      1     -206.9345999449  -2.0915383E+02   7.1500551E-03
      2     -206.6808166253   2.5378332E-01   2.0538421E-02
      3     -206.8799395617  -1.9912294E-01   1.0819955E-02
      4     -206.9294789234  -4.9539362E-02   6.0801344E-03
      5     -206.9369190049  -7.4400815E-03   2.4125691E-03
      6     -206.9346337665   2.2852384E-03   3.0163977E-03
      7     -206.9346979439  -6.4177412E-05   2.3737155E-03
      8     -206.9344991353   1.9880857E-04   2.3487620E-03
      9     -206.9356189826  -1.1198473E-03   1.8365179E-03
     10     -206.9374133414  -1.7943588E-03   1.1082609E-03
     11     -206.9374938742  -8.0532786E-05   1.5104530E-03
     12     -206.9374626838   3.1190429E-05   1.4897440E-03
     13     -206.9375245970  -6.1913237E-05   1.1927560E-03
     14     -206.9375652804  -4.0683349E-05   9.3949706E-04
     15     -206.9375612537   4.0267074E-06   8.9949986E-04
     16     -206.9375695002  -8.2464942E-06   7.6379650E-04
     17     -206.9375966219  -2.7121785E-05   3.9076383E-04
     18     -206.9375952038   1.4180916E-06   2.9525572E-04
     19     -206.9376025150  -7.3111383E-06   1.0254440E-04
     20     -206.9376051490  -2.6339832E-06   1.1972952E-05
     21     -206.9376051551  -6.1006631E-09   2.3729278E-05
     22     -206.9376051213   3.3803218E-08   1.5117213E-05
------------------------------------------------------------

 total:                                   2.319 sec
 * total energy  :  -206.9376051 Eh     change       -0.2402077E-01 Eh
   gradient norm :     0.1024198 Eh/α   predicted    -0.2911415E-01 (  21.20%)
   displ. norm   :     0.7349438 α      lambda       -0.3932775E-01
   maximum displ.:     0.2254682 α      in ANC's #64, #73, #14, ...

........................................................................
.............................. CYCLE   11 ..............................
........................................................................
------------------------------------------------------------
  cycle        total energy    energy error   density error
------------------------------------------------------------
      1     -206.9597713645  -2.0921062E+02   6.5721705E-03
      2     -206.9356461168   2.4125248E-02   8.1717029E-03
      3     -206.7055567794   2.3008934E-01   2.0336471E-02
      4     -206.9578102276  -2.5225345E-01   3.9327722E-03
      5     -206.9551965270   2.6137006E-03   3.9601718E-03
      6     -206.9579769230  -2.7803960E-03   2.5638870E-03
      7     -206.9594702822  -1.4933592E-03   1.5713855E-03
      8     -206.9602239082  -7.5362603E-04   1.1254715E-03
      9     -206.9607037405  -4.7983232E-04   8.8429662E-04
     10     -206.9608297103  -1.2596978E-04   1.0305033E-03
     11     -206.9608287878   9.2245980E-07   1.0331856E-03
     12     -206.9608333837  -4.5958425E-06   9.3966419E-04
     13     -206.9608568136  -2.3429903E-05   5.5103241E-04
     14     -206.9608492495   7.5640494E-06   3.3705148E-04
     15     -206.9608614937  -1.2244186E-05   4.3143434E-04
     16     -206.9608643346  -2.8409058E-06   3.2648988E-04
     17     -206.9608682230  -3.8883836E-06   1.6561515E-04
     18     -206.9608679396   2.8342725E-07   1.1987798E-04
     19     -206.9608686749  -7.3534321E-07   4.5852572E-05
     20     -206.9608693735  -6.9858623E-07   1.7562762E-05
------------------------------------------------------------

 total:                                   2.553 sec
 * total energy  :  -206.9608694 Eh     change       -0.2326425E-01 Eh
   gradient norm :     0.0876631 Eh/α   predicted    -0.3028517E-01 (  30.18%)
   displ. norm   :     0.6629096 α      lambda       -0.2627018E-01
   maximum displ.:     0.1626374 α      in ANC's #14, #73, #33, ...

........................................................................
.............................. CYCLE   12 ..............................
........................................................................
------------------------------------------------------------
  cycle        total energy    energy error   density error
------------------------------------------------------------
      1     -206.9766915341  -2.0925384E+02   5.3427687E-03
      2     -206.9766809255   1.0608624E-05   3.1519629E-03
      3     -206.9386761612   3.8004764E-02   9.2858027E-03
      4     -206.9512113509  -1.2535190E-02   7.5957481E-03
      5     -206.9765812735  -2.5369923E-02   1.1293024E-03
      6     -206.9767701324  -1.8885890E-04   8.3669088E-04
      7     -206.9770318470  -2.6171458E-04   2.9223639E-04
      8     -206.9769075369   1.2431004E-04   6.4193107E-04
      9     -206.9767179423   1.8959462E-04   9.2842286E-04
     10     -206.9766774194   4.0522952E-05   9.4570893E-04
     11     -206.9770233352  -3.4591583E-04   1.8946779E-04
     12     -206.9770349441  -1.1608873E-05   2.2768761E-04
     13     -206.9770353848  -4.4068221E-07   2.1025326E-04
     14     -206.9770424820  -7.0972796E-06   1.0499720E-04
     15     -206.9770453239  -2.8418211E-06   2.2373092E-05
     16     -206.9770453815  -5.7606030E-08   1.3232977E-05
------------------------------------------------------------

 total:                                   1.740 sec
 * total energy  :  -206.9770454 Eh     change       -0.1617601E-01 Eh
   gradient norm :     0.0777247 Eh/α   predicted    -0.1890730E-01 (  16.88%)
   displ. norm   :     0.7042642 α      lambda       -0.2546334E-01
   maximum displ.:     0.1957707 α      in ANC's #33, #1, #14, ...

........................................................................
.............................. CYCLE   13 ..............................
........................................................................
------------------------------------------------------------
  cycle        total energy    energy error   density error
------------------------------------------------------------
      1     -206.9839668688  -2.0926554E+02   6.9696360E-03
      2     -206.6580730456   3.2589382E-01   2.3412107E-02
      3     -206.9727078245  -3.1463478E-01   6.7925422E-03
      4     -206.9756739252  -2.9661007E-03   7.2453671E-03
      5     -206.9797037127  -4.0297875E-03   4.4098805E-03
      6     -206.9883721746  -8.6684619E-03   1.9410368E-03
      7     -206.9884235360  -5.1361390E-05   1.7547046E-03
      8     -206.9885682519  -1.4471595E-04   1.9109495E-03
      9     -206.9885578260   1.0425963E-05   1.7111017E-03
     10     -206.9885934546  -3.5628650E-05   1.5510371E-03
     11     -206.9885862047   7.2498854E-06   1.5240139E-03
     12     -206.9885618228   2.4381906E-05   1.4810266E-03
     13     -206.9886028394  -4.1016592E-05   1.2775891E-03
     14     -206.9887027636  -9.9924157E-05   7.7550523E-04
     15     -206.9887242485  -2.1484923E-05   3.6174954E-04
     16     -206.9887303271  -6.0786067E-06   1.5252918E-04
     17     -206.9887336882  -3.3610539E-06   2.4209658E-05
     18     -206.9887332220   4.6621216E-07   6.8188207E-05
     19     -206.9887338573  -6.3532121E-07   1.1134417E-05
------------------------------------------------------------

 total:                                   2.338 sec
 * total energy  :  -206.9887339 Eh     change       -0.1168848E-01 Eh
   gradient norm :     0.0828506 Eh/α   predicted    -0.1904643E-01 (  62.95%)
   displ. norm   :     0.6855662 α      lambda       -0.2699166E-01
   maximum displ.:     0.1847014 α      in ANC's #1, #14, #23, ...

........................................................................
.............................. CYCLE   14 ..............................
........................................................................
------------------------------------------------------------
  cycle        total energy    energy error   density error
------------------------------------------------------------
      1     -206.9990341787  -2.0928513E+02   7.0684289E-03
      2     -206.9777504560   2.1283723E-02   7.9574004E-03
      3     -206.6937157910   2.8403466E-01   2.2868646E-02
      4     -206.9873118299  -2.9359604E-01   6.9981271E-03
      5     -207.0001678283  -1.2855998E-02   1.8396985E-03
      6     -206.9946207397   5.5470886E-03   3.4716877E-03
      7     -206.9985760857  -3.9553460E-03   1.8856479E-03
      8     -206.9997294788  -1.1533931E-03   1.0983295E-03
      9     -207.0002840869  -5.5460812E-04   6.3644666E-04
     10     -207.0003788925  -9.4805558E-05   7.1440341E-04
     11     -207.0003592906   1.9601950E-05   8.6347628E-04
     12     -207.0003576262   1.6643803E-06   8.2347277E-04
     13     -207.0003752941  -1.7667966E-05   6.7287788E-04
     14     -207.0003810949  -5.8007216E-06   5.8901426E-04
     15     -207.0003859046  -4.8097571E-06   4.9226079E-04
     16     -207.0003946947  -8.7900321E-06   2.6884602E-04
     17     -207.0003995541  -4.8594280E-06   1.0459893E-04
     18     -207.0003991627   3.9141096E-07   8.2223103E-05
     19     -207.0004002134  -1.0507380E-06   2.5256512E-05
     20     -207.0004002937  -8.0284650E-08   1.5405974E-05
------------------------------------------------------------

 total:                                   2.446 sec
 * total energy  :  -207.0004003 Eh     change       -0.1166644E-01 Eh
   gradient norm :     0.0976877 Eh/α   predicted    -0.1983887E-01 (  70.05%)
   displ. norm   :     0.5761967 α      lambda       -0.2168903E-01
   maximum displ.:     0.1470173 α      in ANC's #14, #66, #29, ...

........................................................................
.............................. CYCLE   15 ..............................
........................................................................
------------------------------------------------------------
  cycle        total energy    energy error   density error
------------------------------------------------------------
      1     -207.0106132554  -2.0928712E+02   5.6431393E-03
      2     -207.0104160506   1.9720481E-04   3.6955962E-03
      3     -206.9366185028   7.3797548E-02   1.1612987E-02
      4     -206.9906830317  -5.4064529E-02   7.3269113E-03
      5     -206.9892019864   1.4810453E-03   7.1923460E-03
      6     -206.9943460476  -5.1440613E-03   5.9476576E-03
      7     -207.0095756130  -1.5229565E-02   1.7730086E-03
      8     -207.0114171068  -1.8414938E-03   1.4229333E-03
      9     -207.0114024857   1.4621102E-05   1.3878593E-03
     10     -207.0114179173  -1.5431598E-05   1.0662718E-03
     11     -207.0114385447  -2.0627453E-05   2.6309697E-04
     12     -207.0114443781  -5.8333831E-06   1.6713667E-04
     13     -207.0114579173  -1.3539211E-05   9.6326138E-05
     14     -207.0114582186  -3.0131736E-07   8.3473998E-05
     15     -207.0114586715  -4.5284312E-07   5.4537871E-05
     16     -207.0114587432  -7.1700043E-08   3.8504286E-05
     17     -207.0114586961   4.7063850E-08   2.8900690E-05
     18     -207.0114588021  -1.0596327E-07   1.0518911E-05
------------------------------------------------------------

 total:                                   2.093 sec
 * total energy  :  -207.0114588 Eh     change       -0.1105851E-01 Eh
   gradient norm :     0.0743421 Eh/α   predicted    -0.1444493E-01 (  30.62%)
   displ. norm   :     0.6413263 α      lambda       -0.1596626E-01
   maximum displ.:     0.2225370 α      in ANC's #14, #33, #18, ...

........................................................................
.............................. CYCLE   16 ..............................
........................................................................
------------------------------------------------------------
  cycle        total energy    energy error   density error
------------------------------------------------------------
      1     -207.0166319253  -2.0929166E+02   5.2767667E-03
      2     -206.9809624592   3.5669466E-02   9.8726829E-03
      3     -206.9754035855   5.5588737E-03   1.0358428E-02
      4     -207.0165048282  -4.1101243E-02   2.3136960E-03
      5     -207.0156559439   8.4888432E-04   2.4898709E-03
      6     -207.0170184123  -1.3624684E-03   1.6081741E-03
      7     -207.0174801422  -4.6172990E-04   1.1045121E-03
      8     -207.0178817695  -4.0162737E-04   3.3538707E-04
      9     -207.0178982968  -1.6527310E-05   3.0248810E-04
     10     -207.0178664765   3.1820334E-05   4.2039969E-04
     11     -207.0178683136  -1.8370719E-06   3.9846650E-04
     12     -207.0179235404  -5.5226837E-05   5.6226861E-05
     13     -207.0179214793   2.0611663E-06   9.9160889E-05
     14     -207.0179232546  -1.7753929E-06   5.2552483E-05
     15     -207.0179239649  -7.1022086E-07   6.9256796E-06
------------------------------------------------------------

 total:                                   1.745 sec
 * total energy  :  -207.0179240 Eh     change       -0.6465163E-02 Eh
   gradient norm :     0.0650655 Eh/α   predicted    -0.1126662E-01 (  74.27%)
   displ. norm   :     0.6067023 α      lambda       -0.1576461E-01
   maximum displ.:     0.1826456 α      in ANC's #14, #31, #23, ...

........................................................................
.............................. CYCLE   17 ..............................
........................................................................
------------------------------------------------------------
  cycle        total energy    energy error   density error
------------------------------------------------------------
      1     -207.0233603280  -2.0931969E+02   5.0457224E-03
      2     -207.0226240866   7.3624143E-04   3.2294091E-03
      3     -206.9363989068   8.6225180E-02   1.2256556E-02
      4     -207.0081091344  -7.1710228E-02   6.2660992E-03
      5     -207.0114143396  -3.3052052E-03   5.3306461E-03
      6     -207.0101528758   1.2614638E-03   5.3502237E-03
      7     -207.0212113934  -1.1058518E-02   2.0231033E-03
      8     -207.0236243862  -2.4129928E-03   1.6806226E-03
      9     -207.0236263903  -2.0040751E-06   1.5267158E-03
     10     -207.0236880983  -6.1708024E-05   1.0320148E-03
     11     -207.0237168949  -2.8796549E-05   4.5274345E-04
     12     -207.0237273720  -1.0477105E-05   1.2675852E-04
     13     -207.0237270888   2.8319903E-07   9.1163286E-05
     14     -207.0237283036  -1.2148386E-06   3.0321591E-05
     15     -207.0237282892   1.4386529E-08   3.7422080E-05
     16     -207.0237282904  -1.1840200E-09   2.2831759E-05
     17     -207.0237283362  -4.5841489E-08   9.6572686E-06
------------------------------------------------------------

 total:                                   1.982 sec
 * total energy  :  -207.0237283 Eh     change       -0.5804371E-02 Eh
   gradient norm :     0.0796632 Eh/α   predicted    -0.1078369E-01 (  85.79%)
   displ. norm   :     0.5262682 α      lambda       -0.1601035E-01
   maximum displ.:     0.1562791 α      in ANC's #80, #32, #8, ...

........................................................................
.............................. CYCLE   18 ..............................
........................................................................
------------------------------------------------------------
  cycle        total energy    energy error   density error
------------------------------------------------------------
      1     -207.0253377358  -2.0930535E+02   6.2055439E-03
      2     -206.8706437396   1.5469400E-01   1.5901825E-02
      3     -206.9677938173  -9.7150078E-02   1.0766481E-02
      4     -207.0212434407  -5.3449623E-02   4.5656507E-03
      5     -207.0136368946   7.6065461E-03   5.5945784E-03
      6     -207.0151734119  -1.5365173E-03   4.8551534E-03
      7     -207.0223574129  -7.1840010E-03   3.0063226E-03
      8     -207.0275690691  -5.2116562E-03   2.8902962E-03
      9     -207.0273321011   2.3696804E-04   3.0444392E-03
     10     -207.0270424124   2.8968870E-04   3.3731222E-03
     11     -207.0272609808  -2.1856844E-04   3.0389409E-03
     12     -207.0279880211  -7.2704031E-04   6.8937595E-04
     13     -207.0279621049   2.5916292E-05   3.9666238E-04
     14     -207.0280009386  -3.8833754E-05   3.5179648E-04
     15     -207.0280075276  -6.5890046E-06   2.9954175E-04
     16     -207.0280089612  -1.4335545E-06   2.1205963E-04
     17     -207.0280091909  -2.2968595E-07   1.5989072E-04
     18     -207.0280078412   1.3496555E-06   1.2743778E-04
     19     -207.0280099770  -2.1358138E-06   5.2309854E-05
     20     -207.0280107880  -8.1101561E-07   1.3902702E-05
------------------------------------------------------------

 total:                                   2.145 sec
 * total energy  :  -207.0280108 Eh     change       -0.4282452E-02 Eh
   gradient norm :     0.0875865 Eh/α   predicted    -0.1022227E-01 ( 138.70%)
   displ. norm   :     0.4654545 α      lambda       -0.1246324E-01
   maximum displ.:     0.1694064 α      in ANC's #14, #23, #8, ...

........................................................................
.............................. CYCLE   19 ..............................
........................................................................
------------------------------------------------------------
  cycle        total energy    energy error   density error
------------------------------------------------------------
      1     -207.0332228525  -2.0931242E+02   4.1324434E-03
      2     -207.0309836225   2.2392301E-03   3.6734354E-03
      3     -206.9954159399   3.5567683E-02   9.8458989E-03
      4     -207.0270773859  -3.1661446E-02   4.2848037E-03
      5     -207.0328628456  -5.7854597E-03   1.6606866E-03
      6     -207.0329397457  -7.6900178E-05   1.6220912E-03
      7     -207.0331970086  -2.5726286E-04   1.3737084E-03
      8     -207.0335956445  -3.9863592E-04   8.1779293E-04
      9     -207.0338263334  -2.3068887E-04   1.0886086E-04
     10     -207.0338268673  -5.3394038E-07   1.3052410E-04
     11     -207.0338273490  -4.8163798E-07   1.1434209E-04
     12     -207.0338314424  -4.0934337E-06   1.6460298E-05
     13     -207.0338314216   2.0787212E-08   1.8301626E-05
------------------------------------------------------------

 total:                                   1.420 sec
 * total energy  :  -207.0338314 Eh     change       -0.5820634E-02 Eh
   gradient norm :     0.0485077 Eh/α   predicted    -0.7581692E-02 (  30.26%)
   displ. norm   :     0.5209358 α      lambda       -0.9736147E-02
   maximum displ.:     0.1697689 α      in ANC's #18, #14, #8, ...

........................................................................
.............................. CYCLE   20 ..............................
........................................................................
------------------------------------------------------------
  cycle        total energy    energy error   density error
------------------------------------------------------------
      1     -207.0328609766  -2.0933263E+02   4.6795352E-03
      2     -206.9964912943   3.6369682E-02   9.9732148E-03
      3     -207.0031353712  -6.6440768E-03   9.2853053E-03
      4     -207.0337257747  -3.0590404E-02   1.9615751E-03
      5     -207.0330589210   6.6685363E-04   1.9989326E-03
      6     -207.0334708436  -4.1192250E-04   1.6409480E-03
      7     -207.0341184943  -6.4765079E-04   9.1111318E-04
      8     -207.0344117397  -2.9324535E-04   2.0853509E-04
      9     -207.0344073709   4.3688319E-06   2.5613703E-04
     10     -207.0344048570   2.5138584E-06   2.6044327E-04
     11     -207.0344226199  -1.7762906E-05   1.1518300E-04
     12     -207.0344270529  -4.4330045E-06   4.3263594E-05
     13     -207.0344270220   3.0878880E-08   3.9274592E-05
     14     -207.0344274426  -4.2053537E-07   9.8638074E-06
------------------------------------------------------------

 total:                                   1.406 sec
 * total energy  :  -207.0344274 Eh     change       -0.5960210E-03 Eh
   gradient norm :     0.0857318 Eh/α   predicted    -0.6189150E-02 ( 938.41%)
   displ. norm   :     0.3949698 α      lambda       -0.1166142E-01
   maximum displ.:     0.1278915 α      in ANC's #23, #14, #8, ...
 * RMSD in coord.:     0.8994689 α      energy gain  -0.2129994E+01 Eh

generating ANC from exact Hessian ...
Using Lindh-Hessian (1995)
 Shifting diagonal of input Hessian by    9.9501339312229441E-003
 Lowest  eigenvalues of input Hessian
    0.000000    0.000000    0.000000    0.000000    0.000000    0.000000
    0.010000    0.010008    0.010087    0.010132    0.010207    0.010314
    0.010455    0.010465    0.010601    0.010697    0.010762    0.010991
 Highest eigenvalues
    2.610788    2.643539    2.648446    2.660981    2.662246    2.685231


........................................................................
.............................. CYCLE   21 ..............................
........................................................................
------------------------------------------------------------
  cycle        total energy    energy error   density error
------------------------------------------------------------
      1     -207.0392294122  -2.0932943E+02   3.6870484E-03
      2     -207.0295924310   9.6369812E-03   5.6202863E-03
      3     -207.0070995019   2.2492929E-02   9.2287286E-03
      4     -207.0385505457  -3.1451044E-02   2.0725382E-03
      5     -207.0387969626  -2.4641691E-04   1.6178550E-03
      6     -207.0392273303  -4.3036771E-04   1.2154028E-03
      7     -207.0396235208  -3.9619049E-04   6.3214724E-04
      8     -207.0397270507  -1.0352986E-04   2.9692577E-04
      9     -207.0397543392  -2.7288535E-05   9.5384234E-05
     10     -207.0397568213  -2.4820385E-06   4.8978563E-05
     11     -207.0397567159   1.0536741E-07   4.9527441E-05
     12     -207.0397574107  -6.9482644E-07   2.0726702E-05
     13     -207.0397575442  -1.3343103E-07   9.3420048E-06
------------------------------------------------------------

 total:                                   1.738 sec
 * total energy  :  -207.0397575 Eh     change       -0.5330102E-02 Eh
   gradient norm :     0.0414320 Eh/α   predicted     0.0000000E+00 (-100.00%)
   displ. norm   :     0.3421276 α      lambda       -0.4686990E-02
   maximum displ.:     0.1335872 α      in ANC's #20, #8, #15, ...

........................................................................
.............................. CYCLE   22 ..............................
........................................................................
------------------------------------------------------------
  cycle        total energy    energy error   density error
------------------------------------------------------------
      1     -207.0433727154  -2.0933849E+02   1.9876666E-03
      2     -207.0433556027   1.7112710E-05   1.1359398E-03
      3     -207.0330928135   1.0262789E-02   5.3345977E-03
      4     -207.0427777351  -9.6849217E-03   1.3713289E-03
      5     -207.0433818970  -6.0416187E-04   3.0968785E-04
      6     -207.0433957614  -1.3864352E-05   2.1710619E-04
      7     -207.0434049147  -9.1533103E-06   1.3895090E-04
      8     -207.0434105400  -5.6253256E-06   5.8769174E-05
      9     -207.0434113045  -7.6454162E-07   3.1799356E-05
     10     -207.0434113335  -2.8925882E-08   2.8649826E-05
     11     -207.0434114017  -6.8286170E-08   2.3588358E-05
     12     -207.0434115250  -1.2329724E-07   1.2912828E-05
------------------------------------------------------------

 total:                                   1.218 sec
 * total energy  :  -207.0434115 Eh     change       -0.3653981E-02 Eh
   gradient norm :     0.0195095 Eh/α   predicted    -0.2619373E-02 ( -28.31%)
   displ. norm   :     0.5665221 α      lambda       -0.4060067E-02
   maximum displ.:     0.2289868 α      in ANC's #8, #20, #15, ...

........................................................................
.............................. CYCLE   23 ..............................
........................................................................
------------------------------------------------------------
  cycle        total energy    energy error   density error
------------------------------------------------------------
      1     -207.0463889155  -2.0934460E+02   2.7295956E-03
      2     -207.0464152257  -2.6310176E-05   1.4319883E-03
      3     -207.0459854800   4.2974568E-04   1.2133488E-03
      4     -207.0376151802   8.3702997E-03   4.8857983E-03
      5     -207.0462856721  -8.6704919E-03   6.7627748E-04
      6     -207.0464085251  -1.2285304E-04   3.2216598E-04
      7     -207.0464382075  -2.9682348E-05   1.4258489E-04
      8     -207.0464439187  -5.7112251E-06   5.0514658E-05
      9     -207.0464445630  -6.4426513E-07   2.3687747E-05
     10     -207.0464446223  -5.9337168E-08   1.8135682E-05
------------------------------------------------------------

 total:                                   1.083 sec
 * total energy  :  -207.0464446 Eh     change       -0.3033097E-02 Eh
   gradient norm :     0.0127685 Eh/α   predicted    -0.2682084E-02 ( -11.57%)
   displ. norm   :     0.5929681 α      lambda       -0.2533557E-02
   maximum displ.:     0.2593431 α      in ANC's #8, #20, #15, ...

........................................................................
.............................. CYCLE   24 ..............................
........................................................................
------------------------------------------------------------
  cycle        total energy    energy error   density error
------------------------------------------------------------
      1     -207.0484698093  -2.0934582E+02   2.5424313E-03
      2     -207.0484834546  -1.3645311E-05   1.3051698E-03
      3     -207.0453600466   3.1234081E-03   2.9765391E-03
      4     -207.0448819346   4.7811193E-04   3.1957317E-03
      5     -207.0484484919  -3.5665573E-03   4.5662797E-04
      6     -207.0484973816  -4.8889680E-05   2.2398291E-04
      7     -207.0485069228  -9.5412574E-06   1.1843554E-04
      8     -207.0485096416  -2.7187764E-06   6.7833015E-05
      9     -207.0485111356  -1.4939932E-06   2.5772694E-05
     10     -207.0485111320   3.6367283E-09   2.3157866E-05
     11     -207.0485111588  -2.6824665E-08   1.8358468E-05
------------------------------------------------------------

 total:                                   1.177 sec
 * total energy  :  -207.0485112 Eh     change       -0.2066536E-02 Eh
   gradient norm :     0.0173067 Eh/α   predicted    -0.1712193E-02 ( -17.15%)
   displ. norm   :     0.6513915 α      lambda       -0.2340346E-02
   maximum displ.:     0.2978642 α      in ANC's #8, #20, #15, ...

........................................................................
.............................. CYCLE   25 ..............................
........................................................................
------------------------------------------------------------
  cycle        total energy    energy error   density error
------------------------------------------------------------
      1     -207.0504173352  -2.0934650E+02   2.5984333E-03
      2     -207.0473827777   3.0345574E-03   3.2412369E-03
      3     -207.0215022647   2.5880513E-02   8.6658118E-03
      4     -207.0491725948  -2.7670330E-02   1.8883345E-03
      5     -207.0503603075  -1.1877127E-03   5.9540108E-04
      6     -207.0503547366   5.5708690E-06   6.5622223E-04
      7     -207.0502839120   7.0824629E-05   7.8370060E-04
      8     -207.0503478994  -6.3987431E-05   6.3298349E-04
      9     -207.0504649565  -1.1705709E-04   2.4002089E-04
     10     -207.0504866366  -2.1680124E-05   3.9287943E-05
     11     -207.0504862550   3.8162287E-07   4.8839702E-05
     12     -207.0504869021  -6.4712503E-07   9.6024746E-06
------------------------------------------------------------

 total:                                   1.244 sec
 * total energy  :  -207.0504869 Eh     change       -0.1975743E-02 Eh
   gradient norm :     0.0165825 Eh/α   predicted    -0.1666723E-02 ( -15.64%)
   displ. norm   :     0.6797404 α      lambda       -0.2280466E-02
   maximum displ.:     0.3251086 α      in ANC's #8, #20, #13, ...

........................................................................
.............................. CYCLE   26 ..............................
........................................................................
------------------------------------------------------------
  cycle        total energy    energy error   density error
------------------------------------------------------------
      1     -207.0523384789  -2.0934905E+02   2.6105736E-03
      2     -207.0516601876   6.7829127E-04   1.9929486E-03
      3     -207.0140177893   3.7642398E-02   9.7243448E-03
      4     -207.0502028272  -3.6185038E-02   2.4163725E-03
      5     -207.0519750359  -1.7722087E-03   1.0690460E-03
      6     -207.0523891544  -4.1411853E-04   3.5569507E-04
      7     -207.0522507831   1.3837139E-04   7.3420115E-04
      8     -207.0521658343   8.4948734E-05   8.6709225E-04
      9     -207.0523190483  -1.5321400E-04   5.0467199E-04
     10     -207.0524114641  -9.2415817E-05   1.2961526E-04
     11     -207.0524116457  -1.8159758E-07   1.1278660E-04
     12     -207.0524141669  -2.5211751E-06   3.4093843E-05
     13     -207.0524144279  -2.6095580E-07   1.3416761E-05
------------------------------------------------------------

 total:                                   1.546 sec
 * total energy  :  -207.0524144 Eh     change       -0.1927526E-02 Eh
   gradient norm :     0.0132523 Eh/α   predicted    -0.1667081E-02 ( -13.51%)
   displ. norm   :     0.6984029 α      lambda       -0.2042987E-02
   maximum displ.:     0.3469180 α      in ANC's #8, #2, #13, ...

........................................................................
.............................. CYCLE   27 ..............................
........................................................................
------------------------------------------------------------
  cycle        total energy    energy error   density error
------------------------------------------------------------
      1     -207.0540119843  -2.0935264E+02   2.7020239E-03
      2     -207.0502307687   3.7812156E-03   3.5219024E-03
      3     -207.0317050763   1.8525692E-02   7.8961045E-03
      4     -207.0533948467  -2.1689770E-02   1.3923962E-03
      5     -207.0538398217  -4.4497499E-04   9.4047801E-04
      6     -207.0541065996  -2.6677793E-04   2.8759246E-04
      7     -207.0541228277  -1.6228059E-05   1.4993717E-04
      8     -207.0541276227  -4.7950398E-06   6.3181341E-05
      9     -207.0541284251  -8.0238857E-07   2.9394381E-05
     10     -207.0541285739  -1.4872771E-07   1.5690275E-05
------------------------------------------------------------

 total:                                   1.023 sec
 * total energy  :  -207.0541286 Eh     change       -0.1714146E-02 Eh
   gradient norm :     0.0121870 Eh/α   predicted    -0.1519763E-02 ( -11.34%)
   displ. norm   :     0.7120458 α      lambda       -0.1712859E-02
   maximum displ.:     0.3642971 α      in ANC's #8, #2, #7, ...

........................................................................
.............................. CYCLE   28 ..............................
........................................................................
------------------------------------------------------------
  cycle        total energy    energy error   density error
------------------------------------------------------------
      1     -207.0554929295  -2.0935533E+02   2.6817692E-03
      2     -207.0552570482   2.3588126E-04   1.6090348E-03
      3     -207.0339860698   2.1270978E-02   7.6548504E-03
      4     -207.0536988299  -1.9712760E-02   2.3016860E-03
      5     -207.0553672321  -1.6684023E-03   8.2413046E-04
      6     -207.0555600325  -1.9280038E-04   2.9350108E-04
      7     -207.0555784391  -1.8406602E-05   1.5430726E-04
      8     -207.0555838723  -5.4331506E-06   5.7601542E-05
      9     -207.0555845352  -6.6293600E-07   2.8911616E-05
     10     -207.0555846723  -1.3704974E-07   1.9567327E-05
------------------------------------------------------------

 total:                                   0.964 sec
 * total energy  :  -207.0555847 Eh     change       -0.1456098E-02 Eh
   gradient norm :     0.0123046 Eh/α   predicted    -0.1290656E-02 ( -11.36%)
   displ. norm   :     0.7048057 α      lambda       -0.1530636E-02
   maximum displ.:     0.3701291 α      in ANC's #8, #2, #7, ...

........................................................................
.............................. CYCLE   29 ..............................
........................................................................
------------------------------------------------------------
  cycle        total energy    energy error   density error
------------------------------------------------------------
      1     -207.0568303242  -2.0935986E+02   2.5214669E-03
      2     -207.0561438467   6.8647756E-04   1.9319577E-03
      3     -207.0215433384   3.4600508E-02   9.4955393E-03
      4     -207.0540884477  -3.2545109E-02   2.6901033E-03
      5     -207.0566931315  -2.6046838E-03   7.5641407E-04
      6     -207.0568365535  -1.4342202E-04   4.7991216E-04
      7     -207.0567518199   8.4733593E-05   6.7779829E-04
      8     -207.0567547450  -2.9250982E-06   6.4918218E-04
      9     -207.0568818890  -1.2714397E-04   2.0980838E-04
     10     -207.0568990874  -1.7198411E-05   6.0861439E-05
     11     -207.0568989016   1.8577941E-07   6.1988418E-05
     12     -207.0568998470  -9.4534087E-07   1.1137168E-05
------------------------------------------------------------

 total:                                   1.142 sec
 * total energy  :  -207.0568998 Eh     change       -0.1315175E-02 Eh
   gradient norm :     0.0113078 Eh/α   predicted    -0.1145510E-02 ( -12.90%)
   displ. norm   :     0.7364240 α      lambda       -0.1476154E-02
   maximum displ.:     0.3843099 α      in ANC's #8, #2, #7, ...

........................................................................
.............................. CYCLE   30 ..............................
........................................................................
------------------------------------------------------------
  cycle        total energy    energy error   density error
------------------------------------------------------------
      1     -207.0581213292  -2.0936081E+02   2.5098077E-03
      2     -207.0546116249   3.5097044E-03   3.3664065E-03
      3     -207.0387984349   1.5813190E-02   7.3737143E-03
      4     -207.0574627028  -1.8664268E-02   1.3721312E-03
      5     -207.0580283851  -5.6568229E-04   7.3538198E-04
      6     -207.0581659870  -1.3760196E-04   3.1591967E-04
      7     -207.0581905594  -2.4572345E-05   1.2496303E-04
      8     -207.0581937251  -3.1657373E-06   5.8349245E-05
      9     -207.0581945617  -8.3660203E-07   2.4663533E-05
     10     -207.0581946308  -6.9116737E-08   1.6940668E-05
------------------------------------------------------------

 total:                                   0.971 sec
 * total energy  :  -207.0581946 Eh     change       -0.1294784E-02 Eh
   gradient norm :     0.0123471 Eh/α   predicted    -0.1138356E-02 ( -12.08%)
   displ. norm   :     0.7582214 α      lambda       -0.1699460E-02
   maximum displ.:     0.3759819 α      in ANC's #8, #7, #2, ...

........................................................................
.............................. CYCLE   31 ..............................
........................................................................
------------------------------------------------------------
  cycle        total energy    energy error   density error
------------------------------------------------------------
      1     -207.0594713210  -2.0937036E+02   2.5665261E-03
      2     -207.0560015491   3.4697719E-03   3.3905447E-03
      3     -207.0402290692   1.5772480E-02   7.3516678E-03
      4     -207.0590367387  -1.8807669E-02   1.1341932E-03
      5     -207.0594035422  -3.6680355E-04   6.4344837E-04
      6     -207.0594996111  -9.6068896E-05   3.2618714E-04
      7     -207.0595265641  -2.6952981E-05   1.2800817E-04
      8     -207.0595298815  -3.3174628E-06   6.1543709E-05
      9     -207.0595308506  -9.6906280E-07   2.5114376E-05
     10     -207.0595309264  -7.5747806E-08   1.5983271E-05
------------------------------------------------------------

 total:                                   1.026 sec
 * total energy  :  -207.0595309 Eh     change       -0.1336296E-02 Eh
   gradient norm :     0.0150470 Eh/α   predicted    -0.1338242E-02 (   0.15%)
   displ. norm   :     0.7820957 α      lambda       -0.1658659E-02
   maximum displ.:     0.3746186 α      in ANC's #8, #7, #2, ...

........................................................................
.............................. CYCLE   32 ..............................
........................................................................
------------------------------------------------------------
  cycle        total energy    energy error   density error
------------------------------------------------------------
      1     -207.0608383865  -2.0936451E+02   2.6217652E-03
      2     -207.0537905369   7.0478496E-03   4.6131697E-03
      3     -207.0464308473   7.3596895E-03   6.4614614E-03
      4     -207.0603715639  -1.3940717E-02   1.2528616E-03
      5     -207.0607558619  -3.8429796E-04   7.1702683E-04
      6     -207.0608956680  -1.3980617E-04   2.8276789E-04
      7     -207.0609111435  -1.5475516E-05   1.7107205E-04
      8     -207.0609187114  -7.5678552E-06   8.1961856E-05
      9     -207.0609207325  -2.0211123E-06   2.4814201E-05
     10     -207.0609207794  -4.6923475E-08   1.7762134E-05
------------------------------------------------------------

 total:                                   0.973 sec
 * total energy  :  -207.0609208 Eh     change       -0.1389853E-02 Eh
   gradient norm :     0.0137468 Eh/α   predicted    -0.1336611E-02 (  -3.83%)
   displ. norm   :     0.7383299 α      lambda       -0.1496370E-02
   maximum displ.:     0.3118550 α      in ANC's #8, #7, #2, ...

........................................................................
.............................. CYCLE   33 ..............................
........................................................................
------------------------------------------------------------
  cycle        total energy    energy error   density error
------------------------------------------------------------
      1     -207.0621770064  -2.0936487E+02   2.4408244E-03
      2     -207.0597588449   2.4181615E-03   2.9002713E-03
      3     -207.0424156336   1.7343211E-02   7.4454463E-03
      4     -207.0619379819  -1.9522348E-02   9.6259882E-04
      5     -207.0620721216  -1.3413971E-04   6.9608556E-04
      6     -207.0622005368  -1.2841514E-04   2.7150652E-04
      7     -207.0622167782  -1.6241453E-05   1.2053546E-04
      8     -207.0622202631  -3.4849035E-06   7.0608558E-05
      9     -207.0622216503  -1.3872205E-06   3.6729437E-05
     10     -207.0622218639  -2.1357187E-07   2.4225387E-05
     11     -207.0622219311  -6.7151660E-08   1.6335717E-05
------------------------------------------------------------

 total:                                   1.049 sec
 * total energy  :  -207.0622219 Eh     change       -0.1301152E-02 Eh
   gradient norm :     0.0123882 Eh/α   predicted    -0.1156045E-02 ( -11.15%)
   displ. norm   :     0.7537380 α      lambda       -0.1527038E-02
   maximum displ.:     0.3002686 α      in ANC's #7, #8, #2, ...

........................................................................
.............................. CYCLE   34 ..............................
........................................................................
------------------------------------------------------------
  cycle        total energy    energy error   density error
------------------------------------------------------------
      1     -207.0634215604  -2.0936416E+02   2.5009838E-03
      2     -207.0628442441   5.7731632E-04   1.9035475E-03
      3     -207.0219150659   4.0929178E-02   1.0031953E-02
      4     -207.0622202096  -4.0305144E-02   1.8353310E-03
      5     -207.0631415588  -9.2134924E-04   8.9338615E-04
      6     -207.0634399969  -2.9843811E-04   3.1624712E-04
      7     -207.0633157924   1.2420453E-04   6.9760657E-04
      8     -207.0632592264   5.6565966E-05   7.8905086E-04
      9     -207.0633509142  -9.1687763E-05   5.5311461E-04
     10     -207.0634595367  -1.0862249E-04   1.3888428E-04
     11     -207.0634586453   8.9135906E-07   1.2665153E-04
     12     -207.0634612178  -2.5724875E-06   5.2516980E-05
     13     -207.0634618633  -6.4545844E-07   9.2123794E-06
------------------------------------------------------------

 total:                                   1.271 sec
 * total energy  :  -207.0634619 Eh     change       -0.1239932E-02 Eh
   gradient norm :     0.0124549 Eh/α   predicted    -0.1197301E-02 (  -3.44%)
   displ. norm   :     0.7325715 α      lambda       -0.1432925E-02
   maximum displ.:     0.2928266 α      in ANC's #7, #2, #8, ...

........................................................................
.............................. CYCLE   35 ..............................
........................................................................
------------------------------------------------------------
  cycle        total energy    energy error   density error
------------------------------------------------------------
      1     -207.0644067383  -2.0937235E+02   2.4932165E-03
      2     -207.0627973086   1.6094297E-03   2.5019575E-03
      3     -207.0419175892   2.0879719E-02   7.9029097E-03
      4     -207.0641417696  -2.2224180E-02   9.9839495E-04
      5     -207.0641804662  -3.8696623E-05   8.9748453E-04
[...]
   
  Fragment 1 SOMO-6  Fragment 2 SOMO-6
--------------------------------------
E_mon(orb) frag1 frag2             -11.087   -11.089 eV
J(AB):               -0.001 eV
S(AB):             0.00012122 Eh
|J(AB,eff)|:            0.000 eV
   
  Fragment 1 SOMO-6  Fragment 2 SOMO-5
--------------------------------------
E_mon(orb) frag1 frag2             -11.087   -10.984 eV
J(AB):               -0.020 eV
S(AB):             0.00088203 Eh
|J(AB,eff)|:            0.010 eV
   
  Fragment 1 SOMO-6  Fragment 2 SOMO-4
--------------------------------------
E_mon(orb) frag1 frag2             -11.087   -10.949 eV
J(AB):                0.004 eV
S(AB):            -0.00016551 Eh
|J(AB,eff)|:            0.002 eV
   
  Fragment 1 SOMO-6  Fragment 2 SOMO-3
--------------------------------------
E_mon(orb) frag1 frag2             -11.087   -10.984 eV
J(AB):               -0.017 eV
S(AB):             0.00085272 Eh
|J(AB,eff)|:            0.008 eV
   
  Fragment 1 SOMO-6  Fragment 2 SOMO-2
--------------------------------------
E_mon(orb) frag1 frag2             -11.087   -10.877 eV
J(AB):               -0.026 eV
S(AB):             0.00123025 Eh
|J(AB,eff)|:            0.012 eV
   
  Fragment 1 SOMO-6  Fragment 2 SOMO-1
--------------------------------------
E_mon(orb) frag1 frag2             -11.087   -10.878 eV
J(AB):               -0.020 eV
S(AB):             0.00074964 Eh
|J(AB,eff)|:            0.011 eV
   
  Fragment 1 SOMO-6  Fragment 2 SOMO 
--------------------------------------
E_mon(orb) frag1 frag2             -11.087   -10.932 eV
J(AB):                0.005 eV
S(AB):            -0.00025309 Eh
|J(AB,eff)|:            0.002 eV
   
  Fragment 1 SOMO-6  Fragment 2 LUMO 
--------------------------------------
E_mon(orb) frag1 frag2             -11.087   -10.575 eV
J(AB):                0.013 eV
S(AB):            -0.00067247 Eh
|J(AB,eff)|:            0.006 eV
   
  Fragment 1 SOMO-6  Fragment 2 LUMO+1
--------------------------------------
E_mon(orb) frag1 frag2             -11.087   -10.515 eV
J(AB):                0.010 eV
S(AB):            -0.00037999 Eh
|J(AB,eff)|:            0.006 eV
   
  Fragment 1 SOMO-5  Fragment 2 SOMO-6
--------------------------------------
E_mon(orb) frag1 frag2             -11.071   -11.089 eV
J(AB):                0.004 eV
S(AB):            -0.00014695 Eh
|J(AB,eff)|:            0.002 eV
   
  Fragment 1 SOMO-5  Fragment 2 SOMO-5
--------------------------------------
E_mon(orb) frag1 frag2             -11.071   -10.984 eV
J(AB):               -0.013 eV
S(AB):             0.00060428 Eh
|J(AB,eff)|:            0.006 eV
   
  Fragment 1 SOMO-5  Fragment 2 SOMO-4
--------------------------------------
E_mon(orb) frag1 frag2             -11.071   -10.949 eV
J(AB):                0.007 eV
S(AB):            -0.00032324 Eh
|J(AB,eff)|:            0.004 eV
   
  Fragment 1 SOMO-5  Fragment 2 SOMO-3
--------------------------------------
E_mon(orb) frag1 frag2             -11.071   -10.984 eV
J(AB):               -0.029 eV
S(AB):             0.00120658 Eh
|J(AB,eff)|:            0.015 eV
   
  Fragment 1 SOMO-5  Fragment 2 SOMO-2
--------------------------------------
E_mon(orb) frag1 frag2             -11.071   -10.877 eV
J(AB):               -0.015 eV
S(AB):             0.00067877 Eh
|J(AB,eff)|:            0.008 eV
   
  Fragment 1 SOMO-5  Fragment 2 SOMO-1
--------------------------------------
E_mon(orb) frag1 frag2             -11.071   -10.878 eV
J(AB):                0.006 eV
S(AB):            -0.00016697 Eh
|J(AB,eff)|:            0.004 eV
   
  Fragment 1 SOMO-5  Fragment 2 SOMO 
--------------------------------------
E_mon(orb) frag1 frag2             -11.071   -10.932 eV
J(AB):                0.007 eV
S(AB):            -0.00035118 Eh
|J(AB,eff)|:            0.003 eV
   
  Fragment 1 SOMO-5  Fragment 2 LUMO 
--------------------------------------
E_mon(orb) frag1 frag2             -11.071   -10.575 eV
J(AB):               -0.002 eV
S(AB):             0.00016005 Eh
|J(AB,eff)|:            0.000 eV
   
  Fragment 1 SOMO-5  Fragment 2 LUMO+1
--------------------------------------
E_mon(orb) frag1 frag2             -11.071   -10.515 eV
J(AB):               -0.022 eV
S(AB):             0.00093342 Eh
|J(AB,eff)|:            0.012 eV
   
  Fragment 1 SOMO-4  Fragment 2 SOMO-6
--------------------------------------
E_mon(orb) frag1 frag2             -10.999   -11.089 eV
J(AB):               -0.001 eV
S(AB):            -0.00009833 Eh
|J(AB,eff)|:            0.002 eV
   
  Fragment 1 SOMO-4  Fragment 2 SOMO-5
--------------------------------------
E_mon(orb) frag1 frag2             -10.999   -10.984 eV
J(AB):                0.011 eV
S(AB):            -0.00053829 Eh
|J(AB,eff)|:            0.005 eV
   
  Fragment 1 SOMO-4  Fragment 2 SOMO-4
--------------------------------------
E_mon(orb) frag1 frag2             -10.999   -10.949 eV
J(AB):               -0.018 eV
S(AB):             0.00078067 Eh
|J(AB,eff)|:            0.009 eV
   
  Fragment 1 SOMO-4  Fragment 2 SOMO-3
--------------------------------------
E_mon(orb) frag1 frag2             -10.999   -10.984 eV
J(AB):                0.029 eV
S(AB):            -0.00137742 Eh
|J(AB,eff)|:            0.013 eV
   
  Fragment 1 SOMO-4  Fragment 2 SOMO-2
--------------------------------------
E_mon(orb) frag1 frag2             -10.999   -10.877 eV
J(AB):                0.018 eV
S(AB):            -0.00076570 Eh
|J(AB,eff)|:            0.009 eV
   
  Fragment 1 SOMO-4  Fragment 2 SOMO-1
--------------------------------------
E_mon(orb) frag1 frag2             -10.999   -10.878 eV
J(AB):                0.007 eV
S(AB):            -0.00024145 Eh
|J(AB,eff)|:            0.005 eV
   
  Fragment 1 SOMO-4  Fragment 2 SOMO 
--------------------------------------
E_mon(orb) frag1 frag2             -10.999   -10.932 eV
J(AB):               -0.009 eV
S(AB):             0.00046104 Eh
|J(AB,eff)|:            0.004 eV
   
  Fragment 1 SOMO-4  Fragment 2 LUMO 
--------------------------------------
E_mon(orb) frag1 frag2             -10.999   -10.575 eV
J(AB):               -0.008 eV
S(AB):             0.00045271 Eh
|J(AB,eff)|:            0.003 eV
   
  Fragment 1 SOMO-4  Fragment 2 LUMO+1
--------------------------------------
E_mon(orb) frag1 frag2             -10.999   -10.515 eV
J(AB):               -0.002 eV
S(AB):             0.00001529 Eh
|J(AB,eff)|:            0.002 eV
   
  Fragment 1 SOMO-3  Fragment 2 SOMO-6
--------------------------------------
E_mon(orb) frag1 frag2             -11.017   -11.089 eV
J(AB):               -0.008 eV
S(AB):             0.00034328 Eh
|J(AB,eff)|:            0.004 eV
   
  Fragment 1 SOMO-3  Fragment 2 SOMO-5
--------------------------------------
E_mon(orb) frag1 frag2             -11.017   -10.984 eV
J(AB):               -0.029 eV
S(AB):             0.00128393 Eh
|J(AB,eff)|:            0.015 eV
   
  Fragment 1 SOMO-3  Fragment 2 SOMO-4
--------------------------------------
E_mon(orb) frag1 frag2             -11.017   -10.949 eV
J(AB):                0.001 eV
S(AB):            -0.00010471 Eh
|J(AB,eff)|:            0.000 eV
   
  Fragment 1 SOMO-3  Fragment 2 SOMO-3
--------------------------------------
E_mon(orb) frag1 frag2             -11.017   -10.984 eV
J(AB):               -0.024 eV
S(AB):             0.00108930 Eh
|J(AB,eff)|:            0.012 eV
   
  Fragment 1 SOMO-3  Fragment 2 SOMO-2
--------------------------------------
E_mon(orb) frag1 frag2             -11.017   -10.877 eV
J(AB):               -0.025 eV
S(AB):             0.00117082 Eh
|J(AB,eff)|:            0.012 eV
   
  Fragment 1 SOMO-3  Fragment 2 SOMO-1
--------------------------------------
E_mon(orb) frag1 frag2             -11.017   -10.878 eV
J(AB):               -0.005 eV
S(AB):             0.00010867 Eh
|J(AB,eff)|:            0.004 eV
   
  Fragment 1 SOMO-3  Fragment 2 SOMO 
--------------------------------------
E_mon(orb) frag1 frag2             -11.017   -10.932 eV
J(AB):               -0.001 eV
S(AB):            -0.00002119 Eh
|J(AB,eff)|:            0.001 eV
   
  Fragment 1 SOMO-3  Fragment 2 LUMO 
--------------------------------------
E_mon(orb) frag1 frag2             -11.017   -10.575 eV
J(AB):                0.015 eV
S(AB):            -0.00069592 Eh
|J(AB,eff)|:            0.007 eV
   
  Fragment 1 SOMO-3  Fragment 2 LUMO+1
--------------------------------------
E_mon(orb) frag1 frag2             -11.017   -10.515 eV
J(AB):                0.006 eV
S(AB):            -0.00022523 Eh
|J(AB,eff)|:            0.004 eV
   
  Fragment 1 SOMO-2  Fragment 2 SOMO-6
--------------------------------------
E_mon(orb) frag1 frag2             -10.964   -11.089 eV
J(AB):               -0.013 eV
S(AB):             0.00071713 Eh
|J(AB,eff)|:            0.005 eV
   
  Fragment 1 SOMO-2  Fragment 2 SOMO-5
--------------------------------------
E_mon(orb) frag1 frag2             -10.964   -10.984 eV
J(AB):               -0.018 eV
S(AB):             0.00078324 Eh
|J(AB,eff)|:            0.009 eV
   
  Fragment 1 SOMO-2  Fragment 2 SOMO-4
--------------------------------------
E_mon(orb) frag1 frag2             -10.964   -10.949 eV
J(AB):                0.016 eV
S(AB):            -0.00073092 Eh
|J(AB,eff)|:            0.008 eV
   
  Fragment 1 SOMO-2  Fragment 2 SOMO-3
--------------------------------------
E_mon(orb) frag1 frag2             -10.964   -10.984 eV
J(AB):               -0.012 eV
S(AB):             0.00053070 Eh
|J(AB,eff)|:            0.006 eV
   
  Fragment 1 SOMO-2  Fragment 2 SOMO-2
--------------------------------------
E_mon(orb) frag1 frag2             -10.964   -10.877 eV
J(AB):               -0.024 eV
S(AB):             0.00110494 Eh
|J(AB,eff)|:            0.011 eV
   
  Fragment 1 SOMO-2  Fragment 2 SOMO-1
--------------------------------------
E_mon(orb) frag1 frag2             -10.964   -10.878 eV
J(AB):                0.004 eV
S(AB):            -0.00012068 Eh
|J(AB,eff)|:            0.003 eV
   
  Fragment 1 SOMO-2  Fragment 2 SOMO 
--------------------------------------
E_mon(orb) frag1 frag2             -10.964   -10.932 eV
J(AB):                0.001 eV
S(AB):             0.00000958 Eh
|J(AB,eff)|:            0.001 eV
   
  Fragment 1 SOMO-2  Fragment 2 LUMO 
--------------------------------------
E_mon(orb) frag1 frag2             -10.964   -10.575 eV
J(AB):                0.013 eV
S(AB):            -0.00065513 Eh
|J(AB,eff)|:            0.006 eV
   
  Fragment 1 SOMO-2  Fragment 2 LUMO+1
--------------------------------------
E_mon(orb) frag1 frag2             -10.964   -10.515 eV
J(AB):               -0.001 eV
S(AB):            -0.00001513 Eh
|J(AB,eff)|:            0.001 eV
   
  Fragment 1 SOMO-1  Fragment 2 SOMO-6
--------------------------------------
E_mon(orb) frag1 frag2             -10.869   -11.089 eV
J(AB):               -0.005 eV
S(AB):             0.00026005 Eh
|J(AB,eff)|:            0.002 eV
   
  Fragment 1 SOMO-1  Fragment 2 SOMO-5
--------------------------------------
E_mon(orb) frag1 frag2             -10.869   -10.984 eV
J(AB):               -0.018 eV
S(AB):             0.00080014 Eh
|J(AB,eff)|:            0.010 eV
   
  Fragment 1 SOMO-1  Fragment 2 SOMO-4
--------------------------------------
E_mon(orb) frag1 frag2             -10.869   -10.949 eV
J(AB):                0.013 eV
S(AB):            -0.00056618 Eh
|J(AB,eff)|:            0.007 eV
   
  Fragment 1 SOMO-1  Fragment 2 SOMO-3
--------------------------------------
E_mon(orb) frag1 frag2             -10.869   -10.984 eV
J(AB):               -0.008 eV
S(AB):             0.00036391 Eh
|J(AB,eff)|:            0.004 eV
   
  Fragment 1 SOMO-1  Fragment 2 SOMO-2
--------------------------------------
E_mon(orb) frag1 frag2             -10.869   -10.877 eV
J(AB):               -0.004 eV
S(AB):             0.00023832 Eh
|J(AB,eff)|:            0.002 eV
   
  Fragment 1 SOMO-1  Fragment 2 SOMO-1
--------------------------------------
E_mon(orb) frag1 frag2             -10.869   -10.878 eV
J(AB):                0.001 eV
S(AB):            -0.00016459 Eh
|J(AB,eff)|:            0.001 eV
   
  Fragment 1 SOMO-1  Fragment 2 SOMO 
--------------------------------------
E_mon(orb) frag1 frag2             -10.869   -10.932 eV
J(AB):                0.009 eV
S(AB):            -0.00038492 Eh
|J(AB,eff)|:            0.005 eV
   
  Fragment 1 SOMO-1  Fragment 2 LUMO 
--------------------------------------
E_mon(orb) frag1 frag2             -10.869   -10.575 eV
J(AB):               -0.011 eV
S(AB):             0.00053043 Eh
|J(AB,eff)|:            0.005 eV
   
  Fragment 1 SOMO-1  Fragment 2 LUMO+1
--------------------------------------
E_mon(orb) frag1 frag2             -10.869   -10.515 eV
J(AB):               -0.009 eV
S(AB):             0.00056776 Eh
|J(AB,eff)|:            0.003 eV
   
  Fragment 1 SOMO   Fragment 2 SOMO-6
--------------------------------------
E_mon(orb) frag1 frag2             -10.821   -11.089 eV
J(AB):                0.007 eV
S(AB):            -0.00023833 Eh
|J(AB,eff)|:            0.004 eV
   
  Fragment 1 SOMO   Fragment 2 SOMO-5
--------------------------------------
E_mon(orb) frag1 frag2             -10.821   -10.984 eV
J(AB):                0.013 eV
S(AB):            -0.00063419 Eh
|J(AB,eff)|:            0.006 eV
   
  Fragment 1 SOMO   Fragment 2 SOMO-4
--------------------------------------
E_mon(orb) frag1 frag2             -10.821   -10.949 eV
J(AB):               -0.009 eV
S(AB):             0.00042847 Eh
|J(AB,eff)|:            0.004 eV
   
  Fragment 1 SOMO   Fragment 2 SOMO-3
--------------------------------------
E_mon(orb) frag1 frag2             -10.821   -10.984 eV
J(AB):                0.007 eV
S(AB):            -0.00031584 Eh
|J(AB,eff)|:            0.003 eV
   
  Fragment 1 SOMO   Fragment 2 SOMO-2
--------------------------------------
E_mon(orb) frag1 frag2             -10.821   -10.877 eV
J(AB):               -0.005 eV
S(AB):             0.00029124 Eh
|J(AB,eff)|:            0.002 eV
   
  Fragment 1 SOMO   Fragment 2 SOMO-1
--------------------------------------
E_mon(orb) frag1 frag2             -10.821   -10.878 eV
J(AB):                0.001 eV
S(AB):             0.00004868 Eh
|J(AB,eff)|:            0.001 eV
   
  Fragment 1 SOMO   Fragment 2 SOMO 
--------------------------------------
E_mon(orb) frag1 frag2             -10.821   -10.932 eV
J(AB):                0.000 eV
S(AB):             0.00001943 Eh
|J(AB,eff)|:            0.001 eV
   
  Fragment 1 SOMO   Fragment 2 LUMO 
--------------------------------------
E_mon(orb) frag1 frag2             -10.821   -10.575 eV
J(AB):               -0.004 eV
S(AB):             0.00019301 Eh
|J(AB,eff)|:            0.002 eV
   
  Fragment 1 SOMO   Fragment 2 LUMO+1
--------------------------------------
E_mon(orb) frag1 frag2             -10.821   -10.515 eV
J(AB):               -0.001 eV
S(AB):             0.00004140 Eh
|J(AB,eff)|:            0.000 eV
   
  Fragment 1 LUMO   Fragment 2 SOMO-6
--------------------------------------
E_mon(orb) frag1 frag2             -10.570   -11.089 eV
J(AB):                0.001 eV
S(AB):            -0.00019563 Eh
|J(AB,eff)|:            0.001 eV
   
  Fragment 1 LUMO   Fragment 2 SOMO-5
--------------------------------------
E_mon(orb) frag1 frag2             -10.570   -10.984 eV
J(AB):                0.002 eV
S(AB):             0.00000988 Eh
|J(AB,eff)|:            0.002 eV
   
  Fragment 1 LUMO   Fragment 2 SOMO-4
--------------------------------------
E_mon(orb) frag1 frag2             -10.570   -10.949 eV
J(AB):               -0.015 eV
S(AB):             0.00069747 Eh
|J(AB,eff)|:            0.007 eV
   
  Fragment 1 LUMO   Fragment 2 SOMO-3
--------------------------------------
E_mon(orb) frag1 frag2             -10.570   -10.984 eV
J(AB):               -0.020 eV
S(AB):             0.00077749 Eh
|J(AB,eff)|:            0.011 eV
   
  Fragment 1 LUMO   Fragment 2 SOMO-2
--------------------------------------
E_mon(orb) frag1 frag2             -10.570   -10.877 eV
J(AB):                0.011 eV
S(AB):            -0.00051221 Eh
|J(AB,eff)|:            0.006 eV
   
  Fragment 1 LUMO   Fragment 2 SOMO-1
--------------------------------------
E_mon(orb) frag1 frag2             -10.570   -10.878 eV
J(AB):                0.031 eV
S(AB):            -0.00130160 Eh
|J(AB,eff)|:            0.017 eV
   
  Fragment 1 LUMO   Fragment 2 SOMO 
--------------------------------------
E_mon(orb) frag1 frag2             -10.570   -10.932 eV
J(AB):                0.006 eV
S(AB):            -0.00030460 Eh
|J(AB,eff)|:            0.003 eV
   
  Fragment 1 LUMO   Fragment 2 LUMO 
--------------------------------------
E_mon(orb) frag1 frag2             -10.570   -10.575 eV
J(AB):               -0.003 eV
S(AB):             0.00019314 Eh
|J(AB,eff)|:            0.001 eV
   
  Fragment 1 LUMO   Fragment 2 LUMO+1
--------------------------------------
E_mon(orb) frag1 frag2             -10.570   -10.515 eV
J(AB):               -0.003 eV
S(AB):            -0.00003817 Eh
|J(AB,eff)|:            0.003 eV
   
  Fragment 1 LUMO+1  Fragment 2 SOMO-6
--------------------------------------
E_mon(orb) frag1 frag2             -10.520   -11.089 eV
J(AB):                0.020 eV
S(AB):            -0.00098529 Eh
|J(AB,eff)|:            0.009 eV
   
  Fragment 1 LUMO+1  Fragment 2 SOMO-5
--------------------------------------
E_mon(orb) frag1 frag2             -10.520   -10.984 eV
J(AB):               -0.004 eV
S(AB):             0.00026197 Eh
|J(AB,eff)|:            0.001 eV
   
  Fragment 1 LUMO+1  Fragment 2 SOMO-4
--------------------------------------
E_mon(orb) frag1 frag2             -10.520   -10.949 eV
J(AB):                0.016 eV
S(AB):            -0.00064716 Eh
|J(AB,eff)|:            0.009 eV
   
  Fragment 1 LUMO+1  Fragment 2 SOMO-3
--------------------------------------
E_mon(orb) frag1 frag2             -10.520   -10.984 eV
J(AB):                0.010 eV
S(AB):            -0.00041062 Eh
|J(AB,eff)|:            0.006 eV
   
  Fragment 1 LUMO+1  Fragment 2 SOMO-2
--------------------------------------
E_mon(orb) frag1 frag2             -10.520   -10.877 eV
J(AB):                0.017 eV
S(AB):            -0.00075591 Eh
|J(AB,eff)|:            0.009 eV
   
  Fragment 1 LUMO+1  Fragment 2 SOMO-1
--------------------------------------
E_mon(orb) frag1 frag2             -10.520   -10.878 eV
J(AB):               -0.018 eV
S(AB):             0.00061850 Eh
|J(AB,eff)|:            0.012 eV
   
  Fragment 1 LUMO+1  Fragment 2 SOMO 
--------------------------------------
E_mon(orb) frag1 frag2             -10.520   -10.932 eV
J(AB):                0.003 eV
S(AB):            -0.00012553 Eh
|J(AB,eff)|:            0.001 eV
   
  Fragment 1 LUMO+1  Fragment 2 LUMO 
--------------------------------------
E_mon(orb) frag1 frag2             -10.520   -10.575 eV
J(AB):                0.007 eV
S(AB):            -0.00040361 Eh
|J(AB,eff)|:            0.002 eV
   
  Fragment 1 LUMO+1  Fragment 2 LUMO+1
--------------------------------------
E_mon(orb) frag1 frag2             -10.520   -10.515 eV
J(AB):                0.004 eV
S(AB):            -0.00008176 Eh
|J(AB,eff)|:            0.003 eV
   
..............................................................................
:  total |J(AB,eff)| for hole transport (occ. MOs) :               0.060 eV  :
:  total |J(AB,eff)| for charge transport (unocc. MOs) :           0.005 eV  :
:  total |J(AB,eff)| for charge transfer (CT) :                    0.039 eV  :
..............................................................................
  
 Please remember, DIPRO is not available for restart!
   
normal termination of dipro
----------------------------------------------------------
 * finished run on 2025/03/13 at 13:46:18.361     
----------------------------------------------------------
 dipro:
 * wall-time:     0 d,  0 h,  0 min,  8.171 sec
 *  cpu-time:     0 d,  0 h,  0 min, 29.105 sec
 * ratio c/w:     3.562 speedup
Reorganization energy (electron): 0.18342752970972756 eV
Reorganization energy (hole): 0.16719732593559913 eV
Electron Transfer integral J: 0.005 eV
Hole Transfer integral J: 0.06 eV
