116
 energy: -22.928061455056 gnorm: 0.329736929581 xtb: 6.6.1 (8d0f1dd)
C           -3.31122850772930        0.79849766164622       -0.92477639677520
C           -2.44380812530352       -0.12270372891954       -0.27661132624697
C           -1.41337090092821        0.39579727573559        0.56335275196199
C           -0.89266158675590        1.65801491088749        0.27377586709581
C           -1.72665675402493        2.51431363229076       -0.49448366572522
C           -2.95444148494349        2.13954154133227       -1.01494489940871
C           -0.74098268209890       -0.43411532818871        1.49825021926784
C            0.56872586496315        0.03782116815119        1.86248088067890
C            1.03782416582094        1.29402317993033        1.50887470833621
N            0.31238977034758        2.07067427098208        0.65193736800696
C           -1.29695700510141       -1.39996043042223        2.41574187746061
C           -0.38243517664656       -2.18060797534842        3.13232615520648
N            0.91308504082021       -1.90366887689689        3.30325166013478
C            1.37712470144904       -0.74872102533751        2.81811050966982
C            2.52149331701875       -0.17739833758153        3.39379298866852
C            2.95849061756259        1.02681208890480        2.95105897606587
C            2.24288949469137        1.78498308775960        2.03503020483770
C           -2.74860936222260       -1.74497937691422        2.38401158947411
C           -3.09416315450955       -2.91614440870436        3.00571134491758
C           -2.16786021984049       -3.77788778654213        3.63251872101904
C           -0.85708937311598       -3.40495313382985        3.68547234358092
O           -3.71994433332149       -0.94984598373544        1.67726658385724
O           -2.55702603277562       -1.47241711578389       -0.57241635275616
C           -3.84297843593025        3.13357444054366       -1.60938954875544
C           -2.68769581069131       -5.03867041417370        4.30484659386931
H           -1.39666850744143        3.51251503834900       -0.76806311868865
H           -4.27662633836220        0.55105838579656       -1.33106614114542
H            2.66329581305412        2.73912661909249        1.72562431984580
H            3.05775395548473       -0.69369546277216        4.16536137542516
H           -0.24710966264510       -4.12034095424229        4.22946223699121
H           -4.11477991332403       -3.04712728052358        3.03244694615357
O           -4.21824883374556        4.03433712717988       -0.87713382485991
O           -4.44510595673734        2.90643496899600       -2.81853501752979
C           -5.44216520282800        3.83300025693726       -3.02488532025093
C            4.23586651889298        1.50004220933226        3.59165660008449
O            5.05927614697201        0.66079890002952        3.91714215179376
O            4.47001334453535        2.86385149488593        3.72605651435371
C            5.79457498613219        3.08584475587818        4.15829123132174
O           -3.82227255313510       -5.27347675879771        4.16636005494405
O           -1.85023202017753       -5.79767454267276        5.06656077253571
C           -2.55119635829503       -6.86252441382958        5.62930343183426
C           -5.07197156564436       -1.42399175670916        1.58830531863830
C           -1.33089900128490       -2.23622472573986       -0.99264499351172
H           -2.54510546830388       -7.76426885143998        4.99136022291012
H           -3.57194749219491       -6.44405511486021        5.74196173723541
H           -2.09133598235598       -7.02043774843818        6.64022264233588
H            5.72707967266424        3.46798026205549        5.10135971236643
H            6.34060091246885        3.78468702308830        3.50069950143490
H            6.17933064298187        2.03010500085905        4.19342358084693
H           -0.91862729772622       -2.57650129080332       -0.01361370304871
H           -0.49769766914251       -1.60651221708571       -1.34094446550576
H           -1.52632419730509       -2.94569707152159       -1.75361447637286
H           -5.11788846557077       -2.41810833635233        1.17520213188926
H           -5.67929807973498       -0.69619639428435        1.04301666067831
H           -5.57598832326623       -1.42383358739762        2.57928294206544
H           -6.13050215934830        3.76035386975488       -2.23272855695873
H           -5.86615610071888        3.45938329385866       -4.02668959924245
H           -5.13479557532099        4.87790991548477       -2.98314551356402
C           -1.38192942069774        3.73616555005018        2.91232598411686
C           -1.84821468128685        2.59982427735607        3.49755545445181
C           -1.05946531454833        2.05730632010638        4.60922730982276
C            0.19893954712228        2.69376791964407        4.86302140881997
C            0.50425395911860        3.94630308659851        4.28768785650746
C           -0.26031777722226        4.46998310053134        3.25072669343212
C           -1.20488993561782        0.74454293276906        5.14851520323437
C           -0.06287609782692        0.02744069315890        5.60930570802864
C            1.19208754369866        0.71421540266195        5.78882868583885
N            1.19428660993148        2.06344359410476        5.62744624321596
C           -2.41361422770794        0.07928500213936        5.25249410304426
C           -2.45851584031083       -1.32662100968547        5.60237876023992
N           -1.29466212405906       -1.98318595734370        5.89916817085159
C           -0.14475655767527       -1.32117560077092        5.98824682881008
C            0.97209270935794       -1.98958449505532        6.53157704134458
C            2.21982707914082       -1.36973967291181        6.68703967237737
C            2.30561929262884       -0.09745313075593        6.26436900324455
C           -3.73018485967715        0.71367583494582        5.25810242262992
C           -4.89964478833448       -0.06184623426677        5.21204641615509
C           -4.82617965800088       -1.39228978090841        5.46901303780036
C           -3.67144193418464       -1.98914944386360        5.67265433266067
O           -3.75568638935321        2.07705011038914        5.52067969627343
O           -2.94192434743730        1.91263938797883        3.01658762327703
C            0.21273512614467        5.50086066357994        2.34765104514621
C           -6.06660304520411       -2.17604633098929        5.80641622556876
H            1.41756699010566        4.38133362238595        4.66974005703471
H           -1.82880610647429        4.11982501512100        2.06992133318584
H            3.26888037378556        0.32655662585251        6.31721410015598
H            0.87146188387207       -3.08471526305024        6.57830423410869
H           -3.67716811065157       -3.05999292755990        5.83019634570050
H           -5.77379677507622        0.43595144608221        4.71017130754348
O            1.34459852619901        5.82615848916894        2.44941456579099
O           -0.74718748219123        6.07961784856304        1.59848183464284
C           -0.21473095568964        7.24015934882472        1.05753806029483
C            3.53228080814219       -2.00967610361154        7.02506769044485
O            3.64093082622715       -3.14437803815732        7.50071391725347
O            4.56565258381079       -1.22937033368332        6.69086985080897
C            5.72579357310716       -1.80692399125161        7.22246151275881
O           -7.04801223588612       -1.95726935745904        5.14194115322235
O           -6.01514389321278       -2.93743591896022        6.94765316328794
C           -7.21292732384718       -3.62681918543340        7.15115816329978
C           -4.95459780685163        2.65960679932188        5.86868674392943
C           -3.68284113682406        2.59129188358641        2.05479246020704
H           -7.43119628931628       -4.22607794725959        6.20622607140901
H           -8.06548455146707       -2.91765848248592        7.29781126410398
H           -7.07314693247270       -4.33087306029711        7.91223421050944
H            6.57332189837178       -1.29353136199234        6.78341268688262
H            5.74663761932316       -2.84282155125561        6.88089468184451
H            5.69426191474290       -1.72781984964892        8.29460302186842
H           -4.10481209541493        3.44288266176275        2.60483747673152
H           -4.49244774344916        1.87419893016926        1.82433103764650
H           -3.18901540870812        2.85154642679373        1.06781919454921
H           -5.55414326821421        2.76698137191684        4.93950725322359
H           -4.78658370641210        3.62090640967288        6.25983200635257
H           -5.43485580473958        1.97242995129449        6.65265772412460
H            0.89164886030839        7.38838561720231        1.13776105146914
H           -0.62894889903848        8.04195665205089        1.64837664327952
H           -0.59282546386754        7.45699159724320        0.03719083132488
116
 energy: -22.674527130616 gnorm: 0.534266738608 xtb: 6.6.1 (8d0f1dd)
C           -2.80795530661847        0.58419213194966       -1.18988393694286
C           -1.98994896996458       -0.34817997693683       -0.56003394114204
C           -1.01953048976637        0.10049554484549        0.35059471180759
C           -0.86804955603253        1.51364669507973        0.56260812451263
C           -1.68277538816196        2.50138592740225       -0.11511444186127
C           -2.58346378693844        1.95413153101882       -1.02393250641002
C           -0.17406338062888       -0.69088965872527        1.19111804085590
C            1.07209476467066       -0.15171345130206        1.61348068210374
C            1.16811879846053        1.23370918375622        1.72190011898399
N            0.18504117211363        2.06533217340176        1.26498886018107
C           -0.49489784363460       -1.86043313701373        2.05111000578258
C            0.61998886264634       -2.59113872395538        2.57788699038930
N            1.95342797881790       -2.27614792186191        2.25483656999363
C            2.14396654634601       -1.04218871280470        2.05122370826974
C            3.36088533489293       -0.46262668578749        2.45758962789154
C            3.44295125769516        0.93812491828688        2.38529224068059
C            2.33878895971956        1.70692265832560        2.37032926694939
C           -1.74750667467941       -2.12052426644534        2.71321647637669
C           -1.94639850880783       -3.25567526459205        3.52852852912003
C           -0.83673147145922       -3.98133584755028        3.96877979863222
C            0.46215978892048       -3.57955326020739        3.57592722899122
O           -2.58716123691549       -1.06040267151765        2.51517785800816
O           -2.28753864154826       -1.72362202854463       -0.60561757020881
C           -3.62865089913339        2.87406599884537       -1.63881195219293
C           -1.15498057659593       -5.25322670376955        4.65596275362398
H           -1.51001326215190        3.60299572690686        0.09736972029431
H           -3.41266973908491        0.10894370353894       -1.95537125843921
H            2.49483166924534        2.72908369309171        2.24938251234014
H            4.12711176748398       -1.06685825727984        2.83290755267390
H            1.40052966382858       -4.18083801791574        3.73439672825274
H           -2.86953506479030       -3.50618595175047        4.00678840348137
O           -3.30772363921212        3.96445511901264       -2.14973756593284
O           -4.87128921759310        2.33142493458782       -1.60025043770008
C           -5.73954623347941        3.00700860671254       -2.55905130906315
C            4.79993079699570        1.34430935423472        2.89551846463254
O            5.54867281632155        0.33804890704803        2.83281080330278
O            5.27826796798505        2.59098160969765        3.15849658351216
C            6.53598626240946        2.65377647036039        3.87855371724379
O           -2.19161809740847       -5.29739029281809        5.29046996137243
O           -0.36541607770262       -6.43990948616509        4.40744213943423
C           -0.77230001839330       -7.70623663836834        4.86448118884311
C           -3.92961255989663       -1.57925133495832        2.80112155095234
C           -1.19786708652900       -2.59438337560309       -0.84614823971589
H           -0.16282421173801       -7.93992488027854        5.92271897394380
H           -0.82341566623452       -8.45885217813450        3.99957761738617
H           -1.76442204784765       -7.60515080637753        5.16564853563418
H            6.94711168660790        1.65145091203338        3.85192447881489
H            6.19531190978677        3.06192369164769        4.80633105895417
H            6.98862897808216        3.40487346121597        3.48490842707153
H           -1.21531696328323       -3.08569222872499       -1.82759419860349
H           -1.37808055799292       -3.35834385612320       -0.17342438282472
H           -0.18755398092657       -2.12217447079918       -0.69143040055029
H           -4.83061802252333       -0.85802776003416        2.52210541326844
H           -4.02300912818653       -1.77290969791516        3.86732510726505
H           -3.82417665237666       -2.41734137380427        2.23432371547568
H           -5.33813687379742        3.81211180568708       -3.09084258112023
H           -6.57027093207414        3.24603582378090       -1.88086942597852
H           -5.88582004377754        2.20989404095091       -3.19077008700588
C           -2.25646499330882        4.45488917024932        3.63347553965700
C           -2.67249369960590        3.25243763538829        4.16832431815259
C           -1.72533849895221        2.48261582569533        4.94845612316235
C           -0.39557719450482        2.87828475652393        4.87511047441558
C            0.13669185413845        3.88609583688030        4.08580076230416
C           -0.90121808473153        4.72640857958692        3.55121899107780
C           -1.80949473206911        1.29569980834641        5.61659226892037
C           -0.67920669196561        0.31494769448301        5.65083197369570
C            0.59469450677661        0.79691023788417        5.57040803287450
N            0.71686190759720        2.13966120389065        5.46959332025017
C           -3.16486350929623        0.80148878921634        6.07582769402627
C           -3.21150855418343       -0.56452293434315        6.17303360522101
N           -2.19145519710167       -1.41413044499312        6.28271966880570
C           -0.91474209480856       -0.99414416852057        6.14681828197906
C            0.07151480769057       -1.80108592152427        6.56466427707373
C            1.31907779201685       -1.39200260251851        6.36536195193379
C            1.65012505516467       -0.12017543100581        5.81319062526303
C           -4.32326897495332        1.64297937529196        6.32453334430121
C           -5.52751149055372        0.94932882808728        6.13802735310196
C           -5.66441071473680       -0.35937128686204        5.97234244858451
C           -4.56122703275245       -1.10394408964778        6.15856250403920
O           -4.08028359239395        2.92034451958455        6.65000175194726
O           -3.89491445512611        2.61999766447182        3.97272817467747
C           -0.55226490123084        5.74376442682149        2.55701748069250
C           -6.90028820437398       -1.01917463065009        5.47528767106103
H            1.20206113188142        4.05684445232461        3.99261071075413
H           -2.96605691870738        4.87763428347956        2.90988744402800
H            2.68846987909736        0.24132954656851        5.51489280378652
H           -0.19231016457563       -2.67928845748381        7.17194320635047
H           -4.57235229961554       -2.15715193822293        6.09954405353704
H           -6.39941129819989        1.58145461206085        6.10307326621597
O           -0.16968410896672        6.84225256757428        3.04368669420744
O           -0.56341179437059        5.40991373551608        1.19307264404991
C            0.08276361682031        6.50337522111567        0.56406575279798
C            2.50171643164729       -2.30462656141129        6.83524243279233
O            2.36801216396932       -3.22449754946422        7.64217412037010
O            3.77068307912216       -2.08808534915799        6.11578197618059
C            4.52538082860041       -3.20349362981819        6.41168575373277
O           -7.93388379848886       -0.33848243905541        5.81035298079898
O           -6.78135867706581       -2.26941267929811        5.02503474700560
C           -8.08902150771044       -2.81971802478878        4.79580384660201
C           -5.18677575264993        3.77893884133265        6.67996608926542
C           -3.99661941307596        2.17978963071389        2.52206219071378
H           -8.90593154223018       -2.62020685360206        5.50649890107897
H           -8.05157701295179       -3.81152008323167        4.68828041844652
H           -8.43722731975864       -2.39259425151109        3.78895192406912
H            5.12029304693306       -3.05197274145081        5.54068192271911
H            3.96422790092662       -4.15123519932939        6.49342487498307
H            4.92496132138524       -3.10196958498808        7.44262113585602
H           -3.15780655919238        2.63765901743405        1.89371624907101
H           -4.99242192195838        2.33925253397039        2.04206736028176
H           -3.81594124338148        1.07753891756531        2.53569720416299
H           -5.94317927290686        3.50899661414545        6.02777361777234
H           -4.90006569491757        4.84955278586616        7.10717972585578
H           -5.56820365350469        3.39141263314074        7.68856911823383
H           -0.00782301981150        7.37021290953419        1.12166361678100
H           -0.51464824402714        6.65603140346263       -0.23899181869148
H            1.17412484637555        6.46370350478542        0.48846287459405
116
 energy: -22.704898848137 gnorm: 0.496460072830 xtb: 6.6.1 (8d0f1dd)
C           -2.47145982820886        0.36734971713487       -1.03150223657911
C           -1.51790921653121       -0.58125636155927       -0.42033705976718
C           -0.57455951083832        0.07498304122900        0.50743917601304
C           -0.17666277800483        1.41413304097200        0.22249326773247
C           -1.13335793733801        2.18971930285505       -0.38815668816941
C           -2.27745988755386        1.75393717520105       -0.86972631790527
C            0.26307550241795       -0.62024994914643        1.51114594542191
C            1.46236789828408       -0.01191540946592        1.87370943819015
C            1.84012852935828        1.28762437495306        1.26984199969811
N            0.95213633275185        2.06573663326807        0.62726838284321
C           -0.01933304845647       -1.78909127090367        2.24689806993929
C            1.10023987193790       -2.32321965617395        2.96561549304086
N            2.32835537086433       -1.84388645749875        3.16622732770454
C            2.46648583072756       -0.65281081088319        2.65368560319031
C            3.66526772626520        0.04691586927469        2.96747327608233
C            4.03533470209259        1.23787649258241        2.37144692287018
C            3.11990888309056        1.91365223282739        1.58342092313648
C           -1.39611193805495       -2.40931903410951        2.47092668741775
C           -1.50333832623263       -3.67261273450243        2.96761569995282
C           -0.32354293214107       -4.25199208412035        3.51353440442734
C            0.89263348062367       -3.59208017578203        3.61927241550898
O           -2.45848744537016       -1.56192996262168        2.21951234319671
O           -1.24481062081311       -1.93830809799368       -0.74238823852121
C           -3.34014990488134        2.60711840854230       -1.41437655398666
C           -0.21493446617558       -5.77225058789328        3.92970078715775
H           -0.92343663398731        3.31944637329843       -0.49300946785602
H           -3.35012087041474        0.03467932173283       -1.51953769823026
H            3.20205585218956        2.90233515768787        1.21722551443896
H            4.35810835303896       -0.28985360759648        3.75392488082633
H            1.74275684786524       -3.96740151592281        4.25662584085938
H           -2.38627705114986       -4.02019403179846        3.43485779515732
O           -3.22046291493159        3.79728212070415       -1.18341771941587
O           -4.41228697251280        2.04704230943714       -2.12339156486003
C           -5.68501375634532        2.62134003075138       -1.70788516941197
C            5.31655828537187        1.98240034791373        2.82076631383998
O            6.12837239777861        1.46341040169175        3.57403215339493
O            5.73665336937245        3.08448779660907        2.00039870886981
C            7.09645830323808        3.44403353825503        2.36982004498359
O           -0.38356400390916       -6.73189971606252        3.17903501784317
O            0.26651257240685       -5.85074933062014        5.21864992083222
C            0.92309090087656       -7.14798929803962        5.54909853396189
C           -3.70137693193267       -1.93584247671144        2.62960615565643
C           -1.84180982915510       -2.23055558258746       -1.97552810802543
H            1.98779534287645       -7.01996079145502        6.02387245455240
H            1.10019501080921       -7.63637194160692        4.58942554938147
H            0.28309889841068       -7.92134227909505        6.09686500972965
H            7.43325761770020        3.88658128683926        1.46527564949025
H            7.54445567219269        2.72924835230345        2.90851713195269
H            6.89796374829150        4.30914525176226        2.96207957632787
H           -2.87929931079582       -2.07182734079238       -1.64845213876483
H           -1.86670850911505       -3.34217343802366       -2.37013042700044
H           -1.61564669577151       -1.52637022463729       -2.77376376932907
H           -4.00416537769072       -1.73628315844920        3.64874778763372
H           -4.10201985185860       -3.00543242934722        2.49234451244174
H           -4.42183531205527       -1.25163436403336        2.17088035487699
H           -5.63687299270880        3.54931687066632       -2.15089060037946
H           -5.66434000323767        2.54155426439787       -0.63313481699158
H           -6.43238505433395        2.13710805103467       -2.25342316938182
C           -2.24256206976715        3.71781655613868        2.89205981355229
C           -2.66335911788682        2.71075699352514        3.58080927006110
C           -1.78550766117938        2.05668043181759        4.59009172174745
C           -0.40158874988816        2.42294586749246        4.62360163720823
C           -0.04087434832589        3.41138008942363        3.66614213531756
C           -0.90183257034103        4.13952981801368        2.80969572917039
C           -2.19324910976187        0.91035633100277        5.36012994887620
C           -1.24863148273333        0.02532464162794        5.76583713851822
C            0.22103417466604        0.43876151847902        5.62385204130723
N            0.59294717618948        1.69415657268281        5.15553708280893
C           -3.58217406795806        0.63468705105930        5.69563013266991
C           -3.90688741812521       -0.72207313583028        6.00189302647637
N           -2.93371257539479       -1.62671547727391        6.29541598432240
C           -1.64150886960020       -1.21515844980064        6.22765323913879
C           -0.63179376445155       -2.12112446843937        6.59524278251150
C            0.74030933635406       -1.80894230158051        6.23370796061763
C            1.15198700916040       -0.56487240008644        5.94757923307257
C           -4.47853502939677        1.67987020189209        5.67962322181681
C           -5.81433848806996        1.39864272485015        5.83665876670596
C           -6.24271237091064        0.09753217008394        6.08615093080974
C           -5.31766605863668       -0.88925647957031        6.13864790314789
O           -4.05047837269313        2.92678707420614        6.00814241144640
O           -3.90856030080538        2.07035153569446        3.08090686758818
C           -0.65969754928882        5.25289255206463        1.89487077058825
C           -7.67794097298477       -0.25740793599352        6.23882374367034
H            0.95633899267217        3.55368986624517        3.39745083744430
H           -2.99990481885357        4.25112461228874        2.25718490379192
H            2.27017124371148       -0.45427764854907        5.82099801878554
H           -0.83424260832261       -3.16350750562495        7.00890628641557
H           -5.61069248150625       -1.73533955098629        6.69949172026684
H           -6.66453917989516        2.15386131123745        5.70710125593948
O           -0.48396058127344        4.90032963372887        0.74662546230148
O           -0.67838196846536        6.50902499289804        2.46582310207300
C           -0.42812536187725        7.61696557793059        1.72503383828519
C            1.72643538975389       -2.85934837146040        6.88757169439498
O            1.65582886761498       -4.07936665136139        6.70803081669890
O            2.47949294763474       -2.62291316099604        8.01033421353053
C            3.20224250079537       -3.70895042332347        8.45260330745148
O           -8.33260271792778       -0.33885212920242        5.12943509312437
O           -8.25417483178143       -0.60484873435686        7.47421748704305
C           -9.62663456871573       -0.49944020177660        7.44189389313773
C           -4.90981350910730        3.74899936541901        6.68456548140342
C           -4.41802299924740        2.05102036169374        1.81248916240190
H          -10.10121880185896        0.52303953258311        7.76971874772979
H           -9.97914326404319       -1.22228235458878        8.08429511970009
H          -10.16785328748514       -0.90519179410720        6.63788924625615
H            3.43461113217287       -3.70565910225334        9.51397403594277
H            4.19819129785704       -3.93909320570032        7.84844513507879
H            2.62260295501523       -4.63357922042943        8.29643190709691
H           -4.44235995600563        3.10204618343004        1.50216314984743
H           -5.47384746570918        1.77532328579762        1.78318524268840
H           -3.62613235340872        1.50666708981578        1.13853662120449
H           -5.86624845391752        3.71257709542492        6.11646343949826
H           -4.22848120301798        4.55465696343675        6.63251289527593
H           -4.98981587227291        3.33750834316100        7.63455947898388
H           -0.33751402164726        8.37844680342937        2.59876171260088
H           -1.20397085240122        7.75794785763722        0.90535629871961
H            0.64772542193998        7.63649099151681        1.27627224934447
116
 energy: -22.700857072405 gnorm: 0.496096654714 xtb: 6.6.1 (8d0f1dd)
C           -2.25385310510642        0.26918531275612       -0.60430644669841
C           -1.34205061757374       -0.43114480931131        0.19288527410526
C           -0.23769075286519        0.22560391701745        0.93067876289937
C           -0.14855456843214        1.63723012860880        0.71471729807100
C           -1.14819546428910        2.27409018398416       -0.10517365104686
C           -2.22542842807279        1.69575881784796       -0.74716936452506
C            0.62941670324709       -0.45615764449469        1.78359965028398
C            1.91209752465546        0.17130023862179        1.86438247555646
C            2.11485330834418        1.46739016913270        1.17633368120625
N            1.08829461389163        2.25272478560208        0.81127073926281
C            0.48336486131705       -1.74214326057040        2.44066415451165
C            1.74792507025531       -2.53748291533100        2.71588200882485
N            3.00075496432585       -1.83971656208596        2.79572063086687
C            3.02454666433412       -0.53887094667199        2.44691657437104
C            4.25250193757710        0.14578419990671        2.45966335510075
C            4.49569099147607        1.34726218282104        1.83791305392508
C            3.38584361657594        2.01460813590028        1.30865668902376
C           -0.84039315691089       -2.24432635332228        2.75109214465353
C           -0.90204296076770       -3.62953047900617        3.05977267998783
C            0.22928192618252       -4.54753306609643        2.87571250958543
C            1.54079700186194       -3.99713181902103        2.93611118517395
O           -2.03840252935884       -1.53192226157004        2.53671985716638
O           -1.35060340331270       -1.81865695565371        0.26591524831601
C           -3.03447299862033        2.42705582123743       -1.70000602210975
C           -0.04871985186081       -5.98738298406125        3.03983685078198
H           -1.02215533131812        3.41326586794613       -0.27239348641860
H           -3.11845264733866       -0.08149144624323       -1.09188321649871
H            3.56294970760233        3.10300119960161        1.01500198469363
H            5.05230532281110       -0.41520547230663        2.99135051849938
H            2.35313069084455       -4.59464987397392        3.24397079012176
H           -1.84736326878038       -4.16132369493047        3.27869679484730
O           -3.29897588662512        3.62475922210123       -1.48739006679544