Optimization of monomers started
      -----------------------------------------------------------      
     |                   =====================                   |     
     |                           x T B                           |     
     |                   =====================                   |     
     |                         S. Grimme                         |     
     |          Mulliken Center for Theoretical Chemistry        |     
     |                    University of Bonn                     |     
      -----------------------------------------------------------      

   * xtb version 6.7.1 (edcfbbe) compiled by 'runner@Mac-1732539442253.local' on 2024-11-25

   xtb is free software: you can redistribute it and/or modify it under
   the terms of the GNU Lesser General Public License as published by
   the Free Software Foundation, either version 3 of the License, or
   (at your option) any later version.
   
   xtb is distributed in the hope that it will be useful,
   but WITHOUT ANY WARRANTY; without even the implied warranty of
   MERCHANTABILITY or FITNESS FOR A PARTICULAR PURPOSE.  See the
   GNU Lesser General Public License for more details.
   
   Cite this work as:
   * C. Bannwarth, E. Caldeweyher, S. Ehlert, A. Hansen, P. Pracht,
     J. Seibert, S. Spicher, S. Grimme, WIREs Comput. Mol. Sci., 2020, 11,
     e01493. DOI: 10.1002/wcms.1493
   
   for GFN2-xTB:
   * C. Bannwarth, S. Ehlert and S. Grimme., J. Chem. Theory Comput., 2019,
     15, 1652-1671. DOI: 10.1021/acs.jctc.8b01176
   for GFN1-xTB:
   * S. Grimme, C. Bannwarth, P. Shushkov, J. Chem. Theory Comput., 2017,
     13, 1989-2009. DOI: 10.1021/acs.jctc.7b00118
   for GFN0-xTB:
   * P. Pracht, E. Caldeweyher, S. Ehlert, S. Grimme, ChemRxiv, 2019, preprint.
     DOI: 10.26434/chemrxiv.8326202.v1
   for GFN-FF:
   * S. Spicher and S. Grimme, Angew. Chem. Int. Ed., 2020, 59, 15665-15673.
     DOI: 10.1002/anie.202004239
   
   for ALPB and GBSA implicit solvation:
   * S. Ehlert, M. Stahn, S. Spicher, S. Grimme, J. Chem. Theory Comput.,
     2021, 17, 4250-4261. DOI: 10.1021/acs.jctc.1c00471
   
   for ddCOSMO and CPCM-X implicit solvation:
   * M. Stahn, S. Ehlert, S. Grimme, J. Phys. Chem. A,
     2023, XX, XXXX-XXXX. DOI: 10.1021/acs.jpca.3c04382
   
   for DFT-D4:
   * E. Caldeweyher, C. Bannwarth and S. Grimme, J. Chem. Phys., 2017,
     147, 034112. DOI: 10.1063/1.4993215
   * E. Caldeweyher, S. Ehlert, A. Hansen, H. Neugebauer, S. Spicher,
     C. Bannwarth and S. Grimme, J. Chem. Phys., 2019, 150, 154122.
     DOI: 10.1063/1.5090222
   * E. Caldeweyher, J.-M. Mewes, S. Ehlert and S. Grimme, Phys. Chem. Chem. Phys.
     2020, 22, 8499-8512. DOI: 10.1039/D0CP00502A
   
   for sTDA-xTB:
   * S. Grimme and C. Bannwarth, J. Chem. Phys., 2016, 145, 054103.
     DOI: 10.1063/1.4959605
   
   in the mass-spec context:
   * V. Asgeirsson, C. Bauer and S. Grimme, Chem. Sci., 2017, 8, 4879.
     DOI: 10.1039/c7sc00601b
   * J. Koopman and S. Grimme, ACS Omega 2019, 4, 12, 15120-15133.
     DOI: 10.1021/acsomega.9b02011
   
   for metadynamics refer to:
   * S. Grimme, J. Chem. Theory Comput., 2019, 155, 2847-2862
     DOI: 10.1021/acs.jctc.9b00143
   
   for SPH calculations refer to:
   * S. Spicher and S. Grimme, J. Chem. Theory Comput., 2021, 17, 1701-1714
     DOI: 10.1021/acs.jctc.0c01306
   
   for ONIOM refer to:
   * C. Plett, A. Katbashev, S. Ehlert, S. Grimme, M. Bursch,
     Phys. Chem. Chem. Phys., 2023, 25, 17860-17868. DOI: 10.1039/D3CP02178E
   
   for DIPRO refer to:
   * J. Kohn, N. Gildemeister, S. Grimme, D. Fazzi, A. Hansen,
     J. Chem. Phys., 2023, just accepted.
   
   for PTB refer to:
   * S. Grimme, M. Mueller, A. Hansen, J. Chem. Phys., 2023, 158, 124111.
     DOI: 10.1063/5.0137838
   
   with help from (in alphabetical order)
   P. Atkinson, C. Bannwarth, F. Bohle, G. Brandenburg, E. Caldeweyher
   M. Checinski, S. Dohm, S. Ehlert, S. Ehrlich, I. Gerasimov, C. Hölzer
   A. Katbashev, J. Kohn, J. Koopman, C. Lavigne, S. Lehtola, F. März, M. Müller,
   F. Musil, H. Neugebauer, J. Pisarek, C. Plett, P. Pracht, F. Pultar,
   J. Seibert, P. Shushkov, S. Spicher, M. Stahn, M. Steiner, T. Strunk,
   J. Stückrath, T. Rose, and J. Unsleber
   
 * started run on 2025/03/20 at 12:07:30.680     
   ID    Z sym.   atoms
    1    6 C      1-9, 11, 12, 14-21, 25-33, 35, 36, 38-45, 48-71
    2    7 N      10, 13, 34, 37
    3    8 O      22, 23, 46, 47
    4    5 B      24
    5    1 H      72-137

           -------------------------------------------------
          |                Calculation Setup                |
           -------------------------------------------------

          program call               : xtb Base1tBu.mol --opt --chrg 0 --uhf 1 --tight --spinpol --tblite
          coordinate file            : Base1tBu.mol
          omp threads                :                     8

########################################################################
[WARNING] Please study the warnings concerning your input carefully
-2- prog_main: Charge in sdf/mol input was overwritten
-1- prog_main_parseArguments: Unknown option '--tight' provided
########################################################################
repulsion energy          3.2090722321784E+00 Eh
dispersion energy         3.5956337761325E-03 Eh
interaction energy        0.0000000000000E+00 Eh
number of electrons       3.6100000000000E+02 e
integral cutoff           1.9311100799991E+01 bohr

------------------------------------------------------------
  cycle        total energy    energy error   density error
------------------------------------------------------------
      1     -194.1166666330  -1.9732933E+02   1.0151847E-01
      2     -191.9702656157   2.1464010E+00   7.6509153E-02
      3     -183.2465914748   8.7236741E+00   9.6160515E-02
      4     -187.5389681637  -4.2923767E+00   8.2993526E-02
      5     -194.3789747086  -6.8400065E+00   4.0672749E-02
      6     -194.8602747524  -4.8130004E-01   2.2051328E-02
      7     -194.7777188246   8.2555928E-02   2.3266824E-02
      8     -194.9051969849  -1.2747816E-01   1.5686825E-02
      9     -194.9503535852  -4.5156600E-02   1.1195889E-02
     10     -194.9490306811   1.3229041E-03   7.0118803E-03
     11     -194.9580932862  -9.0626051E-03   4.5528831E-03
     12     -194.9579370827   1.5620343E-04   5.5374407E-03
     13     -194.9611052353  -3.1681526E-03   4.2897596E-03
     14     -194.9639854276  -2.8801923E-03   2.8755858E-03
     15     -194.9654343746  -1.4489470E-03   1.6308700E-03
     16     -194.9657449243  -3.1054977E-04   1.1811120E-03
     17     -194.9656041242   1.4080017E-04   1.2375549E-03
     18     -194.9658439399  -2.3981575E-04   7.0271926E-04
     19     -194.9659752183  -1.3127838E-04   2.0507855E-04
     20     -194.9659658298   9.3884773E-06   2.1142731E-04
     21     -194.9659701855  -4.3556703E-06   1.9306662E-04
     22     -194.9659824282  -1.2242757E-05   4.7745732E-05
     23     -194.9659826163  -1.8810121E-07   3.4914744E-05
     24     -194.9659828491  -2.3278071E-07   1.8536130E-05
------------------------------------------------------------

electronic energy        -1.9817865071507E+02 Eh
total energy             -1.9496598284912E+02 Eh

 total:                                   2.628 sec
 - repulsion                              0.001 sec (  0%)
 - dispersion                             0.024 sec (  0%)
 - coulomb                                0.006 sec (  0%)
 - hamiltonian                            0.020 sec (  0%)
 - scc                                    2.577 sec ( 98%)

      ----------------------------------------------------------- 
     |                   =====================                   |
     |                        A N C O P T                        |
     |                   =====================                   |
     |               Approximate Normal Coordinate               |
     |                Rational Function Optimizer                |
      ----------------------------------------------------------- 
      ----------------------------------------------------------- 
     |                   =====================                   |
     |                        A N C O P T                        |
     |                   =====================                   |
     |               Approximate Normal Coordinate               |
     |                Rational Function Optimizer                |
      ----------------------------------------------------------- 

          ...................................................
          :                      SETUP                      :
          :.................................................:
          :   optimization level            normal          :
          :   max. optcycles                   411          :
          :   ANC micro-cycles                  20          :
          :   degrees of freedom               405          :
          :.................................................:
          :   RF solver                   davidson          :
          :   write xtbopt.log                true          :
          :   linear?                        false          :
          :   energy convergence         0.5000000E-05 Eh   :
          :   grad. convergence          0.1000000E-02 Eh/α :
          :   maxmium RF displ.          1.0000000          :
          :   Hlow (freq-cutoff)         0.1000000E-01      :
          :   Hmax (freq-cutoff)         5.0000000          :
          :   S6 in model hess.         20.0000000          :
          ...................................................

generating ANC from exact Hessian ...
Using Lindh-Hessian (1995)
 Shifting diagonal of input Hessian by    1.1664657831475000E-002
 Lowest  eigenvalues of input Hessian
    0.010000    0.010251    0.010624    0.011290    0.011469    0.000000
    0.000000    0.000000    0.000000    0.000000    0.000000    0.011707
    0.011746    0.011811    0.011912    0.011972    0.012037    0.012230
 Highest eigenvalues
    2.329077    2.462783    2.516340    2.516772    2.690956    2.703279


........................................................................
.............................. CYCLE    1 ..............................
........................................................................
------------------------------------------------------------
  cycle        total energy    energy error   density error
------------------------------------------------------------
      1     -194.9659541964  -1.9817862E+02   2.2950643E-04
      2     -194.9642253066   1.7288898E-03   1.8803487E-03
      3     -194.9657360505  -1.5107439E-03   7.1017762E-04
      4     -194.9659826585  -2.4660804E-04   2.9115298E-05
      5     -194.9659827591  -1.0061910E-07   2.2997010E-05
      6     -194.9659829311  -1.7203891E-07   9.8264280E-06
------------------------------------------------------------

 total:                                   0.799 sec
 * total energy  :  -194.9659829 Eh     change       -0.8203037E-07 Eh
   gradient norm :     0.6936680 Eh/α   predicted     0.0000000E+00 (-100.00%)
   displ. norm   :     0.6091860 α      lambda       -0.3478815E+00
   maximum displ.:     0.1518396 α      in ANC's #260, #285, #264, ...

........................................................................
.............................. CYCLE    2 ..............................
........................................................................
------------------------------------------------------------
  cycle        total energy    energy error   density error
------------------------------------------------------------
      1     -195.2133136930  -1.9835531E+02   9.2276235E-03
      2     -194.8565258774   3.5678782E-01   2.3776842E-02
      3     -195.2250189058  -3.6849303E-01   6.4444628E-03
      4     -195.1639560038   6.1062902E-02   1.1861970E-02
      5     -195.2056906982  -4.1734694E-02   8.3704434E-03
      6     -195.2273701110  -2.1679413E-02   4.2950186E-03
      7     -195.2277502015  -3.8009046E-04   3.3983948E-03
      8     -195.2306864011  -2.9361997E-03   2.5831548E-03
      9     -195.2308685532  -1.8215205E-04   2.4007652E-03
     10     -195.2316519546  -7.8340140E-04   1.7145445E-03
     11     -195.2317830670  -1.3111237E-04   1.3872560E-03
     12     -195.2318366012  -5.3534205E-05   1.2140680E-03
     13     -195.2321193491  -2.8274795E-04   6.8228025E-04
     14     -195.2322042451  -8.4895980E-05   2.4115145E-04
     15     -195.2322012512   2.9939004E-06   1.7827539E-04
     16     -195.2322090490  -7.7977757E-06   1.2049602E-04
     17     -195.2322095775  -5.2855515E-07   5.1652110E-05
     18     -195.2322098953  -3.1778856E-07   4.5820519E-05
     19     -195.2322105809  -6.8561636E-07   1.1734550E-05
------------------------------------------------------------

 total:                                   2.374 sec
 * total energy  :  -195.2322106 Eh     change       -0.2662276E+00 Eh
   gradient norm :     0.3457762 Eh/α   predicted    -0.2386278E+00 ( -10.37%)
   displ. norm   :     0.6757914 α      lambda       -0.2002623E+00
   maximum displ.:     0.1732634 α      in ANC's #260, #257, #285, ...

........................................................................
.............................. CYCLE    3 ..............................
........................................................................
------------------------------------------------------------
  cycle        total energy    energy error   density error
------------------------------------------------------------
      1     -195.3606168000  -1.9855720E+02   1.0176607E-02
      2     -195.0328371002   3.2777970E-01   2.3192995E-02
      3     -195.3789319374  -3.4609484E-01   5.8664066E-03
      4     -195.3335905414   4.5341396E-02   1.0088225E-02
      5     -195.3513607446  -1.7770203E-02   9.1357902E-03
      6     -195.3719665301  -2.0605785E-02   6.1930883E-03
      7     -195.3773131903  -5.3466602E-03   4.1553328E-03
      8     -195.3811839363  -3.8707460E-03   2.8038789E-03
      9     -195.3819440624  -7.6012608E-04   2.2159539E-03
     10     -195.3827095354  -7.6547301E-04   1.4619859E-03
     11     -195.3828200148  -1.1047940E-04   1.2381910E-03
     12     -195.3829247354  -1.0472067E-04   9.5504514E-04
     13     -195.3830481119  -1.2337649E-04   6.3451281E-04
     14     -195.3831226422  -7.4530259E-05   2.3915730E-04
     15     -195.3831327834  -1.0141217E-05   6.6495302E-05
     16     -195.3831320345   7.4890926E-07   8.8586250E-05
     17     -195.3831326137  -5.7923421E-07   4.7277227E-05
     18     -195.3831330985  -4.8472117E-07   7.0641330E-06
------------------------------------------------------------

 total:                                   2.493 sec
 * total energy  :  -195.3831331 Eh     change       -0.1509225E+00 Eh
   gradient norm :     0.1601044 Eh/α   predicted    -0.1458605E+00 (  -3.35%)
   displ. norm   :     0.7329722 α      lambda       -0.1019341E+00
   maximum displ.:     0.1651365 α      in ANC's #82, #85, #94, ...

........................................................................
.............................. CYCLE    4 ..............................
........................................................................
------------------------------------------------------------
  cycle        total energy    energy error   density error
------------------------------------------------------------
      1     -195.4599153832  -1.9866844E+02   7.9282900E-03
      2     -195.4149308648   4.4984518E-02   1.0285352E-02
      3     -195.4013361319   1.3594733E-02   1.2454418E-02
      4     -195.4411859269  -3.9849795E-02   7.4844575E-03
      5     -195.4549257667  -1.3739840E-02   4.2702046E-03
      6     -195.4597313609  -4.8055942E-03   4.0694634E-03
      7     -195.4596181887   1.1317221E-04   4.0456183E-03
      8     -195.4602097930  -5.9160426E-04   3.7009709E-03
      9     -195.4648248267  -4.6150337E-03   4.6785336E-04
     10     -195.4649120174  -8.7190773E-05   2.6909801E-04
     11     -195.4649342914  -2.2274013E-05   1.6049504E-04
     12     -195.4649320016   2.2898429E-06   1.4339880E-04
     13     -195.4649262799   5.7216992E-06   1.5512569E-04
     14     -195.4649334972  -7.2172779E-06   8.4644605E-05
     15     -195.4649353853  -1.8881424E-06   3.9195531E-05
     16     -195.4649357553  -3.6998330E-07   1.5846644E-05
------------------------------------------------------------

 total:                                   6.855 sec
 * total energy  :  -195.4649358 Eh     change       -0.8180266E-01 Eh
   gradient norm :     0.1047509 Eh/α   predicted    -0.7834922E-01 (  -4.22%)
   displ. norm   :     0.7744659 α      lambda       -0.6567612E-01
   maximum displ.:     0.1946128 α      in ANC's #82, #30, #22, ...

........................................................................
.............................. CYCLE    5 ..............................
........................................................................
------------------------------------------------------------
  cycle        total energy    energy error   density error
------------------------------------------------------------
      1     -195.5172413131  -1.9871152E+02   6.7550611E-03
      2     -195.4930433525   2.4197961E-02   8.6533515E-03
      3     -195.4643985354   2.8644817E-02   1.1956587E-02
      4     -195.5061342403  -4.1735705E-02   5.6809247E-03
      5     -195.5175251204  -1.1390880E-02   2.1824113E-03
      6     -195.5186743086  -1.1491882E-03   1.4143623E-03
      7     -195.5196021717  -9.2786315E-04   5.5751936E-04
      8     -195.5194722815   1.2989021E-04   7.8401052E-04
      9     -195.5196233523  -1.5107083E-04   3.7930823E-04
     10     -195.5196565063  -3.3154000E-05   2.5217576E-04
     11     -195.5196810021  -2.4495734E-05   5.4725028E-05
     12     -195.5196811338  -1.3173482E-07   5.3662370E-05
     13     -195.5196819547  -8.2093922E-07   1.5994975E-05
------------------------------------------------------------

 total:                                   4.332 sec
 * total energy  :  -195.5196820 Eh     change       -0.5474620E-01 Eh
   gradient norm :     0.0795115 Eh/α   predicted    -0.5253427E-01 (  -4.04%)
   displ. norm   :     0.8106878 α      lambda       -0.4737337E-01
   maximum displ.:     0.2286354 α      in ANC's #30, #22, #82, ...

........................................................................
.............................. CYCLE    6 ..............................
........................................................................
------------------------------------------------------------
  cycle        total energy    energy error   density error
------------------------------------------------------------
      1     -195.5593669722  -1.9873728E+02   5.5938045E-03
      2     -195.5393731227   1.9993849E-02   7.6469510E-03
      3     -195.5111382569   2.8234866E-02   1.1316095E-02
      4     -195.5456016595  -3.4463403E-02   5.3362891E-03
      5     -195.5565877779  -1.0986118E-02   2.5884232E-03
      6     -195.5603114233  -3.7236453E-03   5.8715616E-04
      7     -195.5604359620  -1.2453878E-04   2.8524200E-04
      8     -195.5604544646  -1.8502586E-05   1.9465524E-04
      9     -195.5604603935  -5.9288500E-06   1.0903504E-04
     10     -195.5604566769   3.7165665E-06   1.3607590E-04
     11     -195.5604638832  -7.2063179E-06   2.6512060E-05
     12     -195.5604639438  -6.0605970E-08   1.6808734E-05
------------------------------------------------------------

 total:                                   4.053 sec
 * total energy  :  -195.5604639 Eh     change       -0.4078199E-01 Eh
   gradient norm :     0.0619162 Eh/α   predicted    -0.3925397E-01 (  -3.75%)
   displ. norm   :     0.8438352 α      lambda       -0.3719719E-01
   maximum displ.:     0.2536697 α      in ANC's #22, #30, #24, ...

........................................................................
.............................. CYCLE    7 ..............................
........................................................................
------------------------------------------------------------
  cycle        total energy    energy error   density error
------------------------------------------------------------
      1     -195.5928927445  -1.9875125E+02   4.5216911E-03
      2     -195.5851013747   7.7913697E-03   5.0532305E-03
      3     -195.5679172061   1.7184169E-02   7.9354864E-03
      4     -195.5850463576  -1.7129151E-02   3.8611433E-03
      5     -195.5876128835  -2.5665260E-03   3.6140225E-03
      6     -195.5928986456  -5.2857621E-03   1.0444689E-03
      7     -195.5932899387  -3.9129308E-04   3.9232480E-04
      8     -195.5933364444  -4.6505679E-05   1.3533451E-04
      9     -195.5933390681  -2.6237149E-06   8.7584525E-05
     10     -195.5933414803  -2.4121966E-06   4.2011324E-05
     11     -195.5933415552  -7.4944978E-08   3.1615843E-05
     12     -195.5933417704  -2.1512540E-07   1.8294847E-05
------------------------------------------------------------

 total:                                   3.803 sec
 * total energy  :  -195.5933418 Eh     change       -0.3287783E-01 Eh
   gradient norm :     0.0495287 Eh/α   predicted    -0.3184191E-01 (  -3.15%)
   displ. norm   :     0.8687056 α      lambda       -0.3126072E-01
   maximum displ.:     0.2835158 α      in ANC's #22, #30, #24, ...

........................................................................
.............................. CYCLE    8 ..............................
........................................................................
------------------------------------------------------------
  cycle        total energy    energy error   density error
------------------------------------------------------------
      1     -195.6205479054  -1.9876329E+02   3.9785972E-03
      2     -195.6157038806   4.8440248E-03   4.1382028E-03
      3     -195.5778043970   3.7899484E-02   1.0541455E-02
      4     -195.6140074624  -3.6203065E-02   3.6033547E-03
      5     -195.6187673435  -4.7598811E-03   2.0686927E-03
      6     -195.6202544260  -1.4870825E-03   1.2377439E-03
      7     -195.6207465196  -4.9209359E-04   5.5865133E-04
      8     -195.6208558072  -1.0928754E-04   1.3866267E-04
      9     -195.6208588543  -3.0471521E-06   7.6828384E-05
     10     -195.6208584812   3.7313367E-07   7.8083169E-05
     11     -195.6208600999  -1.6187681E-06   3.9468199E-05
     12     -195.6208605228  -4.2280990E-07   1.4774391E-05
------------------------------------------------------------

 total:                                  11.655 sec
 * total energy  :  -195.6208605 Eh     change       -0.2751875E-01 Eh
   gradient norm :     0.0431359 Eh/α   predicted    -0.2742586E-01 (  -0.34%)
   displ. norm   :     0.8929938 α      lambda       -0.2766165E-01
   maximum displ.:     0.2863401 α      in ANC's #22, #30, #24, ...

........................................................................
.............................. CYCLE    9 ..............................
........................................................................
------------------------------------------------------------
  cycle        total energy    energy error   density error
------------------------------------------------------------
      1     -195.6423610394  -1.9876641E+02   3.8324625E-03
      2     -195.6044348660   3.7926173E-02   9.9306655E-03
      3     -195.6337715332  -2.9336667E-02   5.1122434E-03
      4     -195.6327868740   9.8465918E-04   4.6117528E-03
      5     -195.6427336900  -9.9468161E-03   1.1800365E-03
      6     -195.6431955698  -4.6187973E-04   5.0328496E-04
      7     -195.6432953146  -9.9744808E-05   2.3661050E-04
      8     -195.6433025215  -7.2069421E-06   1.6526102E-04
      9     -195.6433085418  -6.0202409E-06   8.3691122E-05
     10     -195.6433105062  -1.9644592E-06   2.9322803E-05
     11     -195.6433105070  -7.6872197E-10   2.8720043E-05
     12     -195.6433106958  -1.8886107E-07   1.6934281E-05
------------------------------------------------------------

 total:                                  13.682 sec
 * total energy  :  -195.6433107 Eh     change       -0.2245017E-01 Eh
   gradient norm :     0.0537756 Eh/α   predicted    -0.2486005E-01 (  10.73%)
   displ. norm   :     0.8567778 α      lambda       -0.2414371E-01
   maximum displ.:     0.3056931 α      in ANC's #22, #30, #24, ...

........................................................................
.............................. CYCLE   10 ..............................
........................................................................
------------------------------------------------------------
  cycle        total energy    energy error   density error
------------------------------------------------------------
      1     -195.6624022824  -1.9877354E+02   2.9828375E-03
      2     -195.6595924011   2.8098813E-03   3.2188688E-03
      3     -195.6418899374   1.7702464E-02   7.1395271E-03
      4     -195.6610127178  -1.9122780E-02   1.8360062E-03
      5     -195.6618296022  -8.1688442E-04   1.2705608E-03
      6     -195.6624662356  -6.3663339E-04   4.4747072E-04
      7     -195.6625610769  -9.4841368E-05   1.2922322E-04
      8     -195.6625664724  -5.3955026E-06   6.4064041E-05
      9     -195.6625671503  -6.7781951E-07   2.7801524E-05
     10     -195.6625671213   2.8978832E-08   2.6420441E-05
     11     -195.6625672947  -1.7347489E-07   1.2678529E-05
------------------------------------------------------------

 total:                                  10.068 sec
 * total energy  :  -195.6625673 Eh     change       -0.1925660E-01 Eh
   gradient norm :     0.0476408 Eh/α   predicted    -0.2093342E-01 (   8.71%)
   displ. norm   :     0.8486226 α      lambda       -0.2084531E-01
   maximum displ.:     0.2983693 α      in ANC's #22, #24, #30, ...

........................................................................
.............................. CYCLE   11 ..............................
........................................................................
------------------------------------------------------------
  cycle        total energy    energy error   density error
------------------------------------------------------------
      1     -195.6776357640  -1.9876734E+02   3.1212396E-03
      2     -195.6769117932   7.2397076E-04   2.4225525E-03
      3     -195.6588650526   1.8046741E-02   6.7593716E-03
      4     -195.6661614447  -7.2963921E-03   5.5082711E-03
      5     -195.6765638305  -1.0402386E-02   1.7346792E-03
      6     -195.6776645916  -1.1007611E-03   7.8187502E-04
      7     -195.6779715388  -3.0694724E-04   2.0686799E-04
      8     -195.6779800015  -8.4626824E-06   1.1964767E-04
      9     -195.6779849520  -4.9505181E-06   3.7037263E-05
     10     -195.6779849587  -6.6722521E-09   3.0514263E-05
     11     -195.6779852482  -2.8950382E-07   1.4621450E-05
------------------------------------------------------------

 total:                                  12.104 sec
 * total energy  :  -195.6779852 Eh     change       -0.1541795E-01 Eh
   gradient norm :     0.0549402 Eh/α   predicted    -0.1792866E-01 (  16.28%)
   displ. norm   :     0.8160959 α      lambda       -0.1743704E-01
   maximum displ.:     0.2881173 α      in ANC's #22, #24, #34, ...

........................................................................
.............................. CYCLE   12 ..............................
........................................................................
------------------------------------------------------------
  cycle        total energy    energy error   density error
------------------------------------------------------------
      1     -195.6920314871  -1.9877257E+02   2.4845320E-03
      2     -195.6892950729   2.7364142E-03   2.8540170E-03
      3     -195.6786947110   1.0600362E-02   5.8245000E-03
      4     -195.6819674786  -3.2727676E-03   4.9386735E-03
      5     -195.6918724790  -9.9050004E-03   9.8268884E-04
      6     -195.6922452310  -3.7275194E-04   3.4245306E-04
      7     -195.6922971323  -5.1901304E-05   1.5329256E-04
      8     -195.6923042704  -7.1381384E-06   7.0016129E-05
      9     -195.6923033214   9.4904271E-07   7.8202783E-05
     10     -195.6923056120  -2.2906584E-06   2.0058437E-05
     11     -195.6923056520  -3.9944609E-08   1.3837795E-05
------------------------------------------------------------

 total:                                  11.842 sec
 * total energy  :  -195.6923057 Eh     change       -0.1432040E-01 Eh
   gradient norm :     0.0320184 Eh/α   predicted    -0.1452517E-01 (   1.43%)
   displ. norm   :     0.8471828 α      lambda       -0.1443721E-01
   maximum displ.:     0.3144500 α      in ANC's #22, #24, #18, ...

........................................................................
.............................. CYCLE   13 ..............................
........................................................................
------------------------------------------------------------
  cycle        total energy    energy error   density error
------------------------------------------------------------
      1     -195.7042502446  -1.9877022E+02   2.5302968E-03
      2     -195.7013318592   2.9183854E-03   3.1277345E-03
      3     -195.6889789759   1.2352883E-02   6.2265803E-03
      4     -195.7012454530  -1.2266477E-02   2.3522645E-03
      5     -195.7032860587  -2.0406058E-03   1.5274763E-03
      6     -195.7043353225  -1.0492638E-03   2.4696987E-04
      7     -195.7043565103  -2.1187744E-05   8.1019057E-05
      8     -195.7043571863  -6.7604117E-07   6.2963860E-05
      9     -195.7043577803  -5.9401631E-07   4.6048797E-05
     10     -195.7043582509  -4.7063151E-07   2.3414134E-05
     11     -195.7043584026  -1.5169280E-07   1.0972620E-05
------------------------------------------------------------

 total:                                  12.163 sec
 * total energy  :  -195.7043584 Eh     change       -0.1205275E-01 Eh
   gradient norm :     0.0294281 Eh/α   predicted    -0.1239955E-01 (   2.88%)
   displ. norm   :     0.8568541 α      lambda       -0.1205782E-01
   maximum displ.:     0.3043042 α      in ANC's #22, #24, #18, ...

........................................................................
.............................. CYCLE   14 ..............................
........................................................................
------------------------------------------------------------
  cycle        total energy    energy error   density error
------------------------------------------------------------
      1     -195.7146400144  -1.9877137E+02   2.4645373E-03
      2     -195.7005935496   1.4046465E-02   6.1954181E-03
      3     -195.7102769735  -9.6834239E-03   3.5416243E-03
      4     -195.7108041878  -5.2721428E-04   2.9848503E-03
      5     -195.7141460357  -3.3418479E-03   1.2424128E-03
      6     -195.7148425759  -6.9654018E-04   4.1239887E-04
      7     -195.7148885818  -4.6005923E-05   2.4180028E-04
      8     -195.7149049773  -1.6395538E-05   1.2386172E-04
      9     -195.7149102434  -5.2660215E-06   3.5702769E-05
     10     -195.7149104677  -2.2438547E-07   1.6768514E-05
------------------------------------------------------------

 total:                                   9.003 sec
 * total energy  :  -195.7149105 Eh     change       -0.1055207E-01 Eh
   gradient norm :     0.0225245 Eh/α   predicted    -0.1045533E-01 (  -0.92%)
   displ. norm   :     0.8656870 α      lambda       -0.1005586E-01
   maximum displ.:     0.3001000 α      in ANC's #22, #19, #18, ...

........................................................................
.............................. CYCLE   15 ..............................
........................................................................
------------------------------------------------------------
  cycle        total energy    energy error   density error
------------------------------------------------------------
      1     -195.7236014438  -1.9876702E+02   2.5866350E-03
      2     -195.7124155059   1.1185938E-02   5.4323337E-03
      3     -195.7147118395  -2.2963336E-03   4.9526224E-03
      4     -195.7179001038  -3.1882643E-03   3.3700518E-03
      5     -195.7229284814  -5.0283776E-03   1.3738742E-03
      6     -195.7237718088  -8.4332737E-04   2.7326571E-04
      7     -195.7237993676  -2.7558800E-05   9.9500781E-05
      8     -195.7238013616  -1.9939965E-06   6.4343931E-05
      9     -195.7238015143  -1.5275810E-07   4.9649141E-05
     10     -195.7238016987  -1.8435816E-07   3.1184188E-05
     11     -195.7238019770  -2.7833590E-07   1.2530360E-05
------------------------------------------------------------

 total:                                  10.960 sec
 * total energy  :  -195.7238020 Eh     change       -0.8891509E-02 Eh
   gradient norm :     0.0215721 Eh/α   predicted    -0.8795952E-02 (  -1.07%)
   displ. norm   :     0.8774742 α      lambda       -0.9251637E-02
   maximum displ.:     0.2731758 α      in ANC's #22, #18, #19, ...

........................................................................
.............................. CYCLE   16 ..............................
........................................................................
------------------------------------------------------------
  cycle        total energy    energy error   density error
------------------------------------------------------------
      1     -195.7307733999  -1.9877015E+02   2.9354446E-03
      2     -195.7075124666   2.3260933E-02   7.7702105E-03
      3     -195.7273376563  -1.9825190E-02   3.4013979E-03
      4     -195.7267917617   5.4589463E-04   3.0619722E-03
      5     -195.7302746603  -3.4828986E-03   1.4831993E-03
      6     -195.7311568444  -8.8218412E-04   5.9872539E-04
      7     -195.7311861493  -2.9304970E-05   5.0924539E-04
      8     -195.7312769992  -9.0849822E-05   1.4925173E-04
      9     -195.7312841933  -7.1941329E-06   3.0062236E-05
     10     -195.7312842677  -7.4359860E-08   2.2895611E-05
     11     -195.7312843653  -9.7637724E-08   1.6117847E-05
------------------------------------------------------------

 total:                                  10.038 sec
 * total energy  :  -195.7312844 Eh     change       -0.7482388E-02 Eh
   gradient norm :     0.0347655 Eh/α   predicted    -0.8187517E-02 (   9.42%)
   displ. norm   :     0.8238201 α      lambda       -0.8233066E-02
   maximum displ.:     0.2468356 α      in ANC's #22, #19, #18, ...

........................................................................
.............................. CYCLE   17 ..............................
........................................................................
------------------------------------------------------------
  cycle        total energy    energy error   density error
------------------------------------------------------------
      1     -195.7377607005  -1.9876767E+02   2.7179871E-03
      2     -195.7364653170   1.2953835E-03   2.3854303E-03
      3     -195.7322317695   4.2335475E-03   3.5245436E-03
      4     -195.7184809034   1.3750866E-02   6.7153134E-03
      5     -195.7375705803  -1.9089677E-02   9.9023677E-04
      6     -195.7379034401  -3.3285974E-04   3.4679247E-04
      7     -195.7379494069  -4.5966769E-05   1.7505851E-04
      8     -195.7379542893  -4.8824824E-06   1.3256718E-04
      9     -195.7379566435  -2.3541611E-06   9.2021920E-05
     10     -195.7379587597  -2.1162095E-06   4.6041225E-05
     11     -195.7379594740  -7.1434320E-07   1.2393417E-05
------------------------------------------------------------

 total:                                  11.469 sec
 * total energy  :  -195.7379595 Eh     change       -0.6675109E-02 Eh
   gradient norm :     0.0220193 Eh/α   predicted    -0.6910352E-02 (   3.52%)
   displ. norm   :     0.8232161 α      lambda       -0.6555646E-02
   maximum displ.:     0.2264687 α      in ANC's #22, #19, #8, ...

........................................................................
.............................. CYCLE   18 ..............................
........................................................................
------------------------------------------------------------
  cycle        total energy    energy error   density error
------------------------------------------------------------
      1     -195.7432097812  -1.9876149E+02   2.8170238E-03
      2     -195.7191989085   2.4010873E-02   7.7622376E-03
      3     -195.7342058238  -1.5006915E-02   5.0193690E-03
      4     -195.7361911558  -1.9853321E-03   3.8482905E-03
      5     -195.7429244971  -6.7333412E-03   1.0921580E-03
      6     -195.7435035634  -5.7906629E-04   2.4941824E-04
      7     -195.7435177678  -1.4204401E-05   1.4837359E-04
      8     -195.7435233233  -5.5555052E-06   8.3104169E-05
      9     -195.7435237877  -4.6437890E-07   6.0888266E-05
     10     -195.7435243433  -5.5567094E-07   3.4596426E-05
     11     -195.7435246367  -2.9340941E-07   1.4716017E-05
------------------------------------------------------------

 total:                                  13.376 sec
 * total energy  :  -195.7435246 Eh     change       -0.5565163E-02 Eh
   gradient norm :     0.0195048 Eh/α   predicted    -0.5499156E-02 (  -1.19%)
   displ. norm   :     0.8267971 α      lambda       -0.5771935E-02
   maximum displ.:     0.2447116 α      in ANC's #14, #19, #8, ...

........................................................................
.............................. CYCLE   19 ..............................
........................................................................
------------------------------------------------------------
  cycle        total energy    energy error   density error
------------------------------------------------------------
      1     -195.7483795895  -1.9876973E+02   2.6749671E-03
      2     -195.7464081639   1.9714256E-03   2.7531652E-03
      3     -195.7223832533   2.4024911E-02   7.9490296E-03
      4     -195.7317450723  -9.3618190E-03   6.1829108E-03
      5     -195.7479742168  -1.6229144E-02   1.0290240E-03
      6     -195.7483869519  -4.1273507E-04   5.2323325E-04
      7     -195.7484687753  -8.1823366E-05   2.8052741E-04
      8     -195.7484946728  -2.5897530E-05   1.0484547E-04
      9     -195.7484978266  -3.1537734E-06   4.5555092E-05
     10     -195.7484978167   9.8449107E-09   3.3495074E-05
     11     -195.7484982127  -3.9597180E-07   9.2599140E-06
------------------------------------------------------------

 total:                                  14.852 sec
 * total energy  :  -195.7484982 Eh     change       -0.4973576E-02 Eh
   gradient norm :     0.0161664 Eh/α   predicted    -0.4858775E-02 (  -2.31%)
   displ. norm   :     0.8454934 α      lambda       -0.5282751E-02
   maximum displ.:     0.2657432 α      in ANC's #14, #8, #19, ...

........................................................................
.............................. CYCLE   20 ..............................
........................................................................
------------------------------------------------------------
  cycle        total energy    energy error   density error
------------------------------------------------------------
      1     -195.7525300390  -1.9876573E+02   3.0248465E-03
      2     -195.7495518922   2.9781468E-03   3.1586892E-03
      3     -195.7248682321   2.4683660E-02   8.0662880E-03
      4     -195.7417913293  -1.6923097E-02   4.8109787E-03
      5     -195.7517250787  -9.9337494E-03   1.4444027E-03
      6     -195.7525462277  -8.2114900E-04   5.8305262E-04
      7     -195.7525200565   2.6171198E-05   6.2146735E-04
      8     -195.7525521262  -3.2069687E-05   5.3632101E-04
      9     -195.7526327852  -8.0659056E-05   2.7220526E-04
     10     -195.7526613338  -2.8548607E-05   3.5143811E-05
     11     -195.7526614388  -1.0501236E-07   3.2655597E-05
     12     -195.7526616501  -2.1129816E-07   1.9391427E-05
------------------------------------------------------------

 total:                                  14.908 sec
 * total energy  :  -195.7526617 Eh     change       -0.4163437E-02 Eh
   gradient norm :     0.0255449 Eh/α   predicted    -0.4529589E-02 (   8.79%)
   displ. norm   :     0.7752366 α      lambda       -0.5073588E-02
   maximum displ.:     0.2876193 α      in ANC's #14, #8, #31, ...
 * RMSD in coord.:     1.1210546 α      energy gain  -0.7866788E+00 Eh

generating ANC from exact Hessian ...
Using Lindh-Hessian (1995)
 Shifting diagonal of input Hessian by    1.0425061321136945E-002
 Lowest  eigenvalues of input Hessian
    0.010000    0.000000    0.000000    0.000000    0.000000    0.000000
    0.000000    0.010463    0.010520    0.010567    0.010629    0.010723
    0.010843    0.010877    0.010898    0.010960    0.011221    0.011230
 Highest eigenvalues
    2.080679    2.082146    2.187310    2.193992    2.196232    2.201280


........................................................................
.............................. CYCLE   21 ..............................
........................................................................
------------------------------------------------------------
  cycle        total energy    energy error   density error
------------------------------------------------------------
      1     -195.7560877491  -1.9877402E+02   2.6987138E-03
      2     -195.7249778119   3.1109937E-02   8.7073980E-03
      3     -195.7477563864  -2.2778575E-02   4.7694921E-03
      4     -195.7506073631  -2.8509767E-03   3.5704594E-03
      5     -195.7559820172  -5.3746541E-03   1.0126660E-03
      6     -195.7563221370  -3.4011979E-04   5.9536077E-04
      7     -195.7564224032  -1.0026623E-04   3.2623281E-04
      8     -195.7564614169  -3.9013683E-05   9.7042397E-05
      9     -195.7564624875  -1.0705689E-06   7.3779556E-05
     10     -195.7564639401  -1.4526654E-06   3.6997903E-05
     11     -195.7564643854  -4.4524026E-07   1.4924838E-05
------------------------------------------------------------

 total:                                  12.589 sec
 * total energy  :  -195.7564644 Eh     change       -0.3802735E-02 Eh
   gradient norm :     0.0210085 Eh/α   predicted     0.0000000E+00 (-100.00%)
   displ. norm   :     0.3404674 α      lambda       -0.2740846E-02
   maximum displ.:     0.1180725 α      in ANC's #9, #6, #27, ...

........................................................................
.............................. CYCLE   22 ..............................
........................................................................
------------------------------------------------------------
  cycle        total energy    energy error   density error
------------------------------------------------------------
      1     -195.7587894404  -1.9878029E+02   1.4994424E-03
      2     -195.7582996513   4.8978917E-04   1.3507296E-03
      3     -195.7413886104   1.6911041E-02   6.4171035E-03
      4     -195.7585543554  -1.7165745E-02   7.2527711E-04
      5     -195.7586327710  -7.8415599E-05   6.1942881E-04
      6     -195.7587918009  -1.5902994E-04   2.1441450E-04
      7     -195.7587873938   4.4070723E-06   2.2738817E-04
      8     -195.7587981080  -1.0714131E-05   1.5836002E-04
      9     -195.7588067010  -8.5930329E-06   5.8861752E-05
     10     -195.7588080688  -1.3678019E-06   7.5649967E-06
     11     -195.7588080873  -1.8448105E-08   3.1547736E-06
------------------------------------------------------------

 total:                                  14.131 sec
 * total energy  :  -195.7588081 Eh     change       -0.2343702E-02 Eh
   gradient norm :     0.0095172 Eh/α   predicted    -0.1529318E-02 ( -34.75%)
   displ. norm   :     0.7314681 α      lambda       -0.4182268E-02
   maximum displ.:     0.2618587 α      in ANC's #9, #27, #6, ...

........................................................................
.............................. CYCLE   23 ..............................
........................................................................
------------------------------------------------------------
  cycle        total energy    energy error   density error
------------------------------------------------------------
      1     -195.7622245291  -1.9878484E+02   2.8938145E-03
      2     -195.7612262530   9.9827615E-04   2.3934010E-03
      3     -195.7183575814   4.2868672E-02   1.0145551E-02
      4     -195.7606080572  -4.2250476E-02   1.9297137E-03
      5     -195.7617572024  -1.1491452E-03   1.1293993E-03
      6     -195.7621412864  -3.8408397E-04   5.9436077E-04
      7     -195.7622712262  -1.2993980E-04   2.2087972E-04
      8     -195.7622826032  -1.1376981E-05   1.4136244E-04
      9     -195.7622902425  -7.6393169E-06   5.2742123E-05
     10     -195.7622898856   3.5685443E-07   5.7734373E-05
     11     -195.7622908643  -9.7861866E-07   2.9834226E-05
     12     -195.7622911159  -2.5168791E-07   1.3934364E-05
------------------------------------------------------------

 total:                                  14.777 sec
 * total energy  :  -195.7622911 Eh     change       -0.3483029E-02 Eh
   gradient norm :     0.0177862 Eh/α   predicted    -0.3210693E-02 (  -7.82%)
   displ. norm   :     0.7770573 α      lambda       -0.3577885E-02
   maximum displ.:     0.2910103 α      in ANC's #9, #27, #11, ...

........................................................................
.............................. CYCLE   24 ..............................
........................................................................
------------------------------------------------------------
  cycle        total energy    energy error   density error
------------------------------------------------------------
      1     -195.7654342952  -1.9878495E+02   2.8347633E-03
      2     -195.7562743112   9.1599840E-03   4.8812791E-03
      3     -195.7449547945   1.1319517E-02   7.0684111E-03
      4     -195.7644398705  -1.9485076E-02   1.6052195E-03
      5     -195.7651829749  -7.4310437E-04   9.0157988E-04
      6     -195.7654328965  -2.4992155E-04   5.3379178E-04
      7     -195.7654160948   1.6801665E-05   5.8087285E-04
      8     -195.7654237054  -7.6106294E-06   5.4719136E-04
      9     -195.7655340746  -1.1036913E-04   1.3138515E-04
     10     -195.7655407782  -6.7036456E-06   1.3139300E-05
     11     -195.7655407992  -2.0953308E-08   9.6228721E-06
------------------------------------------------------------

 total:                                  13.049 sec
 * total energy  :  -195.7655408 Eh     change       -0.3249683E-02 Eh
   gradient norm :     0.0237634 Eh/α   predicted    -0.2869138E-02 ( -11.71%)
   displ. norm   :     0.8178160 α      lambda       -0.3958542E-02
   maximum displ.:     0.3154654 α      in ANC's #9, #11, #6, ...

........................................................................
.............................. CYCLE   25 ..............................
........................................................................
------------------------------------------------------------
  cycle        total energy    energy error   density error
------------------------------------------------------------
      1     -195.7690413982  -1.9878633E+02   2.7993518E-03
      2     -195.7641249085   4.9164897E-03   3.8332233E-03
      3     -195.7416456347   2.2479274E-02   8.1208430E-03
      4     -195.7677531139  -2.6107479E-02   1.7957949E-03
      5     -195.7687401641  -9.8705013E-04   9.3515213E-04
      6     -195.7690128083  -2.7264419E-04   4.9491353E-04
      7     -195.7691134071  -1.0059887E-04   1.7254627E-04
      8     -195.7691120786   1.3284851E-06   1.8272238E-04
      9     -195.7691254052  -1.3326539E-05   3.4534366E-05
     10     -195.7691249359   4.6929625E-07   4.5279759E-05
     11     -195.7691255508  -6.1486793E-07   2.4568097E-05
     12     -195.7691257514  -2.0059454E-07   9.7056466E-06
------------------------------------------------------------

 total:                                  11.440 sec
 * total energy  :  -195.7691258 Eh     change       -0.3584952E-02 Eh
   gradient norm :     0.0179763 Eh/α   predicted    -0.3303053E-02 (  -7.86%)
   displ. norm   :     0.8340813 α      lambda       -0.3852835E-02
   maximum displ.:     0.3301144 α      in ANC's #9, #11, #6, ...

........................................................................
.............................. CYCLE   26 ..............................
........................................................................
------------------------------------------------------------
  cycle        total energy    energy error   density error
------------------------------------------------------------
      1     -195.7725044622  -1.9878952E+02   2.8292826E-03
      2     -195.7663363119   6.1681502E-03   4.0997843E-03
      3     -195.7486264874   1.7709825E-02   7.4911460E-03
      4     -195.7716164606  -2.2989973E-02   1.5432058E-03
      5     -195.7722101567  -5.9369611E-04   9.2488914E-04
      6     -195.7724809876  -2.7083094E-04   5.5249132E-04
      7     -195.7724632647   1.7722933E-05   6.0013984E-04
      8     -195.7724571612   6.1034886E-06   5.9725214E-04
      9     -195.7725824577  -1.2529642E-04   1.7569555E-04
     10     -195.7725947010  -1.2243329E-05   2.1005070E-05
     11     -195.7725948106  -1.0957351E-07   1.3213364E-05
------------------------------------------------------------

 total:                                  11.571 sec
 * total energy  :  -195.7725948 Eh     change       -0.3469059E-02 Eh
   gradient norm :     0.0124353 Eh/α   predicted    -0.3266616E-02 (  -5.84%)
   displ. norm   :     0.8425573 α      lambda       -0.3513011E-02
   maximum displ.:     0.3425980 α      in ANC's #9, #11, #6, ...

........................................................................
.............................. CYCLE   27 ..............................
........................................................................
------------------------------------------------------------
  cycle        total energy    energy error   density error
------------------------------------------------------------
      1     -195.7756526297  -1.9879430E+02   2.8146862E-03
      2     -195.7642684637   1.1384166E-02   5.3722618E-03
      3     -195.7576846202   6.5838435E-03   6.6064897E-03
      4     -195.7751079683  -1.7423348E-02   1.1722002E-03
      5     -195.7755122085  -4.0424017E-04   7.2422490E-04
      6     -195.7756950905  -1.8288199E-04   4.5188475E-04
      7     -195.7757063962  -1.1305709E-05   4.3482410E-04
      8     -195.7756913744   1.5021811E-05   4.6237053E-04
      9     -195.7757590729  -6.7698510E-05   1.9604147E-04
     10     -195.7757736536  -1.4580675E-05   1.8878431E-05
     11     -195.7757737437  -9.0181345E-08   7.7405504E-06
------------------------------------------------------------

 total:                                  10.214 sec
 * total energy  :  -195.7757737 Eh     change       -0.3178933E-02 Eh
   gradient norm :     0.0102151 Eh/α   predicted    -0.3003454E-02 (  -5.52%)
   displ. norm   :     0.8656712 α      lambda       -0.3226483E-02
   maximum displ.:     0.3562612 α      in ANC's #9, #11, #6, ...

........................................................................
.............................. CYCLE   28 ..............................
........................................................................
------------------------------------------------------------
  cycle        total energy    energy error   density error
------------------------------------------------------------
      1     -195.7786597317  -1.9879590E+02   2.7849407E-03
      2     -195.7772960061   1.3637256E-03   2.3758709E-03
      3     -195.7447013091   3.2594697E-02   8.4955002E-03
      4     -195.7766251890  -3.1923880E-02   2.0618072E-03
      5     -195.7782760196  -1.6508306E-03   1.0081526E-03
      6     -195.7786150469  -3.3902737E-04   5.8383104E-04
      7     -195.7785249745   9.0072445E-05   7.5062130E-04
      8     -195.7785233151   1.6594387E-06   7.4139236E-04
      9     -195.7787191931  -1.9587802E-04   1.5149867E-04
     10     -195.7787227755  -3.5824563E-06   1.3216069E-04
     11     -195.7787277228  -4.9472301E-06   5.4562656E-05
     12     -195.7787287934  -1.0705985E-06   1.2598991E-05
     13     -195.7787284342   3.5918126E-07   3.3801195E-05
     14     -195.7787287040  -2.6986487E-07   1.9509007E-05
------------------------------------------------------------

 total:                                  13.722 sec
 * total energy  :  -195.7787287 Eh     change       -0.2954960E-02 Eh
   gradient norm :     0.0126258 Eh/α   predicted    -0.2822230E-02 (  -4.49%)
   displ. norm   :     0.8539169 α      lambda       -0.3330254E-02
   maximum displ.:     0.3523012 α      in ANC's #9, #11, #6, ...

........................................................................
.............................. CYCLE   29 ..............................
........................................................................
------------------------------------------------------------
  cycle        total energy    energy error   density error
------------------------------------------------------------
      1     -195.7812202314  -1.9881206E+02   2.7045583E-03
      2     -195.7654281850   1.5792046E-02   6.2420949E-03
      3     -195.7714387035  -6.0105186E-03   4.9945235E-03
      4     -195.7800193824  -8.5806788E-03   1.6154952E-03
      5     -195.7809864884  -9.6710598E-04   9.6624655E-04
      6     -195.7813646624  -3.7817407E-04   3.7411820E-04
      7     -195.7813629013   1.7611559E-06   3.8258677E-04
      8     -195.7813698158  -6.9145366E-06   3.4867509E-04
      9     -195.7814038169  -3.4001115E-05   1.8504505E-04
     10     -195.7814165763  -1.2759412E-05   4.1614996E-05
     11     -195.7814171063  -5.2998649E-07   1.8756953E-05
------------------------------------------------------------

 total:                                  11.559 sec
 * total energy  :  -195.7814171 Eh     change       -0.2688402E-02 Eh
   gradient norm :     0.0200013 Eh/α   predicted    -0.2879296E-02 (   7.10%)
   displ. norm   :     0.8497081 α      lambda       -0.3301585E-02
   maximum displ.:     0.3468703 α      in ANC's #9, #6, #11, ...

........................................................................
.............................. CYCLE   30 ..............................
........................................................................
------------------------------------------------------------
  cycle        total energy    energy error   density error
------------------------------------------------------------
      1     -195.7839985227  -1.9880258E+02   2.7089111E-03
      2     -195.7831541046   8.4441805E-04   2.1056479E-03
      3     -195.7613854607   2.1768644E-02   7.2450063E-03
      4     -195.7608946041   4.9085662E-04   7.1013069E-03
      5     -195.7839688638  -2.3074260E-02   6.6045444E-04
      6     -195.7841236610  -1.5479726E-04   1.6740975E-04
      7     -195.7841253110  -1.6500006E-06   1.5528038E-04
      8     -195.7841298521  -4.5410870E-06   1.1038280E-04
      9     -195.7841330964  -3.2442963E-06   6.2682670E-05
     10     -195.7841340816  -9.8519902E-07   3.3248957E-05
     11     -195.7841343390  -2.5738763E-07   1.9830439E-05
------------------------------------------------------------

 total:                                  11.296 sec
 * total energy  :  -195.7841343 Eh     change       -0.2717233E-02 Eh
   gradient norm :     0.0177688 Eh/α   predicted    -0.2842674E-02 (   4.62%)
   displ. norm   :     0.7723814 α      lambda       -0.2741374E-02
   maximum displ.:     0.3128773 α      in ANC's #6, #9, #11, ...

........................................................................
.............................. CYCLE   31 ..............................
........................................................................
------------------------------------------------------------
  cycle        total energy    energy error   density error
------------------------------------------------------------
      1     -195.7865537928  -1.9880014E+02   2.2147416E-03
      2     -195.7852092726   1.3445202E-03   2.2392064E-03
      3     -195.7574668341   2.7742439E-02   8.2579419E-03
      4     -195.7796983123  -2.2231478E-02   3.7570566E-03
      5     -195.7863408750  -6.6425627E-03   8.1739047E-04
      6     -195.7865964690  -2.5559392E-04   2.7985658E-04
      7     -195.7866293584  -3.2889417E-05   7.3110321E-05
      8     -195.7866294757  -1.1733158E-07   7.0994576E-05
      9     -195.7866311022  -1.6265236E-06   2.8703455E-05
     10     -195.7866313218  -2.1958769E-07   1.6105237E-05
------------------------------------------------------------

 total:                                  10.494 sec
 * total energy  :  -195.7866313 Eh     change       -0.2496983E-02 Eh
   gradient norm :     0.0164684 Eh/α   predicted    -0.2188409E-02 ( -12.36%)
   displ. norm   :     0.7825697 α      lambda       -0.3305233E-02
   maximum displ.:     0.3093475 α      in ANC's #6, #11, #9, ...

........................................................................
.............................. CYCLE   32 ..............................
........................................................................
------------------------------------------------------------
  cycle        total energy    energy error   density error
------------------------------------------------------------
      1     -195.7893246417  -1.9881020E+02   2.3053401E-03
      2     -195.7863116632   3.0129785E-03   2.9770754E-03
      3     -195.7703374789   1.5974184E-02   6.6689129E-03
      4     -195.7874882230  -1.7150744E-02   2.0139292E-03
      5     -195.7888335170  -1.3452940E-03   1.1243790E-03
      6     -195.7893059208  -4.7240378E-04   5.2691478E-04
      7     -195.7893224070  -1.6486252E-05   4.8593608E-04
      8     -195.7893636868  -4.1279756E-05   3.5262605E-04
      9     -195.7894038905  -4.0203676E-05   1.4858650E-04
     10     -195.7894118716  -7.9811066E-06   4.0937395E-05
     11     -195.7894123052  -4.3363534E-07   2.1745614E-05
     12     -195.7894124413  -1.3613649E-07   7.6706258E-06
------------------------------------------------------------

 total:                                  12.217 sec
 * total energy  :  -195.7894124 Eh     change       -0.2781120E-02 Eh
   gradient norm :     0.0147590 Eh/α   predicted    -0.2664711E-02 (  -4.19%)
   displ. norm   :     0.8422978 α      lambda       -0.2867761E-02
   maximum displ.:     0.3577249 α      in ANC's #6, #11, #9, ...

........................................................................
.............................. CYCLE   33 ..............................
........................................................................
------------------------------------------------------------
  cycle        total energy    energy error   density error
------------------------------------------------------------
      1     -195.7918056102  -1.9880864E+02   2.4600457E-03
      2     -195.7910035904   8.0201977E-04   1.9561611E-03
      3     -195.7659669461   2.5036644E-02   7.5350930E-03
      4     -195.7853630354  -1.9396089E-02   3.7826375E-03
      5     -195.7913365988  -5.9735634E-03   1.1602623E-03
      6     -195.7918168799  -4.8028107E-04   4.4711809E-04
      7     -195.7918000249   1.6854991E-05   4.7996490E-04
      8     -195.7918348061  -3.4781222E-05   3.6941827E-04
      9     -195.7918836990  -4.8892874E-05   1.0468242E-04
     10     -195.7918878876  -4.1885394E-06   1.8521236E-05
     11     -195.7918880096  -1.2205035E-07   9.2223786E-06
------------------------------------------------------------

 total:                                  10.241 sec
 * total energy  :  -195.7918880 Eh     change       -0.2475568E-02 Eh
   gradient norm :     0.0150469 Eh/α   predicted    -0.2451179E-02 (  -0.99%)
   displ. norm   :     0.7899102 α      lambda       -0.2648263E-02
   maximum displ.:     0.3322781 α      in ANC's #6, #3, #11, ...

........................................................................
.............................. CYCLE   34 ..............................
........................................................................
------------------------------------------------------------
  cycle        total energy    energy error   density error
------------------------------------------------------------
      1     -195.7939313427  -1.9881608E+02   2.3778987E-03
      2     -195.7749043570   1.9026986E-02   6.8195273E-03
      3     -195.7881711482  -1.3266791E-02   3.9384429E-03
      4     -195.7899651792  -1.7940310E-03   2.8405898E-03
      5     -195.7938480450  -3.8828658E-03   7.4748276E-04
      6     -195.7940879585  -2.3991348E-04   2.0811942E-04
      7     -195.7940971607  -9.2022898E-06   1.5243378E-04
      8     -195.7940960566   1.1041419E-06   1.5908354E-04
      9     -195.7941016650  -5.6083788E-06   1.0341505E-04
     10     -195.7941048207  -3.1557545E-06   4.9056774E-05
     11     -195.7941053741  -5.5338012E-07   2.9523744E-05
     12     -195.7941056178  -2.4363337E-07   1.3888851E-05
------------------------------------------------------------

 total:                                  11.569 sec
 * total energy  :  -195.7941056 Eh     change       -0.2217608E-02 Eh
   gradient norm :     0.0131200 Eh/α   predicted    -0.2150340E-02 (  -3.03%)
   displ. norm   :     0.7857309 α      lambda       -0.2194208E-02
   maximum displ.:     0.3714477 α      in ANC's #6, #3, #11, ...

........................................................................
.............................. CYCLE   35 ..............................
........................................................................
------------------------------------------------------------
  cycle        total energy    energy error   density error
------------------------------------------------------------
      1     -195.7959348714  -1.9881433E+02   2.0677350E-03
      2     -195.7943108412   1.6240302E-03   2.3303670E-03
      3     -195.7704376134   2.3873228E-02   7.7887778E-03
      4     -195.7912418619  -2.0804248E-02   3.1042272E-03
      5     -195.7958095288  -4.5676669E-03   6.1561846E-04
      6     -195.7959653667  -1.5583792E-04   2.1290059E-04
      7     -195.7959841416  -1.8774905E-05   7.1624920E-05
      8     -195.7959850087  -8.6714329E-07   5.8658827E-05
      9     -195.7959856074  -5.9863822E-07   4.2597956E-05
     10     -195.7959861390  -5.3163146E-07   1.9278362E-05
------------------------------------------------------------

 total:                                  11.630 sec
 * total energy  :  -195.7959861 Eh     change       -0.1880521E-02 Eh
   gradient norm :     0.0120056 Eh/α   predicted    -0.1774435E-02 (  -5.64%)
   displ. norm   :     0.7335948 α      lambda       -0.2058457E-02
   maximum displ.:     0.3608519 α      in ANC's #6, #3, #11, ...

........................................................................
.............................. CYCLE   36 ..............................
........................................................................
------------------------------------------------------------
  cycle        total energy    energy error   density error
------------------------------------------------------------
      1     -195.7974003266  -1.9881968E+02   1.9221557E-03
      2     -195.7839470859   1.3453241E-02   5.6881949E-03
      3     -195.7929916404  -9.0445545E-03   3.4315179E-03
      4     -195.7969743133  -3.9826729E-03   1.1236260E-03
      5     -195.7973668803  -3.9256702E-04   6.6615560E-04
      6     -195.7974681739  -1.0129360E-04   4.8956089E-04
      7     -195.7975221933  -5.4019428E-05   3.3195295E-04
      8     -195.7975471679  -2.4974601E-05   2.1169509E-04
      9     -195.7975603408  -1.3172859E-05   1.0056947E-04
     10     -195.7975640212  -3.6803630E-06   2.6863923E-05
     11     -195.7975642502  -2.2904624E-07   1.1504256E-05
------------------------------------------------------------

 total:                                  12.268 sec
 * total energy  :  -195.7975643 Eh     change       -0.1578111E-02 Eh
   gradient norm :     0.0173926 Eh/α   predicted    -0.1583122E-02 (   0.32%)
   displ. norm   :     0.7535029 α      lambda       -0.2103878E-02
   maximum displ.:     0.3739464 α      in ANC's #6, #3, #11, ...

........................................................................
.............................. CYCLE   37 ..............................
........................................................................
------------------------------------------------------------
  cycle        total energy    energy error   density error
------------------------------------------------------------
      1     -195.7990485540  -1.9882017E+02   1.7605068E-03
      2     -195.7940802882   4.9682657E-03   3.5715989E-03
      3     -195.7910362651   3.0440231E-03   4.4777880E-03
      4     -195.7949878707  -3.9516056E-03   2.8756053E-03
      5     -195.7990751817  -4.0873110E-03   3.3497797E-04
      6     -195.7991076851  -3.2503432E-05   1.6280740E-04
      7     -195.7991148839  -7.1988440E-06   1.0338124E-04
      8     -195.7991180970  -3.2130685E-06   5.1792942E-05
      9     -195.7991185968  -4.9975327E-07   3.3404963E-05
     10     -195.7991189178  -3.2100650E-07   1.7843608E-05
------------------------------------------------------------

 total:                                  12.839 sec
 * total energy  :  -195.7991189 Eh     change       -0.1554668E-02 Eh
   gradient norm :     0.0161707 Eh/α   predicted    -0.1649203E-02 (   6.08%)
   displ. norm   :     0.6781616 α      lambda       -0.1862949E-02
   maximum displ.:     0.3559606 α      in ANC's #6, #3, #8, ...

........................................................................
.............................. CYCLE   38 ..............................
........................................................................
------------------------------------------------------------
  cycle        total energy    energy error   density error
------------------------------------------------------------
      1     -195.8003678764  -1.9881627E+02   1.6846889E-03
      2     -195.7785103487   2.1857528E-02   7.1261317E-03
      3     -195.7994513757  -2.0941027E-02   1.8985306E-03
      4     -195.7999041365  -4.5276078E-04   1.2681095E-03
      5     -195.8005296920  -6.2555557E-04   6.7766757E-04
      6     -195.8006337060  -1.0401402E-04   4.5685129E-04
      7     -195.8006856220  -5.1915962E-05   2.7342109E-04
      8     -195.8007115739  -2.5951945E-05   8.8609971E-05
      9     -195.8007144178  -2.8438463E-06   1.8088565E-05
     10     -195.8007145518  -1.3406054E-07   7.1081446E-06
------------------------------------------------------------

 total:                                  12.716 sec
 * total energy  :  -195.8007146 Eh     change       -0.1595634E-02 Eh
   gradient norm :     0.0137979 Eh/α   predicted    -0.1359865E-02 ( -14.78%)
   displ. norm   :     0.7182274 α      lambda       -0.2423554E-02
   maximum displ.:     0.3856027 α      in ANC's #6, #3, #8, ...

........................................................................
.............................. CYCLE   39 ..............................
........................................................................
------------------------------------------------------------
  cycle        total energy    energy error   density error
------------------------------------------------------------
      1     -195.8024773150  -1.9882309E+02   1.6348349E-03
      2     -195.7934534852   9.0238298E-03   4.7067731E-03
      3     -195.7987727697  -5.3192845E-03   3.1440890E-03
      4     -195.8018184944  -3.0457247E-03   1.2375170E-03
      5     -195.8023888257  -5.7033134E-04   6.5862783E-04
      6     -195.8025746391  -1.8581341E-04   1.8071757E-04
      7     -195.8025849266  -1.0287430E-05   7.4583593E-05
      8     -195.8025863304  -1.4038788E-06   4.3047637E-05
      9     -195.8025869712  -6.4080061E-07   1.4607517E-05
------------------------------------------------------------

 total:                                  10.168 sec
 * total energy  :  -195.8025870 Eh     change       -0.1872419E-02 Eh
   gradient norm :     0.0156568 Eh/α   predicted    -0.1836878E-02 (  -1.90%)
   displ. norm   :     0.7935565 α      lambda       -0.2061319E-02
   maximum displ.:     0.4151935 α      in ANC's #6, #3, #8, ...

........................................................................
.............................. CYCLE   40 ..............................
........................................................................
------------------------------------------------------------
  cycle        total energy    energy error   density error
------------------------------------------------------------
      1     -195.8042096742  -1.9882193E+02   1.7820513E-03
      2     -195.7859746263   1.8235048E-02   6.5982617E-03
      3     -195.8020845625  -1.6109936E-02   2.5492021E-03
      4     -195.8030773285  -9.9276603E-04   1.6274380E-03
      5     -195.8043127684  -1.2354399E-03   5.7950424E-04
      6     -195.8043941536  -8.1385210E-05   3.8346561E-04
      7     -195.8044304617  -3.6308073E-05   2.2915937E-04
      8     -195.8044480349  -1.7573225E-05   8.7291780E-05
      9     -195.8044505174  -2.4825583E-06   2.8383200E-05
     10     -195.8044508270  -3.0951492E-07   6.5333562E-06
------------------------------------------------------------

 total:                                  11.506 sec
 * total energy  :  -195.8044508 Eh     change       -0.1863856E-02 Eh
   gradient norm :     0.0158065 Eh/α   predicted    -0.1679709E-02 (  -9.88%)
   displ. norm   :     0.8271919 α      lambda       -0.2215576E-02
   maximum displ.:     0.4459159 α      in ANC's #6, #3, #8, ...

........................................................................
.............................. CYCLE   41 ..............................
........................................................................
------------------------------------------------------------
  cycle        total energy    energy error   density error
------------------------------------------------------------
      1     -195.8063326096  -1.9882241E+02   1.7013501E-03
      2     -195.7971702409   9.1623687E-03   4.7775934E-03
      3     -195.8022418084  -5.0715675E-03   3.3176355E-03
      4     -195.8054822935  -3.2404851E-03   1.3864107E-03
      5     -195.8063442735  -8.6197992E-04   4.2606793E-04
      6     -195.8064167016  -7.2428107E-05   1.7279155E-04
      7     -195.8064255766  -8.8750665E-06   7.9976435E-05
      8     -195.8064276461  -2.0694991E-06   3.6253851E-05
      9     -195.8064281138  -4.6763330E-07   1.3470967E-05
------------------------------------------------------------

 total:                                  11.104 sec
 * total energy  :  -195.8064281 Eh     change       -0.1977287E-02 Eh
   gradient norm :     0.0112136 Eh/α   predicted    -0.1865794E-02 (  -5.64%)
   displ. norm   :     0.8459741 α      lambda       -0.2183622E-02
   maximum displ.:     0.4512190 α      in ANC's #6, #3, #8, ...

........................................................................
.............................. CYCLE   42 ..............................
........................................................................
------------------------------------------------------------
  cycle        total energy    energy error   density error
------------------------------------------------------------
      1     -195.8082297441  -1.9882458E+02   1.7320541E-03
      2     -195.7968087883   1.1420956E-02   5.3406872E-03
      3     -195.8052536137  -8.4448254E-03   2.8807003E-03
      4     -195.8074940883  -2.2404745E-03   1.3239521E-03
      5     -195.8082364599  -7.4237167E-04   5.0223395E-04
      6     -195.8083275777  -9.1117797E-05   2.2660453E-04
      7     -195.8083432997  -1.5722015E-05   1.0016556E-04
      8     -195.8083459917  -2.6919598E-06   5.2832965E-05
      9     -195.8083467958  -8.0406164E-07   2.5226318E-05
     10     -195.8083470306  -2.3481809E-07   6.0623174E-06
------------------------------------------------------------

 total:                                  10.497 sec
 * total energy  :  -195.8083470 Eh     change       -0.1918917E-02 Eh
   gradient norm :     0.0116644 Eh/α   predicted    -0.1873196E-02 (  -2.38%)
   displ. norm   :     0.8590504 α      lambda       -0.2056953E-02
   maximum displ.:     0.4576789 α      in ANC's #6, #3, #8, ...
 * RMSD in coord.:     1.1827140 α      energy gain  -0.5568538E-01 Eh

generating ANC from exact Hessian ...
Using Lindh-Hessian (1995)
 Shifting diagonal of input Hessian by    1.0089201166286640E-002
 Lowest  eigenvalues of input Hessian
    0.010000    0.000000    0.000000    0.000000    0.000000    0.000000
    0.000000    0.010125    0.010147    0.010244    0.010269    0.010416
    0.010489    0.010554    0.010593    0.010826    0.010891    0.010950
 Highest eigenvalues
    2.088911    2.093133    2.187085    2.187608    2.201869    2.205717


........................................................................
.............................. CYCLE   43 ..............................
........................................................................
------------------------------------------------------------
  cycle        total energy    energy error   density error
------------------------------------------------------------
      1     -195.8100746800  -1.9882509E+02   1.7244886E-03
      2     -195.7967577001   1.3316980E-02   5.7637716E-03
      3     -195.8079188484  -1.1161148E-02   2.5206853E-03
      4     -195.8096197806  -1.7009322E-03   1.1531829E-03
      5     -195.8101053277  -4.8554710E-04   4.9252043E-04
      6     -195.8101844452  -7.9117417E-05   2.6602033E-04
      7     -195.8102065152  -2.2070076E-05   1.3687196E-04
      8     -195.8102132740  -6.7588000E-06   3.8048824E-05
      9     -195.8102136388  -3.6474827E-07   2.0397717E-05
     10     -195.8102137902  -1.5137041E-07   7.8313147E-06
------------------------------------------------------------

 total:                                  12.985 sec
 * total energy  :  -195.8102138 Eh     change       -0.1866760E-02 Eh
   gradient norm :     0.0123543 Eh/α   predicted     0.0000000E+00 (-100.00%)
   displ. norm   :     0.2183289 α      lambda       -0.8120422E-03
   maximum displ.:     0.1012078 α      in ANC's #7, #3, #1, ...

........................................................................
.............................. CYCLE   44 ..............................
........................................................................
------------------------------------------------------------
  cycle        total energy    energy error   density error
------------------------------------------------------------
      1     -195.8109181972  -1.9883101E+02   6.1226253E-04
      2     -195.8108923718   2.5825475E-05   4.4000472E-04
      3     -195.8066458668   4.2465050E-03   3.2168963E-03
      4     -195.8108267487  -4.1808819E-03   4.4793191E-04
      5     -195.8108965258  -6.9777159E-05   2.2544160E-04
      6     -195.8109212290  -2.4703187E-05   3.9731685E-05
      7     -195.8109216067  -3.7773958E-07   2.7671861E-05
      8     -195.8109217760  -1.6929201E-07   1.8776744E-05
------------------------------------------------------------

 total:                                   8.521 sec
 * total energy  :  -195.8109218 Eh     change       -0.7079859E-03 Eh
   gradient norm :     0.0056172 Eh/α   predicted    -0.4253814E-03 ( -39.92%)
   displ. norm   :     0.6135611 α      lambda       -0.1692510E-02
   maximum displ.:     0.2894219 α      in ANC's #7, #3, #1, ...

........................................................................
.............................. CYCLE   45 ..............................
........................................................................
------------------------------------------------------------
  cycle        total energy    energy error   density error
------------------------------------------------------------
      1     -195.8123139351  -1.9883758E+02   1.3933616E-03
      2     -195.8121425182   1.7141694E-04   1.0418202E-03
      3     -195.7977393338   1.4403184E-02   5.9318728E-03
      4     -195.8095065038  -1.1767170E-02   2.4969224E-03
      5     -195.8122682461  -2.7617423E-03   4.1254344E-04
      6     -195.8123299419  -6.1695716E-05   1.3568561E-04
      7     -195.8123370032  -7.0612971E-06   4.7430397E-05
      8     -195.8123373451  -3.4198081E-07   3.5074534E-05
      9     -195.8123374657  -1.2052129E-07   2.7204955E-05
     10     -195.8123376787  -2.1303484E-07   1.3212758E-05
------------------------------------------------------------

 total:                                   9.720 sec
 * total energy  :  -195.8123377 Eh     change       -0.1415903E-02 Eh
   gradient norm :     0.0092426 Eh/α   predicted    -0.1164833E-02 ( -17.73%)
   displ. norm   :     0.7437439 α      lambda       -0.1629766E-02
   maximum displ.:     0.3519148 α      in ANC's #7, #3, #1, ...

........................................................................
.............................. CYCLE   46 ..............................
........................................................................
------------------------------------------------------------
  cycle        total energy    energy error   density error
------------------------------------------------------------
      1     -195.8138281714  -1.9883794E+02   1.5362421E-03
      2     -195.8135352372   2.9293426E-04   1.2726482E-03
      3     -195.7908979450   2.2637292E-02   7.4873979E-03
      4     -195.8134526717  -2.2554727E-02   9.0721039E-04
      5     -195.8137917895  -3.3911776E-04   3.3081525E-04
      6     -195.8138360953  -4.4305801E-05   1.2690365E-04
      7     -195.8138418080  -5.7126599E-06   6.5789250E-05
      8     -195.8138433752  -1.5672562E-06   3.2380793E-05
      9     -195.8138435984  -2.2319216E-07   2.1544712E-05
     10     -195.8138437548  -1.5641078E-07   8.5938665E-06
------------------------------------------------------------

 total:                                  10.471 sec
 * total energy  :  -195.8138438 Eh     change       -0.1506076E-02 Eh
   gradient norm :     0.0142397 Eh/α   predicted    -0.1265746E-02 ( -15.96%)
   displ. norm   :     0.8272330 α      lambda       -0.1850587E-02
   maximum displ.:     0.3955337 α      in ANC's #7, #3, #1, ...

........................................................................
.............................. CYCLE   47 ..............................
........................................................................
------------------------------------------------------------
  cycle        total energy    energy error   density error
------------------------------------------------------------
      1     -195.8155893671  -1.9883468E+02   1.6443238E-03
      2     -195.8145778678   1.0114992E-03   1.8824759E-03
      3     -195.7994127693   1.5165099E-02   6.3189399E-03
      4     -195.8152404848  -1.5827716E-02   8.3043508E-04
      5     -195.8155805836  -3.4009873E-04   2.4212227E-04
      6     -195.8155996224  -1.9038820E-05   1.3931196E-04
      7     -195.8156063184  -6.6960748E-06   5.4701255E-05
[...]
   GNU Lesser General Public License for more details.
   
   Cite this work as:
   * C. Bannwarth, E. Caldeweyher, S. Ehlert, A. Hansen, P. Pracht,
     J. Seibert, S. Spicher, S. Grimme, WIREs Comput. Mol. Sci., 2020, 11,
     e01493. DOI: 10.1002/wcms.1493
   
   for GFN2-xTB:
   * C. Bannwarth, S. Ehlert and S. Grimme., J. Chem. Theory Comput., 2019,
     15, 1652-1671. DOI: 10.1021/acs.jctc.8b01176
   for GFN1-xTB:
   * S. Grimme, C. Bannwarth, P. Shushkov, J. Chem. Theory Comput., 2017,
     13, 1989-2009. DOI: 10.1021/acs.jctc.7b00118
   for GFN0-xTB:
   * P. Pracht, E. Caldeweyher, S. Ehlert, S. Grimme, ChemRxiv, 2019, preprint.
     DOI: 10.26434/chemrxiv.8326202.v1
   for GFN-FF:
   * S. Spicher and S. Grimme, Angew. Chem. Int. Ed., 2020, 59, 15665-15673.
     DOI: 10.1002/anie.202004239
   
   for ALPB and GBSA implicit solvation:
   * S. Ehlert, M. Stahn, S. Spicher, S. Grimme, J. Chem. Theory Comput.,
     2021, 17, 4250-4261. DOI: 10.1021/acs.jctc.1c00471
   
   for ddCOSMO and CPCM-X implicit solvation:
   * M. Stahn, S. Ehlert, S. Grimme, J. Phys. Chem. A,
     2023, XX, XXXX-XXXX. DOI: 10.1021/acs.jpca.3c04382
   
   for DFT-D4:
   * E. Caldeweyher, C. Bannwarth and S. Grimme, J. Chem. Phys., 2017,
     147, 034112. DOI: 10.1063/1.4993215
   * E. Caldeweyher, S. Ehlert, A. Hansen, H. Neugebauer, S. Spicher,
     C. Bannwarth and S. Grimme, J. Chem. Phys., 2019, 150, 154122.
     DOI: 10.1063/1.5090222
   * E. Caldeweyher, J.-M. Mewes, S. Ehlert and S. Grimme, Phys. Chem. Chem. Phys.
     2020, 22, 8499-8512. DOI: 10.1039/D0CP00502A
   
   for sTDA-xTB:
   * S. Grimme and C. Bannwarth, J. Chem. Phys., 2016, 145, 054103.
     DOI: 10.1063/1.4959605
   
   in the mass-spec context:
   * V. Asgeirsson, C. Bauer and S. Grimme, Chem. Sci., 2017, 8, 4879.
     DOI: 10.1039/c7sc00601b
   * J. Koopman and S. Grimme, ACS Omega 2019, 4, 12, 15120-15133.
     DOI: 10.1021/acsomega.9b02011
   
   for metadynamics refer to:
   * S. Grimme, J. Chem. Theory Comput., 2019, 155, 2847-2862
     DOI: 10.1021/acs.jctc.9b00143
   
   for SPH calculations refer to:
   * S. Spicher and S. Grimme, J. Chem. Theory Comput., 2021, 17, 1701-1714
     DOI: 10.1021/acs.jctc.0c01306
   
   for ONIOM refer to:
   * C. Plett, A. Katbashev, S. Ehlert, S. Grimme, M. Bursch,
     Phys. Chem. Chem. Phys., 2023, 25, 17860-17868. DOI: 10.1039/D3CP02178E
   
   for DIPRO refer to:
   * J. Kohn, N. Gildemeister, S. Grimme, D. Fazzi, A. Hansen,
     J. Chem. Phys., 2023, just accepted.
   
   for PTB refer to:
   * S. Grimme, M. Mueller, A. Hansen, J. Chem. Phys., 2023, 158, 124111.
     DOI: 10.1063/5.0137838
   
   with help from (in alphabetical order)
   P. Atkinson, C. Bannwarth, F. Bohle, G. Brandenburg, E. Caldeweyher
   M. Checinski, S. Dohm, S. Ehlert, S. Ehrlich, I. Gerasimov, C. Hölzer
   A. Katbashev, J. Kohn, J. Koopman, C. Lavigne, S. Lehtola, F. März, M. Müller,
   F. Musil, H. Neugebauer, J. Pisarek, C. Plett, P. Pracht, F. Pultar,
   J. Seibert, P. Shushkov, S. Spicher, M. Stahn, M. Steiner, T. Strunk,
   J. Stückrath, T. Rose, and J. Unsleber
   
 * started run on 2025/03/20 at 14:29:53.893     
   ID    Z sym.   atoms
    1    6 C      1-9, 11, 12, 14-21, 25-33, 35, 36, 38-45, 48-71, 138-146,
                  148, 149, 151-158, 162-170, 172, 173, 175-182, 185-208
    2    7 N      10, 13, 34, 37, 147, 150, 171, 174
    3    8 O      22, 23, 46, 47, 159, 160, 183, 184
    4    5 B      24, 161
    5    1 H      72-137, 209-274

           -------------------------------------------------
          |                Calculation Setup                |
           -------------------------------------------------

          program call               : xtb opt_dimer.mol --dipro 0.3 --chrg 0 --uhf 2 --spinpol --tblite
          coordinate file            : opt_dimer.mol
          omp threads                :                     8


molecular fragmentation (1/2 indicates fragments):
111111111111111111111111111111111111111111111111111111111111111111111111
111111111111111111111111111111111111111111111111111111111111111112222222
222222222222222222222222222222222222222222222222222222222222222222222222
2222222222222222222222222222222222222222222222222222222222
# atoms in fragment 1/2:   137   137
 fragment masses (1/2) :      942.03      942.03
CMA distance (Bohr)    :  11.248
constraining FC (au)   :  0.0500
Wavefunction read from restart file
           -------------------------------------------------
          |                    D I P R O                    |
           -------------------------------------------------
Calculation for dimer 
--------------------- 
  
charge of dimer :   0.
unpaired e- of dimer :  2
repulsion energy          6.0514029806570E+00 Eh
dispersion energy         3.9953240885162E-02 Eh
number of electrons       7.2200000000000E+02 e
integral cutoff           1.9311100799991E+01 bohr

------------------------------------------------------------
  cycle        total energy    energy error   density error
------------------------------------------------------------
      1     -390.5965110305  -3.9668787E+02   1.4033491E-01
      2     -391.4319970552  -8.3548602E-01   7.4445707E-02
      3     -389.4360066305   1.9959904E+00   5.6988716E-02
      4     -382.1768321330   7.2591745E+00   7.5930151E-02
      5     -390.8329312535  -8.6560991E+00   3.3839862E-02
      6     -391.0310142010  -1.9808295E-01   2.7405168E-02
      7     -391.3218622174  -2.9084802E-01   2.6751585E-02
      8     -391.7332099328  -4.1134772E-01   1.3212852E-02
      9     -391.7064880030   2.6721930E-02   1.1797417E-02
     10     -391.7439180542  -3.7430051E-02   1.0977486E-02
     11     -391.7755059397  -3.1587886E-02   7.2522510E-03
     12     -391.7754917603   1.4179475E-05   6.1592623E-03
     13     -391.7869012948  -1.1409534E-02   3.7630277E-03
     14     -391.7925477208  -5.6464260E-03   2.9191081E-03
     15     -391.7936927248  -1.1450040E-03   2.0377802E-03
     16     -391.7945123620  -8.1963717E-04   2.4032818E-03
     17     -391.7961718524  -1.6594904E-03   1.1368014E-03
     18     -391.7959310337   2.4081867E-04   1.0210736E-03
     19     -391.7964523905  -5.2135681E-04   3.4321204E-04
     20     -391.7964758328  -2.3442287E-05   2.4205298E-04
     21     -391.7964406135   3.5219310E-05   3.0769346E-04
     22     -391.7964888483  -4.8234850E-05   1.0400071E-04
     23     -391.7964890484  -2.0010089E-07   8.0604891E-05
     24     -391.7964938690  -4.8205362E-06   3.8200861E-05
     25     -391.7964944026  -5.3357979E-07   1.5839132E-05
------------------------------------------------------------

electronic energy        -3.9788785062409E+02 Eh
total energy             -3.9179649440255E+02 Eh

 total:                                   5.556 sec
 - repulsion                              0.001 sec (  0%)
 - dispersion                             0.042 sec (  0%)
 - coulomb                                0.014 sec (  0%)
 - hamiltonian                            0.018 sec (  0%)
 - scc                                    5.481 sec ( 98%)

Found 2 fragments!
Fragment 1:  1-137
Fragment 2:  138-274

[Info] Fragment spin read from .UHFfrag
Calculation for fragment 1
 ------------------------------
   
charge of fragment :   0.
unpaired e- of fragment :  1
------------------------------------------------------------
  cycle        total energy    energy error   density error
------------------------------------------------------------
      1     -195.2458011416  -1.9827303E+02   1.4052309E-01
      2     -195.6929024288  -4.4710129E-01   7.4808336E-02
      3     -195.1552222893   5.3768014E-01   5.5556426E-02
      4     -195.2330300490  -7.7807760E-02   4.1650669E-02
      5     -195.6289731816  -3.9594313E-01   2.7450352E-02
      6     -195.8087870127  -1.7981383E-01   1.5916328E-02
      7     -195.8468026638  -3.8015651E-02   8.2974527E-03
      8     -195.8455938184   1.2088453E-03   7.4321712E-03
      9     -195.8529830819  -7.3892635E-03   4.7208158E-03
     10     -195.8552539178  -2.2708359E-03   3.2372850E-03
     11     -195.8554959567  -2.4203889E-04   2.2766679E-03
     12     -195.8549796961   5.1626065E-04   2.4690729E-03
     13     -195.8570526004  -2.0729043E-03   7.4652543E-04
     14     -195.8572052911  -1.5269077E-04   2.0787016E-04
     15     -195.8572006349   4.6562839E-06   1.7159887E-04
     16     -195.8572098257  -9.1908175E-06   4.7735893E-05
     17     -195.8572095256   3.0003835E-07   4.7992289E-05
     18     -195.8572102836  -7.5793926E-07   1.0069078E-05
------------------------------------------------------------

 total:                                   1.621 sec
Calculation for fragment 2
 ------------------------------
   
charge of fragment :   0.
unpaired e- of fragment :  1
------------------------------------------------------------
  cycle        total energy    energy error   density error
------------------------------------------------------------
      1     -195.2557778678  -1.9828658E+02   1.4036955E-01
      2     -195.7100004724  -4.5422260E-01   7.4373646E-02
      3     -195.2209842225   4.8901625E-01   5.4295868E-02
      4     -195.2427277899  -2.1743567E-02   4.1841356E-02
      5     -195.7206518670  -4.7792408E-01   2.3547252E-02
      6     -195.8203900707  -9.9738204E-02   1.4490082E-02
      7     -195.8466643695  -2.6274299E-02   9.0084004E-03
      8     -195.8549435055  -8.2791360E-03   6.4244196E-03
      9     -195.8595789628  -4.6354573E-03   4.5073522E-03
     10     -195.8590734625   5.0550028E-04   3.8632014E-03
     11     -195.8606036238  -1.5301613E-03   2.7826841E-03
     12     -195.8624602020  -1.8565781E-03   1.7206108E-03
     13     -195.8630489366  -5.8873462E-04   9.1037810E-04
     14     -195.8632294232  -1.8048658E-04   5.5749047E-04
     15     -195.8633287699  -9.9346695E-05   1.6699640E-04
     16     -195.8633383540  -9.5840936E-06   2.6667239E-05
     17     -195.8633379403   4.1365126E-07   3.9195710E-05
     18     -195.8633383656  -4.2527958E-07   1.7451646E-05
------------------------------------------------------------

 total:                                   1.547 sec
   
   ::::::::::::::::::::::::::::::::::::::::::::::
   ::     D I P R O      C O U P L I N G S     ::
   ::::::::::::::::::::::::::::::::::::::::::::::
   
energy threshhold for near-degenerate orbitals near HOMO and LUMO considered for DIPRO:  0.300 eV
no. of orbitals within energy window of frag 1         6
no. of orbitals within energy window of frag 2         6
   
  Fragment 1 SOMO-3  Fragment 2 SOMO-3
--------------------------------------
E_mon(orb) frag1 frag2              -9.787    -9.779 eV
J(AB):                0.029 eV
S(AB):            -0.00106057 Eh
|J(AB,eff)|:            0.019 eV
   
  Fragment 1 SOMO-3  Fragment 2 SOMO-2
--------------------------------------
E_mon(orb) frag1 frag2              -9.787    -9.708 eV
J(AB):                0.012 eV
S(AB):            -0.00046651 Eh
|J(AB,eff)|:            0.008 eV
   
  Fragment 1 SOMO-3  Fragment 2 SOMO-1
--------------------------------------
E_mon(orb) frag1 frag2              -9.787    -9.706 eV
J(AB):                0.017 eV
S(AB):            -0.00073462 Eh
|J(AB,eff)|:            0.010 eV
   
  Fragment 1 SOMO-3  Fragment 2 SOMO 
--------------------------------------
E_mon(orb) frag1 frag2              -9.787    -9.577 eV
J(AB):                0.044 eV
S(AB):            -0.00170026 Eh
|J(AB,eff)|:            0.028 eV
   
  Fragment 1 SOMO-3  Fragment 2 LUMO 
--------------------------------------
E_mon(orb) frag1 frag2              -9.787    -9.229 eV
J(AB):                0.027 eV
S(AB):            -0.00112884 Eh
|J(AB,eff)|:            0.016 eV
   
  Fragment 1 SOMO-3  Fragment 2 LUMO+1
--------------------------------------
E_mon(orb) frag1 frag2              -9.787    -9.217 eV
J(AB):                0.060 eV
S(AB):            -0.00251944 Eh
|J(AB,eff)|:            0.036 eV
   
  Fragment 1 SOMO-2  Fragment 2 SOMO-3
--------------------------------------
E_mon(orb) frag1 frag2              -9.730    -9.779 eV
J(AB):               -0.003 eV
S(AB):             0.00023312 Eh
|J(AB,eff)|:            0.001 eV
   
  Fragment 1 SOMO-2  Fragment 2 SOMO-2
--------------------------------------
E_mon(orb) frag1 frag2              -9.730    -9.708 eV
J(AB):                0.005 eV
S(AB):            -0.00022665 Eh
|J(AB,eff)|:            0.003 eV
   
  Fragment 1 SOMO-2  Fragment 2 SOMO-1
--------------------------------------
E_mon(orb) frag1 frag2              -9.730    -9.706 eV
J(AB):                0.002 eV
S(AB):            -0.00007968 Eh
|J(AB,eff)|:            0.001 eV
   
  Fragment 1 SOMO-2  Fragment 2 SOMO 
--------------------------------------
E_mon(orb) frag1 frag2              -9.730    -9.577 eV
J(AB):                0.013 eV
S(AB):            -0.00060147 Eh
|J(AB,eff)|:            0.007 eV
   
  Fragment 1 SOMO-2  Fragment 2 LUMO 
--------------------------------------
E_mon(orb) frag1 frag2              -9.730    -9.229 eV
J(AB):                0.008 eV
S(AB):            -0.00037051 Eh
|J(AB,eff)|:            0.004 eV
   
  Fragment 1 SOMO-2  Fragment 2 LUMO+1
--------------------------------------
E_mon(orb) frag1 frag2              -9.730    -9.217 eV
J(AB):                0.003 eV
S(AB):            -0.00011737 Eh
|J(AB,eff)|:            0.002 eV
   
  Fragment 1 SOMO-1  Fragment 2 SOMO-3
--------------------------------------
E_mon(orb) frag1 frag2              -9.697    -9.779 eV
J(AB):                0.014 eV
S(AB):            -0.00057760 Eh
|J(AB,eff)|:            0.008 eV
   
  Fragment 1 SOMO-1  Fragment 2 SOMO-2
--------------------------------------
E_mon(orb) frag1 frag2              -9.697    -9.708 eV
J(AB):                0.002 eV
S(AB):            -0.00009096 Eh
|J(AB,eff)|:            0.001 eV
   
  Fragment 1 SOMO-1  Fragment 2 SOMO-1
--------------------------------------
E_mon(orb) frag1 frag2              -9.697    -9.706 eV
J(AB):               -0.003 eV
S(AB):             0.00010608 Eh
|J(AB,eff)|:            0.001 eV
   
  Fragment 1 SOMO-1  Fragment 2 SOMO 
--------------------------------------
E_mon(orb) frag1 frag2              -9.697    -9.577 eV
J(AB):                0.003 eV
S(AB):            -0.00011211 Eh
|J(AB,eff)|:            0.002 eV
   
  Fragment 1 SOMO-1  Fragment 2 LUMO 
--------------------------------------
E_mon(orb) frag1 frag2              -9.697    -9.229 eV
J(AB):                0.001 eV
S(AB):            -0.00001843 Eh
|J(AB,eff)|:            0.000 eV
   
  Fragment 1 SOMO-1  Fragment 2 LUMO+1
--------------------------------------
E_mon(orb) frag1 frag2              -9.697    -9.217 eV
J(AB):                0.003 eV
S(AB):            -0.00016070 Eh
|J(AB,eff)|:            0.002 eV
   
  Fragment 1 SOMO   Fragment 2 SOMO-3
--------------------------------------
E_mon(orb) frag1 frag2              -9.554    -9.779 eV
J(AB):                0.072 eV
S(AB):            -0.00274853 Eh
|J(AB,eff)|:            0.046 eV
   
  Fragment 1 SOMO   Fragment 2 SOMO-2
--------------------------------------
E_mon(orb) frag1 frag2              -9.554    -9.708 eV
J(AB):                0.019 eV
S(AB):            -0.00073973 Eh
|J(AB,eff)|:            0.012 eV
   
  Fragment 1 SOMO   Fragment 2 SOMO-1
--------------------------------------
E_mon(orb) frag1 frag2              -9.554    -9.706 eV
J(AB):                0.011 eV
S(AB):            -0.00048236 Eh
|J(AB,eff)|:            0.006 eV
   
  Fragment 1 SOMO   Fragment 2 SOMO 
--------------------------------------
E_mon(orb) frag1 frag2              -9.554    -9.577 eV
J(AB):                0.033 eV
S(AB):            -0.00129288 Eh
|J(AB,eff)|:            0.021 eV
   
  Fragment 1 SOMO   Fragment 2 LUMO 
--------------------------------------
E_mon(orb) frag1 frag2              -9.554    -9.229 eV
J(AB):                0.049 eV
S(AB):            -0.00204282 Eh
|J(AB,eff)|:            0.030 eV
   
  Fragment 1 SOMO   Fragment 2 LUMO+1
--------------------------------------
E_mon(orb) frag1 frag2              -9.554    -9.217 eV
J(AB):                0.064 eV
S(AB):            -0.00258822 Eh
|J(AB,eff)|:            0.040 eV
   
  Fragment 1 LUMO   Fragment 2 SOMO-3
--------------------------------------
E_mon(orb) frag1 frag2              -9.235    -9.779 eV
J(AB):               -0.052 eV
S(AB):             0.00233506 Eh
|J(AB,eff)|:            0.030 eV
   
  Fragment 1 LUMO   Fragment 2 SOMO-2
--------------------------------------
E_mon(orb) frag1 frag2              -9.235    -9.708 eV
J(AB):               -0.017 eV
S(AB):             0.00072449 Eh
|J(AB,eff)|:            0.011 eV
   
  Fragment 1 LUMO   Fragment 2 SOMO-1
--------------------------------------
E_mon(orb) frag1 frag2              -9.235    -9.706 eV
J(AB):                0.004 eV
S(AB):            -0.00021331 Eh
|J(AB,eff)|:            0.002 eV
   
  Fragment 1 LUMO   Fragment 2 SOMO 
--------------------------------------
E_mon(orb) frag1 frag2              -9.235    -9.577 eV
J(AB):                0.011 eV
S(AB):            -0.00067691 Eh
|J(AB,eff)|:            0.005 eV
   
  Fragment 1 LUMO   Fragment 2 LUMO 
--------------------------------------
E_mon(orb) frag1 frag2              -9.235    -9.229 eV
J(AB):               -0.004 eV
S(AB):            -0.00007923 Eh
|J(AB,eff)|:            0.005 eV
   
  Fragment 1 LUMO   Fragment 2 LUMO+1
--------------------------------------
E_mon(orb) frag1 frag2              -9.235    -9.217 eV
J(AB):               -0.070 eV
S(AB):             0.00299455 Eh
|J(AB,eff)|:            0.043 eV
   
  Fragment 1 LUMO+1  Fragment 2 SOMO-3
--------------------------------------
E_mon(orb) frag1 frag2              -9.222    -9.779 eV
J(AB):                0.006 eV
S(AB):            -0.00039116 Eh
|J(AB,eff)|:            0.002 eV
   
  Fragment 1 LUMO+1  Fragment 2 SOMO-2
--------------------------------------
E_mon(orb) frag1 frag2              -9.222    -9.708 eV
J(AB):                0.003 eV
S(AB):            -0.00013519 Eh
|J(AB,eff)|:            0.002 eV
   
  Fragment 1 LUMO+1  Fragment 2 SOMO-1
--------------------------------------
E_mon(orb) frag1 frag2              -9.222    -9.706 eV
J(AB):               -0.006 eV
S(AB):             0.00026275 Eh
|J(AB,eff)|:            0.003 eV
   
  Fragment 1 LUMO+1  Fragment 2 SOMO 
--------------------------------------
E_mon(orb) frag1 frag2              -9.222    -9.577 eV
J(AB):               -0.044 eV
S(AB):             0.00197745 Eh
|J(AB,eff)|:            0.025 eV
   
  Fragment 1 LUMO+1  Fragment 2 LUMO 
--------------------------------------
E_mon(orb) frag1 frag2              -9.222    -9.229 eV
J(AB):               -0.053 eV
S(AB):             0.00231090 Eh
|J(AB,eff)|:            0.032 eV
   
  Fragment 1 LUMO+1  Fragment 2 LUMO+1
--------------------------------------
E_mon(orb) frag1 frag2              -9.222    -9.217 eV
J(AB):               -0.036 eV
S(AB):             0.00128374 Eh
|J(AB,eff)|:            0.024 eV
   
..............................................................................
:  total |J(AB,eff)| for hole transport (occ. MOs) :               0.064 eV  :
:  total |J(AB,eff)| for charge transport (unocc. MOs) :           0.059 eV  :
:  total |J(AB,eff)| for charge transfer (CT) :                    0.076 eV  :
..............................................................................
  
 Please remember, DIPRO is not available for restart!
   
normal termination of dipro
----------------------------------------------------------
 * finished run on 2025/03/20 at 14:30:02.670     
----------------------------------------------------------
 dipro:
 * wall-time:     0 d,  0 h,  0 min,  8.760 sec
 *  cpu-time:     0 d,  0 h,  0 min, 34.848 sec
 * ratio c/w:     3.978 speedup
Reorganization energy (electron): 0.030208619163766232 eV
Reorganization energy (hole): 0.03660034246197833 eV
Electron Transfer integral J: 0.059 eV
Hole Transfer integral J: 0.064 eV
