      -----------------------------------------------------------      
     |                   =====================                   |     
     |                           x T B                           |     
     |                   =====================                   |     
     |                         S. Grimme                         |     
     |          Mulliken Center for Theoretical Chemistry        |     
     |                    University of Bonn                     |     
      -----------------------------------------------------------      

   * xtb version 6.6.1 (8d0f1dd) compiled by 'runner@Mac-1690902418499.local' on 2023-08-01

   xtb is free software: you can redistribute it and/or modify it under
   the terms of the GNU Lesser General Public License as published by
   the Free Software Foundation, either version 3 of the License, or
   (at your option) any later version.
   
   xtb is distributed in the hope that it will be useful,
   but WITHOUT ANY WARRANTY; without even the implied warranty of
   MERCHANTABILITY or FITNESS FOR A PARTICULAR PURPOSE.  See the
   GNU Lesser General Public License for more details.
   
   Cite this work as:
   * C. Bannwarth, E. Caldeweyher, S. Ehlert, A. Hansen, P. Pracht,
     J. Seibert, S. Spicher, S. Grimme, WIREs Comput. Mol. Sci., 2020, 11,
     e01493. DOI: 10.1002/wcms.1493
   
   for GFN2-xTB:
   * C. Bannwarth, S. Ehlert and S. Grimme., J. Chem. Theory Comput., 2019,
     15, 1652-1671. DOI: 10.1021/acs.jctc.8b01176
   for GFN1-xTB:
   * S. Grimme, C. Bannwarth, P. Shushkov, J. Chem. Theory Comput., 2017,
     13, 1989-2009. DOI: 10.1021/acs.jctc.7b00118
   for GFN0-xTB:
   * P. Pracht, E. Caldeweyher, S. Ehlert, S. Grimme, ChemRxiv, 2019, preprint.
     DOI: 10.26434/chemrxiv.8326202.v1
   for GFN-FF:
   * S. Spicher and S. Grimme, Angew. Chem. Int. Ed., 2020, 59, 15665-15673.
     DOI: 10.1002/anie.202004239
   
   for ALPB and GBSA implicit solvation:
   * S. Ehlert, M. Stahn, S. Spicher, S. Grimme, J. Chem. Theory Comput.,
     2021, 17, 4250-4261. DOI: 10.1021/acs.jctc.1c00471
   
   for DFT-D4:
   * E. Caldeweyher, C. Bannwarth and S. Grimme, J. Chem. Phys., 2017,
     147, 034112. DOI: 10.1063/1.4993215
   * E. Caldeweyher, S. Ehlert, A. Hansen, H. Neugebauer, S. Spicher,
     C. Bannwarth and S. Grimme, J. Chem. Phys., 2019, 150, 154122.
     DOI: 10.1063/1.5090222
   * E. Caldeweyher, J.-M. Mewes, S. Ehlert and S. Grimme, Phys. Chem. Chem. Phys.
     2020, 22, 8499-8512. DOI: 10.1039/D0CP00502A
   
   for sTDA-xTB:
   * S. Grimme and C. Bannwarth, J. Chem. Phys., 2016, 145, 054103.
     DOI: 10.1063/1.4959605
   
   in the mass-spec context:
   * V. Asgeirsson, C. Bauer and S. Grimme, Chem. Sci., 2017, 8, 4879.
     DOI: 10.1039/c7sc00601b
   * J. Koopman and S. Grimme, ACS Omega 2019, 4, 12, 15120-15133.
     DOI: 10.1021/acsomega.9b02011
   
   for metadynamics refer to:
   * S. Grimme, J. Chem. Theory Comput., 2019, 155, 2847-2862
     DOI: 10.1021/acs.jctc.9b00143
   
   for SPH calculations refer to:
   * S. Spicher and S. Grimme, J. Chem. Theory Comput., 2021, 17, 1701-1714
     DOI: 10.1021/acs.jctc.0c01306
   
   with help from (in alphabetical order)
   P. Atkinson, C. Bannwarth, F. Bohle, G. Brandenburg, E. Caldeweyher
   M. Checinski, S. Dohm, S. Ehlert, S. Ehrlich, I. Gerasimov, C. Hölzer
   A. Katbashev, J. Koopman, C. Lavigne, S. Lehtola, F. März, M. Müller,
   F. Musil, H. Neugebauer, J. Pisarek, C. Plett, P. Pracht, F. Pultar,
   J. Seibert, P. Shushkov, S. Spicher, M. Stahn, M. Steiner, T. Strunk,
   J. Stückrath, T. Rose, and J. Unsleber
   
 * started run on 2024/10/31 at 14:22:37.190     

           -------------------------------------------------
          |                Calculation Setup                |
           -------------------------------------------------

          program call               : xtb opt_anion_Base1sO2Me.mol --gfn2 --sp --chrg -1 --uhf 0
          coordinate file            : opt_anion_Base1sO2Me.mol
          omp threads                :                     8

   ID    Z sym.   atoms
    1    6 C      1-9, 11, 12, 14-21, 27-35, 37, 38, 40-47, 56, 58, 62, 65,
                  68, 71
    2    7 N      10, 13, 36, 39
    3    8 O      22, 23, 48, 49, 54, 55, 57, 59-61, 63, 64, 66, 67, 69, 70
    4   16 S      24-26, 50-52
    5    5 B      53
    6    1 H      72-101
########################################################################
[WARNING] Please study the warnings concerning your input carefully
-1- prog_main: Charge in sdf/mol input was overwritten
########################################################################

           -------------------------------------------------
          |                 G F N 2 - x T B                 |
           -------------------------------------------------

        Reference                      10.1021/acs.jctc.8b01176
      * Hamiltonian:
        H0-scaling (s, p, d)           1.850000    2.230000    2.230000
        zeta-weighting                 0.500000
      * Dispersion:
        s8                             2.700000
        a1                             0.520000
        a2                             5.000000
        s9                             5.000000
      * Repulsion:
        kExp                           1.500000    1.000000
        rExp                           1.000000
      * Coulomb:
        alpha                          2.000000
        third order                    shell-resolved
        anisotropic                    true
        a3                             3.000000
        a5                             4.000000
        cn-shift                       1.200000
        cn-exp                         4.000000
        max-rad                        5.000000

q/qsh data taken from xtbrestart
CAMM data taken from xtbrestart

          ...................................................
          :                      SETUP                      :
          :.................................................:
          :  # basis functions                 350          :
          :  # atomic orbitals                 344          :
          :  # shells                          178          :
          :  # electrons                       362          :
          :  max. iterations                   250          :
          :  Hamiltonian                  GFN2-xTB          :
          :  restarted?                       true          :
          :  GBSA solvation                  false          :
          :  PC potential                    false          :
          :  electronic temp.          300.0000000     K    :
          :  accuracy                    1.0000000          :
          :  -> integral cutoff          0.2500000E+02      :
          :  -> integral neglect         0.1000000E-07      :
          :  -> SCF convergence          0.1000000E-05 Eh   :
          :  -> wf. convergence          0.1000000E-03 e    :
          :  Broyden damping             0.4000000          :
          ...................................................

 iter      E             dE          RMSdq      gap      omega  full diag
   1   -209.7190578 -0.209719E+03  0.125E+00    0.03       0.0  T
   2   -209.5837898  0.135268E+00  0.102E+00    0.38       1.0  T
   3   -209.4615521  0.122238E+00  0.128E+00    0.44       1.0  T
   4   -209.5804504 -0.118898E+00  0.840E-01    0.35       1.0  T
   5   -209.6148139 -0.343635E-01  0.686E-01    0.21       1.0  T
   6   -209.5909659  0.238480E-01  0.757E-01    0.26       1.0  T
   7   -209.7188662 -0.127900E+00  0.280E-01    0.05       1.0  T
   8   -209.6497987  0.690675E-01  0.570E-01    0.11       1.0  T
   9   -209.7098856 -0.600869E-01  0.321E-01    0.06       1.0  T
  10   -209.7380391 -0.281535E-01  0.384E-02    0.03       1.0  T
  11   -209.7354211  0.261809E-02  0.104E-01    0.03       1.0  T
  12   -209.7383666 -0.294558E-02  0.748E-03    0.03       1.3  T
  13   -209.7382610  0.105679E-03  0.206E-02    0.03       1.0  T
  14   -209.7383758 -0.114831E-03  0.222E-03    0.03       4.5  T
  15   -209.7383767 -0.915191E-06  0.108E-03    0.03       9.2  T
  16   -209.7383754  0.133064E-05  0.240E-03    0.03       4.1  T
  17   -209.7383769 -0.151081E-05  0.516E-04    0.03      19.3  T
  18   -209.7383769 -0.292042E-08  0.487E-04    0.03      20.4  T
  19   -209.7383769 -0.513576E-07  0.222E-04    0.03      44.9  T

   *** convergence criteria satisfied after 19 iterations ***

         #    Occupation            Energy/Eh            Energy/eV
      -------------------------------------------------------------
         1        2.0000           -0.7143578             -19.4387
       ...           ...                  ...                  ...
       175        2.0000           -0.3117172              -8.4823
       176        2.0000           -0.3113705              -8.4728
       177        2.0000           -0.3086439              -8.3986
       178        2.0000           -0.3014216              -8.2021
       179        2.0000           -0.2985882              -8.1250
       180        2.0000           -0.2968546              -8.0778
       181        1.2731           -0.2852886              -7.7631 (HOMO)
       182        0.7269           -0.2842240              -7.7341 (LUMO)
       183                         -0.2218637              -6.0372
       184                         -0.2200510              -5.9879
       185                         -0.1926344              -5.2418
       186                         -0.1905030              -5.1839
       ...                                ...                  ...
       344                          1.0464590              28.4756
      -------------------------------------------------------------
                  HL-Gap            0.0010647 Eh            0.0290 eV
             Fermi-level           -0.2847563 Eh           -7.7486 eV

 SCC (total)                   0 d,  0 h,  0 min,  1.439 sec
 SCC setup                      ...        0 min,  0.000 sec (  0.024%)
 Dispersion                     ...        0 min,  0.001 sec (  0.074%)
 classical contributions        ...        0 min,  0.000 sec (  0.016%)
 integral evaluation            ...        0 min,  0.007 sec (  0.452%)
 iterations                     ...        0 min,  1.396 sec ( 97.031%)
 molecular gradient             ...        0 min,  0.032 sec (  2.248%)
 printout                       ...        0 min,  0.002 sec (  0.154%)

         :::::::::::::::::::::::::::::::::::::::::::::::::::::
         ::                     SUMMARY                     ::
         :::::::::::::::::::::::::::::::::::::::::::::::::::::
         :: total energy            -207.431612317143 Eh    ::
         :: gradient norm              0.001048923409 Eh/a0 ::
         :: HOMO-LUMO gap              0.028971076653 eV    ::
         ::.................................................::
         :: SCC energy              -209.738376934745 Eh    ::
         :: -> isotropic ES            0.528331897502 Eh    ::
         :: -> anisotropic ES         -0.020342327024 Eh    ::
         :: -> anisotropic XC          0.056107573016 Eh    ::
         :: -> dispersion             -0.181881653273 Eh    ::
         :: repulsion energy           2.304085549034 Eh    ::
         :: add. restraining           0.000000000000 Eh    ::
         :: total charge              -0.999997431213 e     ::
         :::::::::::::::::::::::::::::::::::::::::::::::::::::

           -------------------------------------------------
          |                Property Printout                |
           -------------------------------------------------

    * Orbital Energies and Occupations

         #    Occupation            Energy/Eh            Energy/eV
      -------------------------------------------------------------
         1        2.0000           -0.7143578             -19.4387
       ...           ...                  ...                  ...
       169        2.0000           -0.3317668              -9.0278
       170        2.0000           -0.3233307              -8.7983
       171        2.0000           -0.3202674              -8.7149
       172        2.0000           -0.3188111              -8.6753
       173        2.0000           -0.3173216              -8.6348
       174        2.0000           -0.3152932              -8.5796
       175        2.0000           -0.3117172              -8.4823
       176        2.0000           -0.3113705              -8.4728
       177        2.0000           -0.3086439              -8.3986
       178        2.0000           -0.3014216              -8.2021
       179        2.0000           -0.2985882              -8.1250
       180        2.0000           -0.2968546              -8.0778
       181        1.2731           -0.2852886              -7.7631 (HOMO)
       182        0.7269           -0.2842240              -7.7341 (LUMO)
       183                         -0.2218637              -6.0372
       184                         -0.2200510              -5.9879
       185                         -0.1926344              -5.2418
       186                         -0.1905030              -5.1839
       187                         -0.1865590              -5.0765
       188                         -0.1850772              -5.0362
       189                         -0.1683983              -4.5824
       190                         -0.1651059              -4.4928
       191                         -0.1596102              -4.3432
       192                         -0.1584368              -4.3113
       ...                                ...                  ...
       344                          1.0464590              28.4756
      -------------------------------------------------------------
                  HL-Gap            0.0010647 Eh            0.0290 eV
             Fermi-level           -0.2847563 Eh           -7.7486 eV

     #   Z          covCN         q      C6AA      α(0)
     1   6 C        2.949    -0.059    29.470     8.904
     2   6 C        2.883     0.174    24.265     8.076
     3   6 C        2.975    -0.027    28.669     8.783
     4   6 C        2.969     0.092    25.945     8.355
     5   6 C        2.957    -0.048    29.186     8.861
     6   6 C        2.958    -0.056    29.390     8.892
     7   6 C        2.974     0.043    27.030     8.528
     8   6 C        2.995    -0.028    28.689     8.786
     9   6 C        2.963     0.092    25.962     8.357
    10   7 N        1.858    -0.248    27.319     7.747
    11   6 C        2.972    -0.025    28.612     8.774
    12   6 C        2.967     0.095    25.892     8.346
    13   7 N        1.860    -0.248    27.322     7.748
    14   6 C        2.960     0.093    25.934     8.353
    15   6 C        2.956    -0.048    29.201     8.863
    16   6 C        2.956    -0.054    29.332     8.883
    17   6 C        2.947    -0.038    28.935     8.822
    18   6 C        2.849     0.174    24.265     8.073
    19   6 C        2.935    -0.059    29.463     8.902
    20   6 C        2.954    -0.063    29.573     8.920
    21   6 C        2.977    -0.050    29.246     8.871
    22   8 O        1.633    -0.421    21.278     6.226
    23   8 O        1.634    -0.426    21.376     6.241
    24  16 S        2.842     0.673   116.603    18.174
    25  16 S        2.873     0.745   114.316    17.995
    26  16 S        2.864     0.650   117.339    18.232
    27   6 C        2.944    -0.055    29.355     8.886
    28   6 C        2.854     0.170    24.338     8.086
    29   6 C        2.969    -0.033    28.811     8.804
    30   6 C        2.967     0.093    25.922     8.351
    31   6 C        2.975    -0.059    29.470     8.905
    32   6 C        2.957    -0.054    29.338     8.884
    33   6 C        2.972     0.039    27.122     8.543
    34   6 C        2.996    -0.029    28.708     8.789
    35   6 C        2.962     0.095    25.892     8.346
    36   7 N        1.861    -0.255    27.495     7.772
    37   6 C        2.977    -0.029    28.722     8.791
    38   6 C        2.973     0.093    25.939     8.354
    39   7 N        1.857    -0.247    27.300     7.744
    40   6 C        2.963     0.091    25.971     8.359
    41   6 C        2.945    -0.040    28.989     8.831
    42   6 C        2.957    -0.054    29.332     8.883
    43   6 C        2.957    -0.051    29.257     8.872
    44   6 C        2.847     0.177    24.193     8.061
    45   6 C        2.951    -0.065    29.617     8.926
    46   6 C        2.958    -0.055    29.359     8.887
    47   6 C        2.953    -0.049    29.222     8.866
    48   8 O        1.637    -0.410    21.044     6.192
    49   8 O        1.637    -0.409    21.028     6.190
    50  16 S        3.023     0.691   116.020    18.129
    51  16 S        2.869     0.652   117.257    18.225
    52  16 S        2.865     0.648   117.402    18.236
    53   5 B        3.205     0.630    13.211     6.062
    54   8 O        0.860    -0.503    23.845     6.547
    55   8 O        1.705    -0.377    20.392     6.097
    56   6 C        3.742     0.052    19.771     6.344
    57   8 O        1.846    -0.394    20.695     6.143
    58   6 C        3.719     0.040    20.018     6.391
    59   8 O        0.860    -0.519    24.206     6.596
    60   8 O        0.870    -0.545    24.795     6.676
    61   8 O        1.705    -0.390    20.638     6.134
    62   6 C        3.728     0.049    19.844     6.360
    63   8 O        0.860    -0.503    23.853     6.548
    64   8 O        1.705    -0.377    20.387     6.096
    65   6 C        3.744     0.052    19.769     6.343
    66   8 O        0.860    -0.510    24.004     6.569
    67   8 O        1.706    -0.367    20.208     6.069
    68   6 C        3.753     0.051    19.773     6.341
    69   8 O        0.860    -0.512    24.059     6.576
    70   8 O        1.706    -0.373    20.318     6.086
    71   6 C        3.724     0.054    19.769     6.349
    72   1 H        0.925     0.052     2.299     2.371
    73   1 H        0.924     0.056     2.242     2.342
    74   1 H        0.924     0.033     2.538     2.491
    75   1 H        0.925     0.056     2.248     2.345
    76   1 H        0.924     0.052     2.291     2.367
    77   1 H        0.924     0.040     2.448     2.447
    78   1 H        0.924     0.047     2.359     2.402
    79   1 H        0.924     0.045     2.387     2.416
    80   1 H        0.924     0.048     2.351     2.398
    81   1 H        0.924     0.049     2.330     2.387
    82   1 H        0.924     0.033     2.548     2.496
    83   1 H        0.924     0.057     2.235     2.338
    84   1 H        0.925     0.054     2.276     2.359
    85   1 H        0.924     0.075     2.037     2.232
    86   1 H        0.924     0.047     2.352     2.398
    87   1 H        0.925     0.052     2.297     2.370
    88   1 H        0.924     0.033     2.541     2.493
    89   1 H        0.924     0.057     2.238     2.340
    90   1 H        0.926     0.073     2.051     2.240
    91   1 H        0.926     0.054     2.266     2.354
    92   1 H        0.926     0.076     2.017     2.221
    93   1 H        0.926     0.054     2.274     2.358
    94   1 H        0.926     0.060     2.201     2.320
    95   1 H        0.926     0.067     2.119     2.276
    96   1 H        0.926     0.053     2.283     2.363
    97   1 H        0.926     0.052     2.297     2.370
    98   1 H        0.926     0.071     2.075     2.253
    99   1 H        0.926     0.077     2.008     2.216
   100   1 H        0.926     0.075     2.029     2.228
   101   1 H        0.926     0.056     2.242     2.341

 Mol. C6AA /au·bohr⁶  :     189453.663309
 Mol. C8AA /au·bohr⁸  :    5213163.870103
 Mol. α(0) /au        :        684.485138


Wiberg/Mayer (AO) data.
largest (>0.10) Wiberg bond orders for each atom

 ---------------------------------------------------------------------------
     #   Z sym  total        # sym  WBO       # sym  WBO       # sym  WBO
 ---------------------------------------------------------------------------
     1   6 C    3.911 --     2 C    1.392     6 C    1.339    96 H    0.956
     2   6 C    3.945 --     1 C    1.392     3 C    1.257    22 O    1.099
     3   6 C    3.931 --     2 C    1.257     7 C    1.218     4 C    1.194
     4   6 C    3.971 --    10 N    1.357     5 C    1.234     3 C    1.194
     5   6 C    3.923 --     6 C    1.517     4 C    1.234    99 H    0.958
     6   6 C    3.963 --     5 C    1.517     1 C    1.339    24 S    0.909
     7   6 C    3.983 --     8 C    1.313     3 C    1.218    11 C    1.207
     8   6 C    3.982 --     7 C    1.313     9 C    1.197    14 C    1.194
     9   6 C    3.979 --    10 N    1.344    17 C    1.254     8 C    1.197
    10   7 N    2.928 --     4 C    1.357     9 C    1.344
    11   6 C    3.930 --    18 C    1.264     7 C    1.207    12 C    1.191
    12   6 C    3.970 --    13 N    1.358    21 C    1.238    11 C    1.191
    13   7 N    2.920 --    12 C    1.358    14 C    1.337
    14   6 C    3.980 --    13 N    1.337    15 C    1.267     8 C    1.194
    15   6 C    3.805 --    16 C    1.423    14 C    1.267   101 H    0.965
    16   6 C    3.966 --    17 C    1.439    15 C    1.423    26 S    0.911
    17   6 C    3.808 --    16 C    1.439     9 C    1.254   100 H    0.960
    18   6 C    3.942 --    19 C    1.381    11 C    1.264    23 O    1.103
    19   6 C    3.901 --    18 C    1.381    20 C    1.348    97 H    0.955
    20   6 C    3.962 --    21 C    1.506    19 C    1.348    25 S    0.913
    21   6 C    3.913 --    20 C    1.506    12 C    1.238    98 H    0.961
    22   8 O    2.103 --     2 C    1.099    53 B    0.767
    23   8 O    2.119 --    18 C    1.103    53 B    0.778
    24  16 S    3.909 --    69 O    1.843    70 O    1.041     6 C    0.909
    25  16 S    3.867 --    59 O    1.829    57 O    0.973    20 C    0.913
    26  16 S    3.902 --    54 O    1.849    55 O    1.029    16 C    0.911
    27   6 C    3.912 --    28 C    1.382    32 C    1.349    95 H    0.961
    28   6 C    3.938 --    27 C    1.382    29 C    1.244    48 O    1.114
    29   6 C    3.939 --    28 C    1.244    33 C    1.224    30 C    1.199
    30   6 C    3.973 --    36 N    1.343    31 C    1.249    29 C    1.199
    31   6 C    3.925 --    32 C    1.502    30 C    1.249    93 H    0.965
    32   6 C    3.963 --    31 C    1.502    27 C    1.349    50 S    0.912
    33   6 C    3.982 --    34 C    1.316    29 C    1.224    37 C    1.202
    34   6 C    3.981 --    33 C    1.316    40 C    1.190    35 C    1.190
    35   6 C    3.978 --    36 N    1.355    43 C    1.254    34 C    1.190
    36   7 N    2.916 --    35 C    1.355    30 C    1.343
    37   6 C    3.922 --    44 C    1.251    33 C    1.202    38 C    1.185
    38   6 C    3.969 --    39 N    1.363    47 C    1.233    37 C    1.185
    39   7 N    2.936 --    38 C    1.363    40 C    1.339
    40   6 C    3.979 --    39 N    1.339    41 C    1.264    34 C    1.190
    41   6 C    3.803 --    42 C    1.427    40 C    1.264    90 H    0.960
    42   6 C    3.965 --    43 C    1.433    41 C    1.427    52 S    0.911
    43   6 C    3.802 --    42 C    1.433    35 C    1.254    91 H    0.965
    44   6 C    3.930 --    45 C    1.390    37 C    1.251    49 O    1.109
    45   6 C    3.903 --    44 C    1.390    46 C    1.338    94 H    0.952
    46   6 C    3.966 --    47 C    1.513    45 C    1.338    51 S    0.910
    47   6 C    3.917 --    46 C    1.513    38 C    1.233    92 H    0.958
    48   8 O    2.149 --    28 C    1.114    53 B    0.792
    49   8 O    2.163 --    44 C    1.109    53 B    0.807
    50  16 S    3.945 --    60 O    1.782    61 O    1.022    32 C    0.912
                            57 O    0.110
    51  16 S    3.915 --    66 O    1.838    67 O    1.051    46 C    0.910
    52  16 S    3.903 --    63 O    1.848    64 O    1.030    42 C    0.911
    53   5 B    3.300 --    49 O    0.807    48 O    0.792    23 O    0.778
                            22 O    0.767
    54   8 O    2.030 --    26 S    1.849
    55   8 O    2.158 --    26 S    1.029    56 C    0.982
    56   6 C    3.940 --    55 O    0.982    88 H    0.979    87 H    0.975
                            89 H    0.972
    57   8 O    2.193 --    25 S    0.973    58 C    0.968    50 S    0.110
    58   6 C    3.926 --    86 H    0.977    84 H    0.977    57 O    0.968
                            85 H    0.964
    59   8 O    2.012 --    25 S    1.829
    60   8 O    1.981 --    50 S    1.782
    61   8 O    2.146 --    50 S    1.022    62 C    0.984
    62   6 C    3.941 --    61 O    0.984    82 H    0.978    81 H    0.976
                            83 H    0.972
Note: The following floating-point exceptions are signalling: IEEE_UNDERFLOW_FLAG
normal termination of xtb
    63   8 O    2.029 --    52 S    1.848
    64   8 O    2.159 --    52 S    1.030    65 C    0.982
    65   6 C    3.940 --    64 O    0.982    74 H    0.979    72 H    0.976
                            73 H    0.972
    66   8 O    2.017 --    51 S    1.838
    67   8 O    2.175 --    51 S    1.051    68 C    0.978
    68   6 C    3.938 --    67 O    0.978    77 H    0.977    75 H    0.976
                            76 H    0.974
    69   8 O    2.021 --    24 S    1.843
    70   8 O    2.168 --    24 S    1.041    71 C    0.977
    71   6 C    3.941 --    70 O    0.977    79 H    0.977    80 H    0.976
                            78 H    0.975
    72   1 H    0.997 --    65 C    0.976
    73   1 H    0.997 --    65 C    0.972
    74   1 H    0.999 --    65 C    0.979
    75   1 H    0.997 --    68 C    0.976
    76   1 H    0.997 --    68 C    0.974
    77   1 H    0.998 --    68 C    0.977
    78   1 H    0.998 --    71 C    0.975
    79   1 H    0.998 --    71 C    0.977
    80   1 H    0.998 --    71 C    0.976
    81   1 H    0.997 --    62 C    0.976
    82   1 H    0.999 --    62 C    0.978
    83   1 H    0.997 --    62 C    0.972
    84   1 H    0.997 --    58 C    0.977
    85   1 H    0.994 --    58 C    0.964
    86   1 H    0.998 --    58 C    0.977
    87   1 H    0.997 --    56 C    0.975
    88   1 H    0.999 --    56 C    0.979
    89   1 H    0.997 --    56 C    0.972
    90   1 H    0.994 --    41 C    0.960
    91   1 H    0.996 --    43 C    0.965
    92   1 H    0.993 --    47 C    0.958
    93   1 H    0.996 --    31 C    0.965
    94   1 H    0.995 --    45 C    0.952
    95   1 H    0.995 --    27 C    0.961
    96   1 H    0.997 --     1 C    0.956
    97   1 H    0.997 --    19 C    0.955
    98   1 H    0.994 --    21 C    0.961
    99   1 H    0.993 --     5 C    0.958
   100   1 H    0.994 --    17 C    0.960
   101   1 H    0.996 --    15 C    0.965
 ---------------------------------------------------------------------------

Topologies differ in bond orders
Writing corrected topology to xtbtopo.mol

molecular dipole:
                 x           y           z       tot (Debye)
 q only:        2.007      -3.114      -0.148
   full:        1.389      -2.660      -0.095       7.631
molecular quadrupole (traceless):
                xx          xy          yy          xz          yz          zz
 q only:      -61.294       6.242      -7.126     -24.410      25.323      68.420
  q+dip:      -59.646      13.938     -11.353     -19.354      17.580      70.999
   full:      -61.095      16.766     -18.039     -22.610      18.450      79.134


           -------------------------------------------------
          | TOTAL ENERGY             -207.431612317143 Eh   |
          | GRADIENT NORM               0.001048923409 Eh/α |
          | HOMO-LUMO GAP               0.028971076653 eV   |
           -------------------------------------------------
########################################################################
[WARNING] Runtime exception occurred
-2- restart_readRestart: Multiplicity missmatch in restart file.
-1- restart_readRestart: Number of electron missmatch in restart file.
########################################################################

------------------------------------------------------------------------
 * finished run on 2024/10/31 at 14:22:38.646     
------------------------------------------------------------------------
 total:
 * wall-time:     0 d,  0 h,  0 min,  1.455 sec
 *  cpu-time:     0 d,  0 h,  0 min,  5.298 sec
 * ratio c/w:     3.640 speedup
 SCF:
 * wall-time:     0 d,  0 h,  0 min,  1.440 sec
 *  cpu-time:     0 d,  0 h,  0 min,  5.266 sec
 * ratio c/w:     3.658 speedup

