      -----------------------------------------------------------      
     |                   =====================                   |     
     |                           x T B                           |     
     |                   =====================                   |     
     |                         S. Grimme                         |     
     |          Mulliken Center for Theoretical Chemistry        |     
     |                    University of Bonn                     |     
      -----------------------------------------------------------      

   * xtb version 6.6.1 (8d0f1dd) compiled by 'runner@Mac-1690902418499.local' on 2023-08-01

   xtb is free software: you can redistribute it and/or modify it under
   the terms of the GNU Lesser General Public License as published by
   the Free Software Foundation, either version 3 of the License, or
   (at your option) any later version.
   
   xtb is distributed in the hope that it will be useful,
   but WITHOUT ANY WARRANTY; without even the implied warranty of
   MERCHANTABILITY or FITNESS FOR A PARTICULAR PURPOSE.  See the
   GNU Lesser General Public License for more details.
   
   Cite this work as:
   * C. Bannwarth, E. Caldeweyher, S. Ehlert, A. Hansen, P. Pracht,
     J. Seibert, S. Spicher, S. Grimme, WIREs Comput. Mol. Sci., 2020, 11,
     e01493. DOI: 10.1002/wcms.1493
   
   for GFN2-xTB:
   * C. Bannwarth, S. Ehlert and S. Grimme., J. Chem. Theory Comput., 2019,
     15, 1652-1671. DOI: 10.1021/acs.jctc.8b01176
   for GFN1-xTB:
   * S. Grimme, C. Bannwarth, P. Shushkov, J. Chem. Theory Comput., 2017,
     13, 1989-2009. DOI: 10.1021/acs.jctc.7b00118
   for GFN0-xTB:
   * P. Pracht, E. Caldeweyher, S. Ehlert, S. Grimme, ChemRxiv, 2019, preprint.
     DOI: 10.26434/chemrxiv.8326202.v1
   for GFN-FF:
   * S. Spicher and S. Grimme, Angew. Chem. Int. Ed., 2020, 59, 15665-15673.
     DOI: 10.1002/anie.202004239
   
   for ALPB and GBSA implicit solvation:
   * S. Ehlert, M. Stahn, S. Spicher, S. Grimme, J. Chem. Theory Comput.,
     2021, 17, 4250-4261. DOI: 10.1021/acs.jctc.1c00471
   
   for DFT-D4:
   * E. Caldeweyher, C. Bannwarth and S. Grimme, J. Chem. Phys., 2017,
     147, 034112. DOI: 10.1063/1.4993215
   * E. Caldeweyher, S. Ehlert, A. Hansen, H. Neugebauer, S. Spicher,
     C. Bannwarth and S. Grimme, J. Chem. Phys., 2019, 150, 154122.
     DOI: 10.1063/1.5090222
   * E. Caldeweyher, J.-M. Mewes, S. Ehlert and S. Grimme, Phys. Chem. Chem. Phys.
     2020, 22, 8499-8512. DOI: 10.1039/D0CP00502A
   
   for sTDA-xTB:
   * S. Grimme and C. Bannwarth, J. Chem. Phys., 2016, 145, 054103.
     DOI: 10.1063/1.4959605
   
   in the mass-spec context:
   * V. Asgeirsson, C. Bauer and S. Grimme, Chem. Sci., 2017, 8, 4879.
     DOI: 10.1039/c7sc00601b
   * J. Koopman and S. Grimme, ACS Omega 2019, 4, 12, 15120-15133.
     DOI: 10.1021/acsomega.9b02011
   
   for metadynamics refer to:
   * S. Grimme, J. Chem. Theory Comput., 2019, 155, 2847-2862
     DOI: 10.1021/acs.jctc.9b00143
   
   for SPH calculations refer to:
   * S. Spicher and S. Grimme, J. Chem. Theory Comput., 2021, 17, 1701-1714
     DOI: 10.1021/acs.jctc.0c01306
   
   with help from (in alphabetical order)
   P. Atkinson, C. Bannwarth, F. Bohle, G. Brandenburg, E. Caldeweyher
   M. Checinski, S. Dohm, S. Ehlert, S. Ehrlich, I. Gerasimov, C. Hölzer
   A. Katbashev, J. Koopman, C. Lavigne, S. Lehtola, F. März, M. Müller,
   F. Musil, H. Neugebauer, J. Pisarek, C. Plett, P. Pracht, F. Pultar,
   J. Seibert, P. Shushkov, S. Spicher, M. Stahn, M. Steiner, T. Strunk,
   J. Stückrath, T. Rose, and J. Unsleber
   
 * started run on 2024/10/31 at 14:18:18.008     

           -------------------------------------------------
          |                Calculation Setup                |
           -------------------------------------------------

          program call               : xtb Base1SO2Me.mol --opt --gfn2 --chrg -1 --uhf 0 --tight
          coordinate file            : Base1SO2Me.mol
          omp threads                :                     8

   ID    Z sym.   atoms
    1    6 C      1-9, 11, 12, 14-21, 27-35, 37, 38, 40-47, 56, 58, 62, 65,
                  68, 71
    2    7 N      10, 13, 36, 39
    3    8 O      22, 23, 48, 49, 54, 55, 57, 59-61, 63, 64, 66, 67, 69, 70
    4   16 S      24-26, 50-52
    5    5 B      53
    6    1 H      72-101

molecular fragmentation (1/2 indicates fragments):
111111111111111111111111112222222222222222222222222211111112222222221112
22222111222111111222222112211
# atoms in fragment 1/2:    49    52
 fragment masses (1/2) :      540.35      533.57
CMA distance (Bohr)    :  15.103
constraining FC (au)   :  0.0500
########################################################################
[WARNING] Please study the warnings concerning your input carefully
-1- prog_main_parseArguments: Unknown option '--tight' provided
########################################################################

           -------------------------------------------------
          |                 G F N 2 - x T B                 |
           -------------------------------------------------

        Reference                      10.1021/acs.jctc.8b01176
      * Hamiltonian:
        H0-scaling (s, p, d)           1.850000    2.230000    2.230000
        zeta-weighting                 0.500000
      * Dispersion:
        s8                             2.700000
        a1                             0.520000
        a2                             5.000000
        s9                             5.000000
      * Repulsion:
        kExp                           1.500000    1.000000
        rExp                           1.000000
      * Coulomb:
        alpha                          2.000000
        third order                    shell-resolved
        anisotropic                    true
        a3                             3.000000
        a5                             4.000000
        cn-shift                       1.200000
        cn-exp                         4.000000
        max-rad                        5.000000

q/qsh data taken from xtbrestart
CAMM data taken from xtbrestart

          ...................................................
          :                      SETUP                      :
          :.................................................:
          :  # basis functions                 350          :
          :  # atomic orbitals                 344          :
          :  # shells                          178          :
          :  # electrons                       362          :
          :  max. iterations                   250          :
          :  Hamiltonian                  GFN2-xTB          :
          :  restarted?                       true          :
          :  GBSA solvation                  false          :
          :  PC potential                    false          :
          :  electronic temp.          300.0000000     K    :
          :  accuracy                    1.0000000          :
          :  -> integral cutoff          0.2500000E+02      :
          :  -> integral neglect         0.1000000E-07      :
          :  -> SCF convergence          0.1000000E-05 Eh   :
          :  -> wf. convergence          0.1000000E-03 e    :
          :  Broyden damping             0.4000000          :
          ...................................................

 iter      E             dE          RMSdq      gap      omega  full diag
   1   -204.9495206 -0.204950E+03  0.525E+00    0.01       0.0  T
   2   -197.2418312  0.770769E+01  0.986E+00    0.11       1.0  T
   3   -206.4797839 -0.923795E+01  0.321E+00    0.04       1.0  T
   4   -201.4134007  0.506638E+01  0.579E+00    0.30       1.0  T
   5   -196.7743262  0.463907E+01  0.702E+00    0.33       1.0  T
   6   -204.7193547 -0.794503E+01  0.360E+00    0.22       1.0  T
   7   -206.5734274 -0.185407E+01  0.158E+00    0.06       1.0  T
   8   -206.5255130  0.479144E-01  0.158E+00    0.14       1.0  T
   9   -206.4826667  0.428463E-01  0.171E+00    0.13       1.0  T
  10   -206.5952951 -0.112628E+00  0.113E+00    0.14       1.0  T
  11   -206.6928988 -0.976037E-01  0.114E+00    0.03       1.0  T
  12   -206.6887568  0.414203E-02  0.103E+00    0.07       1.0  T
  13   -206.7745855 -0.858287E-01  0.651E-01    0.03       1.0  T
  14   -206.7479719  0.266136E-01  0.661E-01    0.09       1.0  T
  15   -206.7781084 -0.301365E-01  0.643E-01    0.07       1.0  T
  16   -206.8127821 -0.346737E-01  0.447E-01    0.02       1.0  T
  17   -206.7886788  0.241034E-01  0.551E-01    0.05       1.0  T
  18   -206.8219960 -0.333172E-01  0.333E-01    0.03       1.0  T
  19   -206.8277127 -0.571674E-02  0.233E-01    0.01       1.0  T
  20   -206.7761085  0.516042E-01  0.484E-01    0.07       1.0  T
  21   -206.8281966 -0.520881E-01  0.179E-01    0.02       1.0  T
  22   -206.8260174  0.217924E-02  0.183E-01    0.03       1.0  T
  23   -206.8283739 -0.235652E-02  0.142E-01    0.02       1.0  T
  24   -206.8311593 -0.278543E-02  0.625E-02    0.01       1.0  T
  25   -206.8318197 -0.660397E-03  0.396E-02    0.01       1.0  T
  26   -206.8318246 -0.488605E-05  0.322E-02    0.01       1.0  T
  27   -206.8319343 -0.109691E-03  0.179E-02    0.01       1.0  T
  28   -206.8319243  0.100479E-04  0.174E-02    0.01       1.0  T
  29   -206.8318892  0.351184E-04  0.201E-02    0.01       1.0  T
  30   -206.8319549 -0.657309E-04  0.113E-02    0.01       1.0  T
  31   -206.8319711 -0.161733E-04  0.485E-03    0.01       2.0  T
  32   -206.8319733 -0.223437E-05  0.252E-03    0.01       3.9  T
  33   -206.8319732  0.124191E-06  0.237E-03    0.01       4.2  T
  34   -206.8319730  0.122830E-06  0.168E-03    0.01       5.9  T
  35   -206.8319738 -0.704301E-06  0.677E-04    0.01      14.7  T
  36   -206.8319738 -0.270898E-07  0.470E-04    0.01      21.2  T

   *** convergence criteria satisfied after 36 iterations ***

         #    Occupation            Energy/Eh            Energy/eV
      -------------------------------------------------------------
         1        2.0000           -0.7354602             -20.0129
       ...           ...                  ...                  ...
       175        1.9997           -0.2584895              -7.0339
       176        1.9994           -0.2577195              -7.0129
       177        1.9796           -0.2544193              -6.9231
       178        1.9609           -0.2537934              -6.9061
       179        1.9131           -0.2530123              -6.8848
       180        1.7555           -0.2519478              -6.8558
       181        1.2633           -0.2505873              -6.8188 (HOMO)
       182        1.1286           -0.2503207              -6.8116 (LUMO)
       183                         -0.2116143              -5.7583
       184                         -0.2111751              -5.7464
       185                         -0.2091312              -5.6907
       186                         -0.2070496              -5.6341
       ...                                ...                  ...
       344                          1.3797192              37.5441
      -------------------------------------------------------------
                  HL-Gap            0.0002666 Eh            0.0073 eV
             Fermi-level           -0.2500750 Eh           -6.8049 eV

 SCC (total)                   0 d,  0 h,  0 min,  2.671 sec
 SCC setup                      ...        0 min,  0.000 sec (  0.011%)
 Dispersion                     ...        0 min,  0.001 sec (  0.035%)
 classical contributions        ...        0 min,  0.000 sec (  0.007%)
 integral evaluation            ...        0 min,  0.006 sec (  0.226%)
 iterations                     ...        0 min,  2.619 sec ( 98.033%)
 molecular gradient             ...        0 min,  0.044 sec (  1.642%)
 printout                       ...        0 min,  0.001 sec (  0.047%)

         :::::::::::::::::::::::::::::::::::::::::::::::::::::
         ::                     SUMMARY                     ::
         :::::::::::::::::::::::::::::::::::::::::::::::::::::
         :: total energy            -205.193949250482 Eh    ::
         :: gradient norm              0.683980870502 Eh/a0 ::
         :: HOMO-LUMO gap              0.007254758142 eV    ::
         ::.................................................::
         :: SCC energy              -206.831973777710 Eh    ::
         :: -> isotropic ES            0.495585472581 Eh    ::
         :: -> anisotropic ES          0.038928542379 Eh    ::
         :: -> anisotropic XC          0.075760302469 Eh    ::
         :: -> dispersion             -0.163940696142 Eh    ::
         :: repulsion energy           1.636917964163 Eh    ::
         :: add. restraining           0.000000000000 Eh    ::
         :: total charge              -0.999999634955 e     ::
         :::::::::::::::::::::::::::::::::::::::::::::::::::::

      ----------------------------------------------------------- 
     |                   =====================                   |
     |                        A N C O P T                        |
     |                   =====================                   |
     |               Approximate Normal Coordinate               |
     |                Rational Function Optimizer                |
      ----------------------------------------------------------- 

          ...................................................
          :                      SETUP                      :
          :.................................................:
          :   optimization level            normal          :
          :   max. optcycles                   303          :
          :   ANC micro-cycles                  20          :
          :   degrees of freedom               297          :
          :.................................................:
          :   RF solver                   davidson          :
          :   write xtbopt.log                true          :
          :   linear?                        false          :
          :   energy convergence         0.5000000E-05 Eh   :
          :   grad. convergence          0.1000000E-02 Eh/α :
          :   maxmium RF displ.          1.0000000          :
          :   Hlow (freq-cutoff)         0.1000000E-01      :
          :   Hmax (freq-cutoff)         5.0000000          :
          :   S6 in model hess.         20.0000000          :
          ...................................................

generating ANC from model Hessian ...
Using Lindh-Hessian (1995)
 Shifting diagonal of input Hessian by    1.0410959510220044E-002
 Lowest  eigenvalues of input Hessian
    0.010000    0.010394    0.000000    0.000000    0.000000    0.000000
    0.000000    0.000000    0.010428    0.010459    0.010522    0.010565
    0.010607    0.010656    0.010715    0.010788    0.010820    0.010868
 Highest eigenvalues
    3.661941    3.671356    3.671710    3.671718    3.682514    3.682862


........................................................................
.............................. CYCLE    1 ..............................
........................................................................

 iter      E             dE          RMSdq      gap      omega  full diag
   1   -206.8319738 -0.206832E+03  0.286E-04    0.01       0.0  T
   2   -206.8319716  0.220980E-05  0.311E-03    0.01       3.2  T
   3   -206.8319732 -0.164989E-05  0.157E-03    0.01       6.3  T
   4   -206.8319736 -0.412901E-06  0.854E-04    0.01      11.6  T
   5   -206.8319738 -0.122847E-06  0.394E-04    0.01      25.2  T
     SCC iter.                  ...        0 min,  0.337 sec
     gradient                   ...        0 min,  0.032 sec
 * total energy  :  -205.1939492 Eh     change        0.8200317E-08 Eh
   gradient norm :     0.6839892 Eh/α   predicted     0.0000000E+00 (-100.00%)
   displ. norm   :     0.7816619 α      lambda       -0.4800545E+00
   maximum displ.:     0.1944699 α      in ANC's #142, #117, #144, ...

........................................................................
.............................. CYCLE    2 ..............................
........................................................................

 iter      E             dE          RMSdq      gap      omega  full diag
   1   -207.1242945 -0.207124E+03  0.189E+00    0.04       0.0  T
   2   -206.7746087  0.349686E+00  0.216E+00    0.17       1.0  T
   3   -207.0228276 -0.248219E+00  0.166E+00    0.08       1.0  T
   4   -207.0637206 -0.408930E-01  0.117E+00    0.21       1.0  T
   5   -206.9829579  0.807627E-01  0.129E+00    0.14       1.0  T
   6   -207.2196213 -0.236663E+00  0.705E-01    0.02       1.0  T
   7   -207.1603687  0.592526E-01  0.756E-01    0.07       1.0  T
   8   -207.1730781 -0.127094E-01  0.804E-01    0.11       1.0  T
   9   -207.2469934 -0.739153E-01  0.486E-01    0.01       1.0  T
  10   -207.2635916 -0.165983E-01  0.260E-01    0.02       1.0  T
  11   -207.2606737  0.291789E-02  0.265E-01    0.02       1.0  T
  12   -207.2359986  0.246751E-01  0.385E-01    0.06       1.0  T
  13   -207.2662764 -0.302778E-01  0.219E-01    0.01       1.0  T
  14   -207.2691703 -0.289392E-02  0.101E-01    0.01       1.0  T
  15   -207.2685146  0.655682E-03  0.983E-02    0.01       1.0  T
  16   -207.2701006 -0.158595E-02  0.354E-02    0.01       1.0  T
  17   -207.2700813  0.192652E-04  0.374E-02    0.01       1.0  T
  18   -207.2702395 -0.158157E-03  0.139E-02    0.01       1.0  T
  19   -207.2702435 -0.405495E-05  0.107E-02    0.01       1.0  T
  20   -207.2702527 -0.918630E-05  0.560E-03    0.01       1.8  T
  21   -207.2702424  0.102698E-04  0.838E-03    0.01       1.2  T
  22   -207.2702554 -0.129214E-04  0.256E-03    0.01       3.9  T
  23   -207.2702565 -0.111354E-05  0.106E-03    0.01       9.4  T
  24   -207.2702560  0.502908E-06  0.166E-03    0.01       6.0  T
  25   -207.2702566 -0.654467E-06  0.374E-04    0.01      26.6  T
  26   -207.2702566  0.272138E-07  0.488E-04    0.01      20.4  T
     SCC iter.                  ...        0 min,  1.428 sec
     gradient                   ...        0 min,  0.031 sec
 * total energy  :  -205.6621535 Eh     change       -0.4682043E+00 Eh
   gradient norm :     0.6352475 Eh/α   predicted    -0.3867067E+00 ( -17.41%)
   displ. norm   :     0.9788557 α      lambda       -0.6148541E+00
   maximum displ.:     0.2692022 α      in ANC's #180, #142, #183, ...

........................................................................
.............................. CYCLE    3 ..............................
........................................................................

 iter      E             dE          RMSdq      gap      omega  full diag
   1   -207.6686504 -0.207669E+03  0.139E+00    0.03       0.0  T
   2   -207.4786030  0.190047E+00  0.168E+00    0.17       1.0  T
   3   -207.6689160 -0.190313E+00  0.116E+00    0.01       1.0  T
   4   -207.6616950  0.722093E-02  0.896E-01    0.13       1.0  T
   5   -207.5810008  0.806942E-01  0.100E+00    0.31       1.0  T
   6   -207.7046284 -0.123628E+00  0.960E-01    0.09       1.0  T
   7   -207.7638970 -0.592686E-01  0.479E-01    0.07       1.0  T
   8   -207.6750655  0.888315E-01  0.741E-01    0.13       1.0  T
   9   -207.7879236 -0.112858E+00  0.306E-01    0.02       1.0  T
  10   -207.8014710 -0.135474E-01  0.946E-02    0.01       1.0  T
  11   -207.7993282  0.214283E-02  0.113E-01    0.02       1.0  T
  12   -207.7951311  0.419711E-02  0.158E-01    0.02       1.0  T
  13   -207.7930435  0.208756E-02  0.180E-01    0.03       1.0  T
  14   -207.8024180 -0.937446E-02  0.239E-02    0.01       1.0  T
  15   -207.8021894  0.228586E-03  0.343E-02    0.01       1.0  T
  16   -207.8024976 -0.308190E-03  0.945E-03    0.01       1.1  T
  17   -207.8025022 -0.465109E-05  0.749E-03    0.01       1.3  T
  18   -207.8025037 -0.149588E-05  0.481E-03    0.01       2.1  T
  19   -207.8025071 -0.332776E-05  0.205E-03    0.01       4.9  T
  20   -207.8025071 -0.221020E-07  0.144E-03    0.01       6.9  T
  21   -207.8025073 -0.193789E-06  0.105E-03    0.01       9.5  T
  22   -207.8025075 -0.275778E-06  0.424E-04    0.01      23.5  T
  23   -207.8025075  0.276348E-07  0.499E-04    0.01      19.9  T
     SCC iter.                  ...        0 min,  1.133 sec
     gradient                   ...        0 min,  0.032 sec
 * total energy  :  -206.2206395 Eh     change       -0.5584860E+00 Eh
   gradient norm :     0.5346261 Eh/α   predicted    -0.6019913E+00 (   7.79%)
   displ. norm   :     0.8951100 α      lambda       -0.4496078E+00
   maximum displ.:     0.2307251 α      in ANC's #142, #180, #183, ...

........................................................................
.............................. CYCLE    4 ..............................
........................................................................

 iter      E             dE          RMSdq      gap      omega  full diag
   1   -208.2012731 -0.208201E+03  0.682E-01    0.02       0.0  T
   2   -208.0659341  0.135339E+00  0.927E-01    0.20       1.0  T
   3   -208.0472185  0.187157E-01  0.889E-01    0.27       1.0  T
   4   -208.1028692 -0.556508E-01  0.717E-01    0.17       1.0  T
   5   -208.1157786 -0.129093E-01  0.645E-01    0.13       1.0  T
   6   -208.2305133 -0.114735E+00  0.138E-01    0.02       1.0  T
   7   -208.2064482  0.240651E-01  0.293E-01    0.04       1.0  T
   8   -208.1941381  0.123100E-01  0.354E-01    0.07       1.0  T
   9   -208.2319269 -0.377888E-01  0.777E-02    0.02       1.0  T
  10   -208.2333460 -0.141911E-02  0.288E-02    0.01       1.0  T
  11   -208.2333454  0.648371E-06  0.261E-02    0.01       1.0  T
  12   -208.2332874  0.580258E-04  0.285E-02    0.01       1.0  T
  13   -208.2335420 -0.254633E-03  0.492E-03    0.01       2.0  T
  14   -208.2335434 -0.135431E-05  0.394E-03    0.01       2.5  T
  15   -208.2335448 -0.142956E-05  0.312E-03    0.01       3.2  T
  16   -208.2335472 -0.241760E-05  0.135E-03    0.01       7.4  T
  17   -208.2335477 -0.469811E-06  0.516E-04    0.01      19.3  T
  18   -208.2335475  0.190726E-06  0.937E-04    0.01      10.6  T
     SCC iter.                  ...        0 min,  1.118 sec
     gradient                   ...        0 min,  0.033 sec
 * total energy  :  -206.5982704 Eh     change       -0.3776309E+00 Eh
   gradient norm :     0.4192443 Eh/α   predicted    -0.4049221E+00 (   7.23%)
   displ. norm   :     0.8599024 α      lambda       -0.3008229E+00
   maximum displ.:     0.2378955 α      in ANC's #142, #117, #131, ...

........................................................................
.............................. CYCLE    5 ..............................
........................................................................

 iter      E             dE          RMSdq      gap      omega  full diag
   1   -208.5783563 -0.208578E+03  0.511E-01    0.01       0.0  T
   2   -208.4326046  0.145752E+00  0.804E-01    0.18       1.0  T
   3   -208.4071581  0.254466E-01  0.831E-01    0.25       1.0  T
   4   -208.4731895 -0.660315E-01  0.630E-01    0.15       1.0  T
   5   -208.4784734 -0.528389E-02  0.579E-01    0.12       1.0  T
   6   -208.4916597 -0.131863E-01  0.548E-01    0.14       1.0  T
   7   -208.5879709 -0.963112E-01  0.308E-02    0.01       1.0  T
   8   -208.5811027  0.686822E-02  0.151E-01    0.03       1.0  T
   9   -208.5879507 -0.684801E-02  0.206E-02    0.01       1.0  T
  10   -208.5878002  0.150511E-03  0.280E-02    0.00       1.0  T
  11   -208.5880426 -0.242374E-03  0.730E-03    0.01       1.4  T
  12   -208.5880302  0.123164E-04  0.940E-03    0.01       1.1  T
  13   -208.5880526 -0.223661E-04  0.407E-03    0.01       2.4  T
  14   -208.5880566 -0.401789E-05  0.155E-03    0.01       6.4  T
  15   -208.5880563  0.335809E-06  0.185E-03    0.01       5.4  T
  16   -208.5880573 -0.101232E-05  0.517E-04    0.01      19.2  T
  17   -208.5880573 -0.425010E-07  0.340E-04    0.01      29.3  T
  18   -208.5880574 -0.270140E-07  0.184E-04    0.01      54.0  T
     SCC iter.                  ...        0 min,  0.989 sec
     gradient                   ...        0 min,  0.034 sec
 * total energy  :  -206.8584978 Eh     change       -0.2602274E+00 Eh
   gradient norm :     0.3338850 Eh/α   predicted    -0.2616330E+00 (   0.54%)
   displ. norm   :     0.8263243 α      lambda       -0.2173446E+00
   maximum displ.:     0.2089740 α      in ANC's #142, #117, #92, ...

........................................................................
.............................. CYCLE    6 ..............................
........................................................................

 iter      E             dE          RMSdq      gap      omega  full diag
   1   -208.8852613 -0.208885E+03  0.443E-01    0.01       0.0  T
   2   -208.7421268  0.143134E+00  0.764E-01    0.17       1.0  T
   3   -208.7105352  0.315916E-01  0.819E-01    0.23       1.0  T
   4   -208.8265622 -0.116027E+00  0.478E-01    0.09       1.0  T
   5   -208.7713065  0.552557E-01  0.615E-01    0.13       1.0  T
   6   -208.8492011 -0.778946E-01  0.367E-01    0.07       1.0  T
   7   -208.8889400 -0.397389E-01  0.908E-02    0.01       1.0  T
   8   -208.8889010  0.389683E-04  0.935E-02    0.02       1.0  T
   9   -208.8915524 -0.265136E-02  0.615E-03    0.01       1.6  T
  10   -208.8914009  0.151539E-03  0.219E-02    0.00       1.0  T
  11   -208.8915544 -0.153583E-03  0.250E-03    0.01       4.0  T
  12   -208.8915512  0.327145E-05  0.387E-03    0.01       2.6  T
  13   -208.8915550 -0.383604E-05  0.147E-03    0.01       6.8  T
  14   -208.8915552 -0.194225E-06  0.115E-03    0.01       8.6  T
  15   -208.8915556 -0.408369E-06  0.184E-04    0.01      53.9  T
  16   -208.8915556 -0.727312E-09  0.144E-04    0.01      69.1  T
     SCC iter.                  ...        0 min,  0.838 sec
     gradient                   ...        0 min,  0.033 sec
 * total energy  :  -207.0369505 Eh     change       -0.1784527E+00 Eh
   gradient norm :     0.2408357 Eh/α   predicted    -0.1828752E+00 (   2.48%)
   displ. norm   :     0.7836867 α      lambda       -0.1415119E+00
   maximum displ.:     0.2016022 α      in ANC's #142, #144, #64, ...

........................................................................
.............................. CYCLE    7 ..............................
........................................................................

 iter      E             dE          RMSdq      gap      omega  full diag
   1   -209.1366793 -0.209137E+03  0.417E-01    0.00       0.0  T
   2   -208.9991011  0.137578E+00  0.734E-01    0.20       1.0  T
   3   -208.9593017  0.397994E-01  0.820E-01    0.23       1.0  T
   4   -209.1294499 -0.170148E+00  0.238E-01    0.02       1.0  T
   5   -209.1253613  0.408857E-02  0.239E-01    0.04       1.0  T
   6   -209.1401743 -0.148129E-01  0.406E-02    0.00       1.0  T
   7   -209.1403313 -0.157019E-03  0.261E-02    0.01       1.0  T
   8   -209.1404123 -0.809542E-04  0.166E-02    0.01       1.0  T
   9   -209.1404322 -0.199752E-04  0.103E-02    0.00       1.0  T
  10   -209.1404504 -0.181315E-04  0.360E-03    0.00       2.8  T
  11   -209.1404501  0.239777E-06  0.314E-03    0.01       3.2  T
  12   -209.1404448  0.531015E-05  0.506E-03    0.00       2.0  T
  13   -209.1404413  0.346816E-05  0.598E-03    0.01       1.7  T
  14   -209.1404517 -0.103716E-04  0.174E-03    0.00       5.7  T
  15   -209.1404525 -0.836580E-06  0.546E-04    0.01      18.2  T
  16   -209.1404526 -0.840048E-07  0.172E-04    0.01      57.9  T
     SCC iter.                  ...        0 min,  1.285 sec
     gradient                   ...        0 min,  0.032 sec
 * total energy  :  -207.1465911 Eh     change       -0.1096406E+00 Eh
   gradient norm :     0.1598605 Eh/α   predicted    -0.1142118E+00 (   4.17%)
   displ. norm   :     0.7786730 α      lambda       -0.8835686E-01
   maximum displ.:     0.1768822 α      in ANC's #64, #92, #28, ...

........................................................................
.............................. CYCLE    8 ..............................
........................................................................

 iter      E             dE          RMSdq      gap      omega  full diag
   1   -209.3300538 -0.209330E+03  0.318E-01    0.00       0.0  T
   2   -209.2153291  0.114725E+00  0.642E-01    0.17       1.0  T
   3   -209.1566970  0.586322E-01  0.790E-01    0.23       1.0  T
   4   -209.2816723 -0.124975E+00  0.420E-01    0.06       1.0  T
   5   -209.3205198 -0.388475E-01  0.206E-01    0.03       1.0  T
   6   -209.3245640 -0.404418E-02  0.151E-01    0.03       1.0  T
   7   -209.3307036 -0.613964E-02  0.572E-02    0.00       1.0  T
   8   -209.3316170 -0.913356E-03  0.135E-02    0.01       1.0  T
   9   -209.3315856  0.313872E-04  0.141E-02    0.01       1.0  T
  10   -209.3315071  0.785163E-04  0.208E-02    0.00       1.0  T
  11   -209.3316232 -0.116085E-03  0.759E-03    0.01       1.3  T
  12   -209.3316303 -0.719308E-05  0.583E-03    0.00       1.7  T
  13   -209.3316398 -0.945221E-05  0.190E-03    0.01       5.2  T
  14   -209.3316408 -0.102088E-05  0.534E-04    0.01      18.6  T
  15   -209.3316408 -0.290643E-07  0.404E-04    0.01      24.6  T
  16   -209.3316409 -0.404047E-07  0.163E-04    0.01      61.0  T
     SCC iter.                  ...        0 min,  0.985 sec
     gradient                   ...        0 min,  0.034 sec
 * total energy  :  -207.2035358 Eh     change       -0.5694468E-01 Eh
   gradient norm :     0.1511983 Eh/α   predicted    -0.7096522E-01 (  24.62%)
   displ. norm   :     0.7517033 α      lambda       -0.7357186E-01
   maximum displ.:     0.2225361 α      in ANC's #64, #78, #73, ...

........................................................................
.............................. CYCLE    9 ..............................
........................................................................

 iter      E             dE          RMSdq      gap      omega  full diag
   1   -209.4349011 -0.209435E+03  0.317E-01    0.00       0.0  T
   2   -209.4133243  0.215768E-01  0.325E-01    0.05       1.0  T
   3   -209.2480322  0.165292E+00  0.827E-01    0.27       1.0  T
   4   -209.3655876 -0.117555E+00  0.493E-01    0.08       1.0  T
   5   -209.4225028 -0.569151E-01  0.214E-01    0.04       1.0  T
   6   -209.4059416  0.165611E-01  0.309E-01    0.04       1.0  T
   7   -209.4246624 -0.187208E-01  0.187E-01    0.03       1.0  T
   8   -209.4286104 -0.394798E-02  0.148E-01    0.02       1.0  T
   9   -209.4355095 -0.689912E-02  0.115E-02    0.01       1.0  T
  10   -209.4355357 -0.262085E-04  0.335E-03    0.00       3.0  T
  11   -209.4355323  0.343636E-05  0.402E-03    0.01       2.5  T
  12   -209.4355344 -0.208270E-05  0.278E-03    0.01       3.6  T
  13   -209.4355358 -0.142573E-05  0.163E-03    0.00       6.1  T
  14   -209.4355366 -0.773948E-06  0.291E-04    0.00      34.2  T
  15   -209.4355366  0.290393E-07  0.378E-04    0.00      26.3  T
     SCC iter.                  ...        0 min,  0.799 sec
     gradient                   ...        0 min,  0.039 sec
 * total energy  :  -207.2402602 Eh     change       -0.3672438E-01 Eh
   gradient norm :     0.1042661 Eh/α   predicted    -0.5757212E-01 (  56.77%)
   displ. norm   :     0.7169066 α      lambda       -0.4254023E-01
   maximum displ.:     0.1696105 α      in ANC's #73, #64, #38, ...

........................................................................
.............................. CYCLE   10 ..............................
........................................................................

 iter      E             dE          RMSdq      gap      omega  full diag
   1   -209.4761204 -0.209476E+03  0.312E-01    0.01       0.0  T
   2   -209.3268856  0.149235E+00  0.741E-01    0.27       1.0  T
   3   -209.3260552  0.830374E-03  0.731E-01    0.20       1.0  T
   4   -209.3986215 -0.725663E-01  0.520E-01    0.11       1.0  T
   5   -209.4729347 -0.743132E-01  0.158E-01    0.01       1.0  T
   6   -209.4698088  0.312593E-02  0.174E-01    0.02       1.0  T
   7   -209.4765442 -0.673542E-02  0.937E-02    0.02       1.0  T
   8   -209.4776148 -0.107066E-02  0.712E-02    0.01       1.0  T
   9   -209.4786152 -0.100034E-02  0.439E-02    0.01       1.0  T
  10   -209.4791765 -0.561273E-03  0.108E-02    0.00       1.0  T
  11   -209.4792004 -0.239349E-04  0.585E-03    0.00       1.7  T
  12   -209.4792101 -0.967953E-05  0.170E-03    0.00       5.9  T
  13   -209.4792103 -0.261507E-06  0.132E-03    0.00       7.5  T
  14   -209.4792108 -0.509071E-06  0.190E-04    0.00      52.4  T
  15   -209.4792108 -0.219433E-08  0.888E-05    0.00     112.1  T
     SCC iter.                  ...        0 min,  1.025 sec
     gradient                   ...        0 min,  0.038 sec
 * total energy  :  -207.2601286 Eh     change       -0.1986840E-01 Eh
   gradient norm :     0.1210872 Eh/α   predicted    -0.3220201E-01 (  62.08%)
   displ. norm   :     0.6654548 α      lambda       -0.4096854E-01
   maximum displ.:     0.1908987 α      in ANC's #64, #73, #14, ...

........................................................................
.............................. CYCLE   11 ..............................
........................................................................

 iter      E             dE          RMSdq      gap      omega  full diag
   1   -209.5238994 -0.209524E+03  0.273E-01    0.00       0.0  T
   2   -209.4150636  0.108836E+00  0.616E-01    0.15       1.0  T
   3   -209.3637283  0.513353E-01  0.750E-01    0.24       1.0  T
   4   -209.4931214 -0.129393E+00  0.329E-01    0.05       1.0  T
   5   -209.5091047 -0.159833E-01  0.227E-01    0.04       1.0  T
   6   -209.5248619 -0.157572E-01  0.164E-02    0.00       1.0  T
   7   -209.5247002  0.161706E-03  0.257E-02    0.00       1.0  T
   8   -209.5247163 -0.161272E-04  0.239E-02    0.01       1.0  T
   9   -209.5248731 -0.156780E-03  0.702E-03    0.00       1.4  T
  10   -209.5248829 -0.976088E-05  0.375E-03    0.00       2.7  T
  11   -209.5248846 -0.177726E-05  0.269E-03    0.00       3.7  T
  12   -209.5248864 -0.176286E-05  0.114E-03    0.00       8.7  T
  13   -209.5248867 -0.338000E-06  0.378E-04    0.00      26.3  T
  14   -209.5248868 -0.193803E-07  0.256E-04    0.00      38.9  T
     SCC iter.                  ...        0 min,  0.900 sec
     gradient                   ...        0 min,  0.034 sec
 * total energy  :  -207.2880906 Eh     change       -0.2796205E-01 Eh
   gradient norm :     0.0785147 Eh/α   predicted    -0.2955534E-01 (   5.70%)
   displ. norm   :     0.6710779 α      lambda       -0.2479312E-01
   maximum displ.:     0.1626796 α      in ANC's #14, #73, #33, ...

........................................................................
.............................. CYCLE   12 ..............................
........................................................................

 iter      E             dE          RMSdq      gap      omega  full diag
   1   -209.5735971 -0.209574E+03  0.243E-01    0.00       0.0  T
   2   -209.5414718  0.321252E-01  0.351E-01    0.06       1.0  T
   3   -209.4073884  0.134083E+00  0.761E-01    0.30       1.0  T
   4   -209.4857613 -0.783729E-01  0.533E-01    0.10       1.0  T
   5   -209.5704570 -0.846956E-01  0.107E-01    0.02       1.0  T
   6   -209.5738589 -0.340195E-02  0.188E-02    0.00       1.0  T
   7   -209.5738611 -0.220371E-05  0.143E-02    0.01       1.0  T
   8   -209.5738953 -0.341481E-04  0.605E-03    0.00       1.6  T
   9   -209.5738938  0.150038E-05  0.508E-03    0.00       2.0  T
  10   -209.5738996 -0.582220E-05  0.206E-03    0.00       4.8  T
  11   -209.5738970  0.259754E-05  0.341E-03    0.00       2.9  T
  12   -209.5738985 -0.148327E-05  0.255E-03    0.00       3.9  T
  13   -209.5739002 -0.173145E-05  0.990E-04    0.00      10.1  T
  14   -209.5739004 -0.206030E-06  0.557E-04    0.00      17.9  T
  15   -209.5739005 -0.645085E-07  0.324E-04    0.00      30.7  T
     SCC iter.                  ...        0 min,  0.826 sec
     gradient                   ...        0 min,  0.033 sec
 * total energy  :  -207.3042513 Eh     change       -0.1616065E-01 Eh
   gradient norm :     0.0818633 Eh/α   predicted    -0.1797924E-01 (  11.25%)
   displ. norm   :     0.7036080 α      lambda       -0.2391643E-01
   maximum displ.:     0.2036898 α      in ANC's #14, #33, #73, ...

........................................................................
.............................. CYCLE   13 ..............................
........................................................................

 iter      E             dE          RMSdq      gap      omega  full diag
   1   -209.6049607 -0.209605E+03  0.277E-01    0.02       0.0  T
   2   -209.4446441  0.160317E+00  0.780E-01    0.30       1.0  T
   3   -209.5471366 -0.102492E+00  0.472E-01    0.08       1.0  T
   4   -209.4872511  0.598855E-01  0.635E-01    0.18       1.0  T
   5   -209.5821616 -0.949106E-01  0.300E-01    0.05       1.0  T
   6   -209.6085702 -0.264086E-01  0.729E-02    0.01       1.0  T
   7   -209.6091943 -0.624096E-03  0.558E-02    0.01       1.0  T
   8   -209.6096635 -0.469227E-03  0.401E-02    0.01       1.0  T
   9   -209.6100679 -0.404383E-03  0.169E-02    0.00       1.0  T
  10   -209.6101562 -0.882930E-04  0.190E-03    0.00       5.2  T
  11   -209.6101533  0.288930E-05  0.334E-03    0.00       3.0  T
  12   -209.6101549 -0.157277E-05  0.240E-03    0.00       4.1  T
  13   -209.6101566 -0.172389E-05  0.442E-04    0.00      22.5  T
  14   -209.6101565  0.943966E-07  0.678E-04    0.00      14.7  T
  15   -209.6101565  0.847763E-08  0.705E-04    0.00      14.1  T
     SCC iter.                  ...        0 min,  1.137 sec
     gradient                   ...        0 min,  0.033 sec
 * total energy  :  -207.3225081 Eh     change       -0.1825681E-01 Eh
   gradient norm :     0.0527859 Eh/α   predicted    -0.1787824E-01 (  -2.07%)
   displ. norm   :     0.7423160 α      lambda       -0.2105334E-01
   maximum displ.:     0.1953623 α      in ANC's #14, #73, #33, ...

........................................................................
.............................. CYCLE   14 ..............................
........................................................................

 iter      E             dE          RMSdq      gap      omega  full diag
   1   -209.6116171 -0.209612E+03  0.288E-01    0.02       0.0  T
   2   -209.4505191  0.161098E+00  0.779E-01    0.30       1.0  T
   3   -209.5297733 -0.792542E-01  0.547E-01    0.10       1.0  T
   4   -209.4945455  0.352278E-01  0.635E-01    0.17       1.0  T
   5   -209.5986881 -0.104143E+00  0.235E-01    0.04       1.0  T
   6   -209.6151224 -0.164343E-01  0.524E-02    0.01       1.0  T
   7   -209.6145937  0.528702E-03  0.642E-02    0.01       1.0  T
   8   -209.6151706 -0.576877E-03  0.480E-02    0.01       1.0  T
   9   -209.6157025 -0.531935E-03  0.240E-02    0.01       1.0  T
  10   -209.6158779 -0.175409E-03  0.420E-03    0.01       2.4  T
  11   -209.6158750  0.292517E-05  0.502E-03    0.01       2.0  T
  12   -209.6158786 -0.356885E-05  0.362E-03    0.01       2.7  T
  13   -209.6158822 -0.358955E-05  0.128E-03    0.01       7.7  T
  14   -209.6158823 -0.147210E-06  0.107E-03    0.01       9.3  T
  15   -209.6158826 -0.303908E-06  0.441E-04    0.01      22.6  T
  16   -209.6158827 -0.534268E-07  0.133E-04    0.01      74.8  T
     SCC iter.                  ...        0 min,  1.003 sec
     gradient                   ...        0 min,  0.033 sec
 * total energy  :  -207.3338226 Eh     change       -0.1131452E-01 Eh
   gradient norm :     0.0894903 Eh/α   predicted    -0.1632719E-01 (  44.30%)
   displ. norm   :     0.6923604 α      lambda       -0.2243599E-01
   maximum displ.:     0.1839401 α      in ANC's #14, #33, #74, ...

........................................................................
.............................. CYCLE   15 ..............................
........................................................................

 iter      E             dE          RMSdq      gap      omega  full diag
   1   -209.5905600 -0.209591E+03  0.256E-01    0.01       0.0  T
   2   -209.4571410  0.133419E+00  0.675E-01    0.19       1.0  T
   3   -209.4521797  0.496134E-02  0.698E-01    0.20       1.0  T
   4   -209.5833196 -0.131140E+00  0.176E-01    0.02       1.0  T
   5   -209.5900903 -0.677065E-02  0.749E-02    0.01       1.0  T
   6   -209.5914696 -0.137931E-02  0.179E-02    0.01       1.0  T
   7   -209.5913985  0.710971E-04  0.204E-02    0.01       1.0  T
   8   -209.5914359 -0.373906E-04  0.159E-02    0.01       1.0  T
   9   -209.5914889 -0.529890E-04  0.889E-03    0.01       1.1  T
  10   -209.5915100 -0.211003E-04  0.319E-03    0.01       3.1  T
  11   -209.5915116 -0.159947E-05  0.213E-03    0.01       4.7  T
  12   -209.5915116 -0.318870E-07  0.207E-03    0.01       4.8  T
  13   -209.5915127 -0.115905E-05  0.764E-04    0.01      13.0  T
  14   -209.5915129 -0.168713E-06  0.189E-04    0.01      52.7  T
  15   -209.5915129  0.788467E-08  0.240E-04    0.01      41.4  T
     SCC iter.                  ...        0 min,  0.919 sec
     gradient                   ...        0 min,  0.039 sec
 * total energy  :  -207.3421985 Eh     change       -0.8375930E-02 Eh
   gradient norm :     0.0875378 Eh/α   predicted    -0.1659547E-01 (  98.13%)
   displ. norm   :     0.5677797 α      lambda       -0.1862659E-01
   maximum displ.:     0.1754232 α      in ANC's #14, #18, #31, ...

........................................................................
.............................. CYCLE   16 ..............................
........................................................................

 iter      E             dE          RMSdq      gap      omega  full diag
   1   -209.6161208 -0.209616E+03  0.263E-01    0.01       0.0  T
   2   -209.5542150  0.619058E-01  0.476E-01    0.08       1.0  T
   3   -209.4649438  0.892712E-01  0.736E-01    0.32       1.0  T
   4   -209.5586134 -0.936696E-01  0.440E-01    0.08       1.0  T
   5   -209.5212084  0.374050E-01  0.556E-01    0.12       1.0  T
   6   -209.6095065 -0.882981E-01  0.158E-01    0.03       1.0  T
   7   -209.6172460 -0.773957E-02  0.142E-02    0.01       1.0  T
   8   -209.6169151  0.330958E-03  0.346E-02    0.01       1.0  T
   9   -209.6171351 -0.219986E-03  0.221E-02    0.01       1.0  T
  10   -209.6172760 -0.140913E-03  0.582E-03    0.01       1.7  T
  11   -209.6172811 -0.509376E-05  0.411E-03    0.01       2.4  T
  12   -209.6172853 -0.422676E-05  0.176E-03    0.01       5.7  T
  13   -209.6172862 -0.881064E-06  0.503E-04    0.01      19.8  T
  14   -209.6172862 -0.516754E-07  0.233E-04    0.01      42.7  T
     SCC iter.                  ...        0 min,  0.863 sec
     gradient                   ...        0 min,  0.033 sec
 * total energy  :  -207.3501527 Eh     change       -0.7954208E-02 Eh
   gradient norm :     0.0712189 Eh/α   predicted    -0.1231567E-01 (  54.83%)
   displ. norm   :     0.5598103 α      lambda       -0.1320991E-01
   maximum displ.:     0.1760910 α      in ANC's #14, #23, #31, ...

........................................................................
.............................. CYCLE   17 ..............................
........................................................................

 iter      E             dE          RMSdq      gap      omega  full diag
   1   -209.6449159 -0.209645E+03  0.205E-01    0.01       0.0  T
   2   -209.5552819  0.896340E-01  0.560E-01    0.11       1.0  T
   3   -209.5335891  0.216929E-01  0.613E-01    0.14       1.0  T
   4   -209.6446432 -0.111054E+00  0.896E-02    0.01       1.0  T
   5   -209.6443252  0.317982E-03  0.717E-02    0.01       1.0  T
   6   -209.6455763 -0.125110E-02  0.171E-02    0.01       1.0  T
   7   -209.6456284 -0.520384E-04  0.795E-03    0.01       1.3  T
   8   -209.6456195  0.883606E-05  0.852E-03    0.01       1.2  T
   9   -209.6456388 -0.192952E-04  0.224E-03    0.01       4.4  T
  10   -209.6456398 -0.977435E-06  0.972E-04    0.01      10.2  T
  11   -209.6456394  0.379013E-06  0.137E-03    0.01       7.3  T
  12   -209.6456400 -0.531571E-06  0.333E-04    0.01      29.9  T
     SCC iter.                  ...        0 min,  0.611 sec
     gradient                   ...        0 min,  0.034 sec
 * total energy  :  -207.3562894 Eh     change       -0.6136664E-02 Eh
   gradient norm :     0.0584688 Eh/α   predicted    -0.8674864E-02 (  41.36%)
   displ. norm   :     0.5892952 α      lambda       -0.1288285E-01
   maximum displ.:     0.1781789 α      in ANC's #14, #33, #1, ...

........................................................................
.............................. CYCLE   18 ..............................
........................................................................

 iter      E             dE          RMSdq      gap      omega  full diag
   1   -209.6264233 -0.209626E+03  0.250E-01    0.02       0.0  T
   2   -209.4687242  0.157699E+00  0.753E-01    0.31       1.0  T
   3   -209.5262267 -0.575026E-01  0.603E-01    0.13       1.0  T
   4   -209.5345065 -0.827980E-02  0.552E-01    0.12       1.0  T
   5   -209.5980841 -0.635776E-01  0.320E-01    0.05       1.0  T
   6   -209.6289228 -0.308387E-01  0.470E-02    0.01       1.0  T
   7   -209.6295315 -0.608698E-03  0.132E-02    0.01       1.0  T
   8   -209.6293628  0.168677E-03  0.261E-02    0.01       1.0  T
   9   -209.6294939 -0.131106E-03  0.161E-02    0.01       1.0  T
  10   -209.6295724 -0.784756E-04  0.291E-03    0.01       3.4  T
  11   -209.6295731 -0.688525E-06  0.243E-03    0.01       4.1  T
  12   -209.6295748 -0.168621E-05  0.633E-04    0.01      15.7  T
  13   -209.6295748 -0.549791E-07  0.442E-04    0.01      22.5  T
  14   -209.6295748 -0.277186E-08  0.422E-04    0.01      23.6  T
     SCC iter.                  ...        0 min,  0.796 sec
     gradient                   ...        0 min,  0.034 sec
 * total energy  :  -207.3574569 Eh     change       -0.1167511E-02 Eh
   gradient norm :     0.0916380 Eh/α   predicted    -0.8678324E-02 ( 643.32%)
   displ. norm   :     0.4479532 α      lambda       -0.1505601E-01
   maximum displ.:     0.1434328 α      in ANC's #1, #14, #23, ...

........................................................................
.............................. CYCLE   19 ..............................
........................................................................

 iter      E             dE          RMSdq      gap      omega  full diag
   1   -209.6368452 -0.209637E+03  0.240E-01    0.02       0.0  T
   2   -209.4720985  0.164747E+00  0.791E-01    0.36       1.0  T
   3   -209.6150053 -0.142907E+00  0.320E-01    0.05       1.0  T
   4   -209.5495240  0.654813E-01  0.549E-01    0.12       1.0  T
   5   -209.5615663 -0.120422E-01  0.511E-01    0.10       1.0  T
   6   -209.6407727 -0.792064E-01  0.601E-02    0.01       1.0  T
   7   -209.6412414 -0.468695E-03  0.426E-02    0.01       1.0  T
   8   -209.6417804 -0.539034E-03  0.756E-03    0.01       1.3  T
   9   -209.6417580  0.224727E-04  0.110E-02    0.01       1.0  T
  10   -209.6417916 -0.336200E-04  0.327E-03    0.01       3.0  T
  11   -209.6417946 -0.304064E-05  0.767E-04    0.01      13.0  T
  12   -209.6417947 -0.895768E-07  0.434E-04    0.01      22.9  T
  13   -209.6417946  0.101522E-06  0.691E-04    0.01      14.4  T
     SCC iter.                  ...        0 min,  0.834 sec
     gradient                   ...        0 min,  0.033 sec
 * total energy  :  -207.3641572 Eh     change       -0.6700318E-02 Eh
   gradient norm :     0.0550278 Eh/α   predicted    -0.9038602E-02 (  34.90%)
   displ. norm   :     0.4818097 α      lambda       -0.1180205E-01
   maximum displ.:     0.1237006 α      in ANC's #18, #14, #63, ...

........................................................................
.............................. CYCLE   20 ..............................
........................................................................

 iter      E             dE          RMSdq      gap      omega  full diag
   1   -209.6511212 -0.209651E+03  0.272E-01    0.03       0.0  T
   2   -209.4816487  0.169472E+00  0.818E-01    0.36       1.0  T
   3   -209.6504308 -0.168782E+00  0.202E-01    0.03       1.0  T
   4   -209.6010076  0.494232E-01  0.434E-01    0.08       1.0  T
   5   -209.5350643  0.659433E-01  0.634E-01    0.18       1.0  T
   6   -209.6523107 -0.117246E+00  0.134E-01    0.02       1.0  T
   7   -209.6573046 -0.499386E-02  0.369E-02    0.01       1.0  T
   8   -209.6574835 -0.178903E-03  0.270E-02    0.01       1.0  T
   9   -209.6576646 -0.181069E-03  0.110E-02    0.01       1.0  T
  10   -209.6576414  0.232008E-04  0.138E-02    0.01       1.0  T
  11   -209.6576960 -0.546070E-04  0.350E-03    0.01       2.8  T
  12   -209.6576983 -0.228051E-05  0.215E-03    0.01       4.6  T
  13   -209.6576985 -0.222292E-06  0.193E-03    0.01       5.2  T
  14   -209.6576996 -0.114431E-05  0.143E-04    0.01      69.8  T
  15   -209.6576996 -0.352316E-09  0.899E-05    0.01     110.6  T
  16   -209.6576996  0.835004E-08  0.174E-04    0.01      57.3  T
     SCC iter.                  ...        0 min,  1.003 sec
     gradient                   ...        0 min,  0.032 sec
 * total energy  :  -207.3639785 Eh     change        0.1787362E-03 Eh
   gradient norm :     0.0834885 Eh/α   predicted    -0.7270887E-02 (*******%)
   displ. norm   :     0.3800487 α      lambda       -0.1359195E-01
   maximum displ.:     0.1242865 α      in ANC's #23, #14, #80, ...
 * RMSD in coord.:     0.8871924 α      energy gain  -0.2170029E+01 Eh

generating ANC from model Hessian ...
Using Lindh-Hessian (1995)
 Shifting diagonal of input Hessian by    9.9620618742484335E-003
 Lowest  eigenvalues of input Hessian
    0.000000    0.000000    0.000000    0.000000    0.000000    0.000000
    0.010000    0.010017    0.010092    0.010113    0.010183    0.010325
    0.010471    0.010488    0.010630    0.010707    0.010794    0.011012
 Highest eigenvalues
    2.543970    2.628226    2.634292    2.643667    2.643778    2.661629


........................................................................
.............................. CYCLE   21 ..............................
........................................................................

 iter      E             dE          RMSdq      gap      omega  full diag
   1   -209.6565015 -0.209657E+03  0.182E-01    0.02       0.0  T
   2   -209.5173282  0.139173E+00  0.691E-01    0.22       1.0  T
   3   -209.5785400 -0.612118E-01  0.520E-01    0.10       1.0  T
   4   -209.6428984 -0.643584E-01  0.229E-01    0.04       1.0  T
   5   -209.6563539 -0.134555E-01  0.763E-02    0.02       1.0  T
   6   -209.6547753  0.157858E-02  0.987E-02    0.02       1.0  T
   7   -209.6577354 -0.296007E-02  0.662E-03    0.01       1.5  T
   8   -209.6577345  0.914302E-06  0.574E-03    0.01       1.7  T
   9   -209.6577399 -0.541645E-05  0.320E-03    0.01       3.1  T
  10   -209.6577418 -0.191384E-05  0.152E-03    0.01       6.5  T
  11   -209.6577422 -0.408779E-06  0.727E-04    0.01      13.7  T
  12   -209.6577423 -0.165347E-07  0.617E-04    0.01      16.1  T
     SCC iter.                  ...        0 min,  0.554 sec
     gradient                   ...        0 min,  0.033 sec
 * total energy  :  -207.3693059 Eh     change       -0.5327461E-02 Eh
   gradient norm :     0.0483273 Eh/α   predicted     0.0000000E+00 (-100.00%)
   displ. norm   :     0.3375402 α      lambda       -0.5715229E-02
   maximum displ.:     0.1297457 α      in ANC's #8, #20, #13, ...

........................................................................
.............................. CYCLE   22 ..............................
........................................................................

 iter      E             dE          RMSdq      gap      omega  full diag
   1   -209.6642971 -0.209664E+03  0.104E-01    0.01       0.0  T
   2   -209.6405803  0.237168E-01  0.282E-01    0.05       1.0  T
   3   -209.6065380  0.340423E-01  0.439E-01    0.08       1.0  T
   4   -209.6619089 -0.553709E-01  0.917E-02    0.02       1.0  T
   5   -209.6643568 -0.244792E-02  0.126E-02    0.01       1.0  T
   6   -209.6643158  0.410284E-04  0.147E-02    0.01       1.0  T
   7   -209.6643722 -0.564329E-04  0.437E-03    0.01       2.3  T
   8   -209.6643765 -0.436583E-05  0.125E-03    0.01       7.9  T
   9   -209.6643767 -0.157170E-06  0.646E-04    0.01      15.4  T
  10   -209.6643767 -0.217618E-07  0.402E-04    0.01      24.7  T
     SCC iter.                  ...        0 min,  0.634 sec
     gradient                   ...        0 min,  0.035 sec
 * total energy  :  -207.3736123 Eh     change       -0.4306374E-02 Eh
   gradient norm :     0.0212396 Eh/α   predicted    -0.3185231E-02 ( -26.03%)
   displ. norm   :     0.5421812 α      lambda       -0.4199390E-02
   maximum displ.:     0.2336769 α      in ANC's #8, #20, #13, ...

........................................................................
.............................. CYCLE   23 ..............................
........................................................................

 iter      E             dE          RMSdq      gap      omega  full diag
   1   -209.6690088 -0.209669E+03  0.128E-01    0.02       0.0  T
   2   -209.5672266  0.101782E+00  0.580E-01    0.13       1.0  T
   3   -209.6309497 -0.637231E-01  0.360E-01    0.06       1.0  T
   4   -209.6685091 -0.375594E-01  0.595E-02    0.02       1.0  T
   5   -209.6693008 -0.791700E-03  0.192E-02    0.01       1.0  T
   6   -209.6693204 -0.195795E-04  0.128E-02    0.01       1.0  T
   7   -209.6693402 -0.198707E-04  0.767E-03    0.01       1.3  T
   8   -209.6693465 -0.623551E-05  0.544E-03    0.01       1.8  T
   9   -209.6693551 -0.857009E-05  0.103E-03    0.01       9.6  T
  10   -209.6693550  0.469280E-07  0.920E-04    0.01      10.8  T
  11   -209.6693552 -0.198497E-06  0.265E-04    0.01      37.5  T
     SCC iter.                  ...        0 min,  0.654 sec
     gradient                   ...        0 min,  0.039 sec
 * total energy  :  -207.3767270 Eh     change       -0.3114689E-02 Eh
   gradient norm :     0.0146202 Eh/α   predicted    -0.2717879E-02 ( -12.74%)
   displ. norm   :     0.5877676 α      lambda       -0.2709595E-02
   maximum displ.:     0.2726228 α      in ANC's #8, #20, #13, ...

........................................................................
.............................. CYCLE   24 ..............................
........................................................................

 iter      E             dE          RMSdq      gap      omega  full diag
   1   -209.6699213 -0.209670E+03  0.120E-01    0.02       0.0  T
   2   -209.5540528  0.115868E+00  0.621E-01    0.15       1.0  T
   3   -209.6463072 -0.922544E-01  0.286E-01    0.05       1.0  T
   4   -209.6668439 -0.205367E-01  0.109E-01    0.02       1.0  T
   5   -209.6701410 -0.329708E-02  0.294E-02    0.02       1.0  T
   6   -209.6701510 -0.100112E-04  0.264E-02    0.02       1.0  T
   7   -209.6703523 -0.201249E-03  0.383E-03    0.02       2.6  T
   8   -209.6703441  0.811605E-05  0.569E-03    0.02       1.7  T
   9   -209.6703534 -0.923325E-05  0.134E-03    0.02       7.4  T
  10   -209.6703537 -0.320029E-06  0.675E-04    0.02      14.7  T
  11   -209.6703537 -0.534811E-07  0.340E-04    0.02      29.3  T
     SCC iter.                  ...        0 min,  0.599 sec
     gradient                   ...        0 min,  0.035 sec
 * total energy  :  -207.3789401 Eh     change       -0.2213057E-02 Eh
   gradient norm :     0.0211640 Eh/α   predicted    -0.1822842E-02 ( -17.63%)
   displ. norm   :     0.6501763 α      lambda       -0.2553465E-02
   maximum displ.:     0.3139493 α      in ANC's #8, #20, #13, ...

........................................................................
.............................. CYCLE   25 ..............................
........................................................................

 iter      E             dE          RMSdq      gap      omega  full diag
   1   -209.6715161 -0.209672E+03  0.117E-01    0.02       0.0  T
   2   -209.5663623  0.105154E+00  0.591E-01    0.13       1.0  T
   3   -209.6482245 -0.818622E-01  0.284E-01    0.05       1.0  T
   4   -209.6689877 -0.207632E-01  0.987E-02    0.02       1.0  T
   5   -209.6717724 -0.278474E-02  0.209E-02    0.02       1.0  T
   6   -209.6716295  0.142920E-03  0.272E-02    0.02       1.0  T
   7   -209.6718430 -0.213474E-03  0.599E-03    0.02       1.7  T
   8   -209.6718466 -0.362570E-05  0.433E-03    0.02       2.3  T
   9   -209.6718511 -0.447874E-05  0.185E-03    0.02       5.4  T
  10   -209.6718519 -0.823153E-06  0.700E-04    0.02      14.2  T
  11   -209.6718519 -0.403452E-07  0.410E-04    0.02      24.3  T
     SCC iter.                  ...        0 min,  0.505 sec
     gradient                   ...        0 min,  0.033 sec
 * total energy  :  -207.3810919 Eh     change       -0.2151796E-02 Eh
   gradient norm :     0.0203944 Eh/α   predicted    -0.1816485E-02 ( -15.58%)
   displ. norm   :     0.6804880 α      lambda       -0.2469250E-02
   maximum displ.:     0.3432963 α      in ANC's #8, #13, #20, ...

........................................................................
.............................. CYCLE   26 ..............................
........................................................................

 iter      E             dE          RMSdq      gap      omega  full diag
   1   -209.6755458 -0.209676E+03  0.115E-01    0.02       0.0  T
   2   -209.6158278  0.597180E-01  0.446E-01    0.08       1.0  T
   3   -209.6375060 -0.216782E-01  0.358E-01    0.07       1.0  T
   4   -209.6755282 -0.380222E-01  0.339E-02    0.02       1.0  T
   5   -209.6756405 -0.112315E-03  0.200E-02    0.02       1.0  T
   6   -209.6756667 -0.261552E-04  0.116E-02    0.02       1.0  T
   7   -209.6756968 -0.301095E-04  0.491E-03    0.02       2.0  T
   8   -209.6756985 -0.171224E-05  0.316E-03    0.02       3.1  T
   9   -209.6757010 -0.249536E-05  0.915E-04    0.02      10.9  T
  10   -209.6757009  0.111106E-06  0.874E-04    0.02      11.4  T
  11   -209.6757010 -0.146144E-06  0.338E-04    0.02      29.5  T
     SCC iter.                  ...        0 min,  0.856 sec
     gradient                   ...        0 min,  0.043 sec
 * total energy  :  -207.3831831 Eh     change       -0.2091256E-02 Eh
   gradient norm :     0.0151393 Eh/α   predicted    -0.1806346E-02 ( -13.62%)
   displ. norm   :     0.7124901 α      lambda       -0.2224352E-02
   maximum displ.:     0.3717743 α      in ANC's #8, #13, #1, ...

........................................................................
.............................. CYCLE   27 ..............................
........................................................................

 iter      E             dE          RMSdq      gap      omega  full diag
   1   -209.6799733 -0.209680E+03  0.121E-01    0.02       0.0  T
   2   -209.6473502  0.326230E-01  0.332E-01    0.06       1.0  T
   3   -209.6092301  0.381202E-01  0.486E-01    0.10       1.0  T
   4   -209.6784706 -0.692406E-01  0.769E-02    0.02       1.0  T
   5   -209.6800244 -0.155371E-02  0.217E-02    0.02       1.0  T
   6   -209.6800358 -0.114675E-04  0.144E-02    0.02       1.0  T
   7   -209.6800853 -0.494693E-04  0.468E-03    0.02       2.1  T
   8   -209.6800840  0.131672E-05  0.378E-03    0.02       2.6  T
   9   -209.6800878 -0.379936E-05  0.862E-04    0.02      11.5  T
  10   -209.6800878 -0.334248E-07  0.517E-04    0.02      19.2  T
  11   -209.6800878  0.230920E-07  0.419E-04    0.02      23.8  T
     SCC iter.                  ...        0 min,  0.731 sec
     gradient                   ...        0 min,  0.033 sec
 * total energy  :  -207.3850857 Eh     change       -0.1902622E-02 Eh
   gradient norm :     0.0133942 Eh/α   predicted    -0.1676780E-02 ( -11.87%)
   displ. norm   :     0.7353121 α      lambda       -0.1975330E-02
   maximum displ.:     0.3933523 α      in ANC's #8, #1, #13, ...

........................................................................
.............................. CYCLE   28 ..............................
........................................................................

 iter      E             dE          RMSdq      gap      omega  full diag
   1   -209.6834959 -0.209683E+03  0.126E-01    0.02       0.0  T
   2   -209.6421765  0.413195E-01  0.372E-01    0.06       1.0  T
   3   -209.6145725  0.276040E-01  0.480E-01    0.10       1.0  T
   4   -209.6817168 -0.671444E-01  0.829E-02    0.02       1.0  T
   5   -209.6835708 -0.185392E-02  0.215E-02    0.02       1.0  T
   6   -209.6835621  0.865820E-05  0.164E-02    0.02       1.0  T
   7   -209.6836295 -0.674295E-04  0.445E-03    0.02       2.2  T
   8   -209.6836270  0.253138E-05  0.409E-03    0.02       2.4  T
   9   -209.6836315 -0.448828E-05  0.895E-04    0.02      11.1  T
  10   -209.6836316 -0.727258E-07  0.490E-04    0.02      20.3  T
  11   -209.6836316  0.129815E-07  0.361E-04    0.02      27.5  T
     SCC iter.                  ...        0 min,  0.668 sec
     gradient                   ...        0 min,  0.033 sec
 * total energy  :  -207.3867928 Eh     change       -0.1707103E-02 Eh
   gradient norm :     0.0129663 Eh/α   predicted    -0.1521692E-02 ( -10.86%)
   displ. norm   :     0.7353025 α      lambda       -0.1774558E-02
   maximum displ.:     0.4035883 α      in ANC's #8, #1, #5, ...

........................................................................
.............................. CYCLE   29 ..............................
........................................................................

 iter      E             dE          RMSdq      gap      omega  full diag
   1   -209.6875721 -0.209688E+03  0.124E-01    0.02       0.0  T
   2   -209.6256100  0.619621E-01  0.453E-01    0.08       1.0  T
   3   -209.6379167 -0.123067E-01  0.409E-01    0.08       1.0  T
   4   -209.6872816 -0.493649E-01  0.471E-02    0.02       1.0  T
   5   -209.6876841 -0.402462E-03  0.200E-02    0.02       1.0  T
   6   -209.6877390 -0.548770E-04  0.768E-03    0.02       1.3  T
   7   -209.6877427 -0.374887E-05  0.405E-03    0.02       2.5  T
   8   -209.6877442 -0.148367E-05  0.178E-03    0.02       5.6  T
   9   -209.6877445 -0.272911E-06  0.938E-04    0.02      10.6  T
  10   -209.6877445 -0.856156E-07  0.541E-04    0.02      18.4  T
     SCC iter.                  ...        0 min,  0.646 sec
     gradient                   ...        0 min,  0.046 sec
 * total energy  :  -207.3883292 Eh     change       -0.1536333E-02 Eh
   gradient norm :     0.0117306 Eh/α   predicted    -0.1367029E-02 ( -11.02%)
   displ. norm   :     0.7500096 α      lambda       -0.1633200E-02
   maximum displ.:     0.4149350 α      in ANC's #8, #1, #5, ...

........................................................................
.............................. CYCLE   30 ..............................
........................................................................

 iter      E             dE          RMSdq      gap      omega  full diag
   1   -209.6891121 -0.209689E+03  0.123E-01    0.02       0.0  T
   2   -209.5875449  0.101567E+00  0.580E-01    0.13       1.0  T
   3   -209.6605479 -0.730030E-01  0.314E-01    0.06       1.0  T
   4   -209.6880656 -0.275177E-01  0.718E-02    0.02       1.0  T
   5   -209.6892180 -0.115239E-02  0.292E-02    0.02       1.0  T
   6   -209.6892393 -0.213186E-04  0.253E-02    0.02       1.0  T
   7   -209.6894277 -0.188317E-03  0.362E-03    0.02       2.7  T
   8   -209.6894260  0.167149E-05  0.340E-03    0.02       2.9  T
   9   -209.6894288 -0.283490E-05  0.108E-03    0.02       9.2  T
  10   -209.6894288  0.397071E-07  0.960E-04    0.02      10.4  T
  11   -209.6894290 -0.222212E-06  0.242E-04    0.02      41.1  T
     SCC iter.                  ...        0 min,  0.881 sec
     gradient                   ...        0 min,  0.061 sec
 * total energy  :  -207.3897778 Eh     change       -0.1448651E-02 Eh
   gradient norm :     0.0123245 Eh/α   predicted    -0.1275952E-02 ( -11.92%)
   displ. norm   :     0.7662139 α      lambda       -0.1766395E-02
   maximum displ.:     0.4146312 α      in ANC's #8, #1, #5, ...

........................................................................
.............................. CYCLE   31 ..............................
........................................................................

 iter      E             dE          RMSdq      gap      omega  full diag
   1   -209.6969930 -0.209697E+03  0.125E-01    0.02       0.0  T
   2   -209.5785885  0.118405E+00  0.628E-01    0.15       1.0  T
   3   -209.6764092 -0.978208E-01  0.270E-01    0.05       1.0  T
   4   -209.6924245 -0.160153E-01  0.130E-01    0.03       1.0  T
   5   -209.6970874 -0.466284E-02  0.354E-02    0.02       1.0  T
   6   -209.6968765  0.210890E-03  0.425E-02    0.02       1.0  T
   7   -209.6974291 -0.552624E-03  0.373E-03    0.02       2.7  T
   8   -209.6974285  0.606486E-06  0.328E-03    0.02       3.0  T
   9   -209.6974312 -0.270952E-05  0.933E-04    0.02      10.7  T
  10   -209.6974310  0.208635E-06  0.107E-03    0.02       9.3  T
  11   -209.6974312 -0.226976E-06  0.477E-04    0.02      20.9  T
  12   -209.6974313 -0.579799E-07  0.989E-05    0.02     100.6  T
     SCC iter.                  ...        0 min,  0.920 sec
     gradient                   ...        0 min,  0.031 sec
 * total energy  :  -207.3912470 Eh     change       -0.1469161E-02 Eh
   gradient norm :     0.0140483 Eh/α   predicted    -0.1401708E-02 (  -4.59%)
   displ. norm   :     0.8131474 α      lambda       -0.1896472E-02
   maximum displ.:     0.4284852 α      in ANC's #8, #1, #5, ...

........................................................................
.............................. CYCLE   32 ..............................
........................................................................

 iter      E             dE          RMSdq      gap      omega  full diag
   1   -209.6906433 -0.209691E+03  0.136E-01    0.02       0.0  T
   2   -209.5541429  0.136500E+00  0.679E-01    0.20       1.0  T
   3   -209.6730327 -0.118890E+00  0.254E-01    0.05       1.0  T
   4   -209.6787816 -0.574897E-02  0.203E-01    0.04       1.0  T
   5   -209.6909187 -0.121371E-01  0.405E-02    0.02       1.0  T
   6   -209.6908194  0.993570E-04  0.423E-02    0.02       1.0  T
   7   -209.6912072 -0.387874E-03  0.228E-02    0.02       1.0  T
   8   -209.6913679 -0.160624E-03  0.198E-03    0.02       5.0  T
   9   -209.6913679 -0.854237E-07  0.137E-03    0.02       7.2  T
  10   -209.6913681 -0.175017E-06  0.922E-04    0.02      10.8  T
  11   -209.6913683 -0.138456E-06  0.397E-04    0.02      25.1  T
     SCC iter.                  ...        0 min,  0.744 sec
     gradient                   ...        0 min,  0.033 sec
 * total energy  :  -207.3927514 Eh     change       -0.1504464E-02 Eh
   gradient norm :     0.0148554 Eh/α   predicted    -0.1575223E-02 (   4.70%)
   displ. norm   :     0.7246239 α      lambda       -0.1601901E-02
   maximum displ.:     0.3504510 α      in ANC's #8, #1, #5, ...

........................................................................
.............................. CYCLE   33 ..............................
........................................................................

 iter      E             dE          RMSdq      gap      omega  full diag
   1   -209.6917850 -0.209692E+03  0.117E-01    0.02       0.0  T
   2   -209.5655935  0.126192E+00  0.650E-01    0.17       1.0  T
   3   -209.6808870 -0.115294E+00  0.202E-01    0.04       1.0  T
   4   -209.6859567 -0.506970E-02  0.145E-01    0.03       1.0  T
   5   -209.6922711 -0.631442E-02  0.143E-02    0.02       1.0  T
   6   -209.6918377  0.433427E-03  0.388E-02    0.02       1.0  T
   7   -209.6922886 -0.450888E-03  0.621E-03    0.02       1.6  T
   8   -209.6922970 -0.844207E-05  0.277E-03    0.02       3.6  T
   9   -209.6922987 -0.163709E-05  0.103E-03    0.02       9.7  T
  10   -209.6922987 -0.632693E-07  0.586E-04    0.02      17.0  T
  11   -209.6922987  0.219438E-08  0.346E-04    0.02      28.8  T
     SCC iter.                  ...        0 min,  0.670 sec
     gradient                   ...        0 min,  0.035 sec
 * total energy  :  -207.3941680 Eh     change       -0.1416525E-02 Eh
   gradient norm :     0.0118203 Eh/α   predicted    -0.1221517E-02 ( -13.77%)
   displ. norm   :     0.7503273 α      lambda       -0.1673164E-02
   maximum displ.:     0.3206272 α      in ANC's #8, #1, #5, ...

........................................................................
.............................. CYCLE   34 ..............................
........................................................................

 iter      E             dE          RMSdq      gap      omega  full diag
   1   -209.6991757 -0.209699E+03  0.119E-01    0.02       0.0  T
   2   -209.6234874  0.756883E-01  0.502E-01    0.09       1.0  T
   3   -209.6714678 -0.479805E-01  0.308E-01    0.06       1.0  T
   4   -209.6987343 -0.272664E-01  0.494E-02    0.02       1.0  T
   5   -209.6993043 -0.569959E-03  0.174E-02    0.02       1.0  T
   6   -209.6993109 -0.663495E-05  0.140E-02    0.02       1.0  T
   7   -209.6993607 -0.497969E-04  0.379E-03    0.02       2.6  T
   8   -209.6993618 -0.107802E-05  0.235E-03    0.02       4.2  T
   9   -209.6993625 -0.765664E-06  0.136E-03    0.02       7.3  T
  10   -209.6993627 -0.174946E-06  0.852E-04    0.02      11.7  T
  11   -209.6993629 -0.153059E-06  0.210E-04    0.02      47.3  T
     SCC iter.                  ...        0 min,  0.585 sec
     gradient                   ...        0 min,  0.035 sec
 * total energy  :  -207.3955194 Eh     change       -0.1351470E-02 Eh
   gradient norm :     0.0122350 Eh/α   predicted    -0.1307572E-02 (  -3.25%)
   displ. norm   :     0.8324248 α      lambda       -0.1546196E-02
   maximum displ.:     0.3838924 α      in ANC's #8, #1, #5, ...

........................................................................
.............................. CYCLE   35 ..............................
........................................................................

 iter      E             dE          RMSdq      gap      omega  full diag
   1   -209.6923934 -0.209692E+03  0.132E-01    0.02       0.0  T
   2   -209.5843521  0.108041E+00  0.601E-01    0.13       1.0  T
   3   -209.6642549 -0.799029E-01  0.313E-01    0.06       1.0  T
   4   -209.6896421 -0.253871E-01  0.103E-01    0.02       1.0  T
   5   -209.6926837 -0.304158E-02  0.191E-02    0.02       1.0  T
   6   -209.6924582  0.225436E-03  0.307E-02    0.02       1.0  T
   7   -209.6927372 -0.278949E-03  0.450E-03    0.02       2.2  T
   8   -209.6927335  0.370348E-05  0.491E-03    0.02       2.0  T
   9   -209.6927391 -0.559870E-05  0.197E-03    0.02       5.1  T
  10   -209.6927389  0.120566E-06  0.183E-03    0.02       5.4  T
  11   -209.6927398 -0.906567E-06  0.382E-04    0.02      26.1  T
  12   -209.6927399 -0.169549E-07  0.141E-04    0.02      70.5  T
     SCC iter.                  ...        0 min,  0.750 sec
     gradient                   ...        0 min,  0.033 sec
 * total energy  :  -207.3966388 Eh     change       -0.1119311E-02 Eh
   gradient norm :     0.0151702 Eh/α   predicted    -0.1308802E-02 (  16.93%)
   displ. norm   :     0.7135327 α      lambda       -0.1343709E-02
   maximum displ.:     0.3137141 α      in ANC's #8, #1, #7, ...

........................................................................
.............................. CYCLE   36 ..............................
........................................................................

 iter      E             dE          RMSdq      gap      omega  full diag
   1   -209.6939343 -0.209694E+03  0.105E-01    0.02       0.0  T
   2   -209.6748120  0.191223E-01  0.255E-01    0.04       1.0  T
   3   -209.6337676  0.410443E-01  0.449E-01    0.09       1.0  T
   4   -209.6912465 -0.574789E-01  0.948E-02    0.02       1.0  T
   5   -209.6939401 -0.269361E-02  0.151E-02    0.02       1.0  T
   6   -209.6938833  0.568638E-04  0.187E-02    0.02       1.0  T
   7   -209.6939759 -0.926614E-04  0.568E-03    0.02       1.8  T
   8   -209.6939822 -0.628705E-05  0.278E-03    0.02       3.6  T
   9   -209.6939843 -0.204188E-05  0.766E-04    0.02      13.0  T
  10   -209.6939841  0.199006E-06  0.958E-04    0.02      10.4  T
  11   -209.6939843 -0.220618E-06  0.270E-04    0.02      36.8  T
     SCC iter.                  ...        0 min,  0.706 sec
     gradient                   ...        0 min,  0.033 sec
 * total energy  :  -207.3977171 Eh     change       -0.1078317E-02 Eh
   gradient norm :     0.0145771 Eh/α   predicted    -0.1013923E-02 (  -5.97%)
   displ. norm   :     0.6666994 α      lambda       -0.1370293E-02
   maximum displ.:     0.2671911 α      in ANC's #1, #8, #7, ...

........................................................................
.............................. CYCLE   37 ..............................
........................................................................

 iter      E             dE          RMSdq      gap      omega  full diag
   1   -209.7039732 -0.209704E+03  0.101E-01    0.01       0.0  T
   2   -209.6503708  0.536024E-01  0.424E-01    0.08       1.0  T
   3   -209.6821986 -0.318278E-01  0.272E-01    0.04       1.0  T
   4   -209.7024456 -0.202470E-01  0.746E-02    0.02       1.0  T
   5   -209.7040748 -0.162916E-02  0.144E-02    0.01       1.0  T
   6   -209.7040826 -0.780471E-05  0.956E-03    0.01       1.0  T
   7   -209.7041005 -0.179482E-04  0.319E-03    0.01       3.1  T
   8   -209.7041020 -0.145832E-05  0.142E-03    0.01       7.0  T
   9   -209.7041021 -0.108333E-06  0.912E-04    0.01      10.9  T
  10   -209.7041021 -0.643089E-08  0.662E-04    0.01      15.0  T
     SCC iter.                  ...        0 min,  0.991 sec
     gradient                   ...        0 min,  0.037 sec
 * total energy  :  -207.3986673 Eh     change       -0.9501858E-03 Eh
   gradient norm :     0.0140170 Eh/α   predicted    -0.9896881E-03 (   4.16%)
   displ. norm   :     0.7519688 α      lambda       -0.1180364E-02
   maximum displ.:     0.3291779 α      in ANC's #8, #1, #13, ...

........................................................................
.............................. CYCLE   38 ..............................
........................................................................

 iter      E             dE          RMSdq      gap      omega  full diag
   1   -209.7014740 -0.209701E+03  0.114E-01    0.01       0.0  T
   2   -209.6833714  0.181026E-01  0.252E-01    0.05       1.0  T
   3   -209.6224427  0.609287E-01  0.513E-01    0.10       1.0  T
   4   -209.7011111 -0.786684E-01  0.428E-02    0.01       1.0  T
   5   -209.7013618 -0.250690E-03  0.268E-02    0.01       1.0  T
   6   -209.7014165 -0.547061E-04  0.206E-02    0.01       1.0  T
   7   -209.7015291 -0.112613E-03  0.578E-03    0.01       1.7  T
   8   -209.7015296 -0.420619E-06  0.518E-03    0.01       1.9  T
   9   -209.7015373 -0.773647E-05  0.114E-03    0.01       8.8  T
  10   -209.7015372  0.141679E-06  0.119E-03    0.01       8.4  T
  11   -209.7015375 -0.349666E-06  0.376E-04    0.01      26.5  T
  12   -209.7015375 -0.296495E-07  0.908E-05    0.01     109.6  T
     SCC iter.                  ...        0 min,  0.963 sec
     gradient                   ...        0 min,  0.033 sec
 * total energy  :  -207.3995915 Eh     change       -0.9242324E-03 Eh
   gradient norm :     0.0146697 Eh/α   predicted    -0.9239057E-03 (  -0.04%)
   displ. norm   :     0.7050467 α      lambda       -0.1078889E-02
   maximum displ.:     0.3081891 α      in ANC's #1, #8, #13, ...

........................................................................
.............................. CYCLE   39 ..............................
........................................................................

 iter      E             dE          RMSdq      gap      omega  full diag
   1   -209.7024295 -0.209702E+03  0.107E-01    0.01       0.0  T
   2   -209.6829506  0.194789E-01  0.258E-01    0.04       1.0  T
   3   -209.6357288  0.472218E-01  0.472E-01    0.10       1.0  T
   4   -209.7007033 -0.649745E-01  0.785E-02    0.02       1.0  T
   5   -209.7020941 -0.139083E-02  0.376E-02    0.01       1.0  T
   6   -209.7024626 -0.368526E-03  0.127E-02    0.01       1.0  T
   7   -209.7024952 -0.325910E-04  0.641E-03    0.01       1.6  T
   8   -209.7025040 -0.872717E-05  0.299E-03    0.01       3.3  T
   9   -209.7025064 -0.239616E-05  0.745E-04    0.01      13.4  T
  10   -209.7025063  0.463228E-07  0.687E-04    0.01      14.5  T
  11   -209.7025064 -0.768047E-07  0.311E-04    0.01      32.0  T
     SCC iter.                  ...        0 min,  0.737 sec
     gradient                   ...        0 min,  0.039 sec
 * total energy  :  -207.4003500 Eh     change       -0.7585041E-03 Eh
   gradient norm :     0.0152758 Eh/α   predicted    -0.8075999E-03 (   6.47%)
   displ. norm   :     0.6758248 α      lambda       -0.1061501E-02
   maximum displ.:     0.3053043 α      in ANC's #1, #8, #13, ...

........................................................................
.............................. CYCLE   40 ..............................
........................................................................

 iter      E             dE          RMSdq      gap      omega  full diag
   1   -209.6980704 -0.209698E+03  0.969E-02    0.01       0.0  T
   2   -209.6626764  0.353941E-01  0.345E-01    0.06       1.0  T
   3   -209.6640710 -0.139467E-02  0.338E-01    0.05       1.0  T
   4   -209.6978179 -0.337468E-01  0.374E-02    0.01       1.0  T
   5   -209.6980928 -0.274907E-03  0.184E-02    0.01       1.0  T
   6   -209.6981506 -0.578139E-04  0.662E-03    0.01       1.5  T
   7   -209.6981560 -0.543813E-05  0.250E-03    0.01       4.0  T
   8   -209.6981566 -0.563097E-06  0.117E-03    0.01       8.5  T
   9   -209.6981567 -0.110685E-06  0.697E-04    0.01      14.3  T
  10   -209.6981567  0.121638E-07  0.488E-04    0.01      20.4  T
     SCC iter.                  ...        0 min,  0.625 sec
     gradient                   ...        0 min,  0.032 sec
 * total energy  :  -207.4010907 Eh     change       -0.7406928E-03 Eh
   gradient norm :     0.0136904 Eh/α   predicted    -0.7731666E-03 (   4.38%)
   displ. norm   :     0.6026039 α      lambda       -0.1230802E-02
   maximum displ.:     0.2705202 α      in ANC's #1, #13, #2, ...

........................................................................
.............................. CYCLE   41 ..............................
........................................................................

 iter      E             dE          RMSdq      gap      omega  full diag
   1   -209.7104500 -0.209710E+03  0.109E-01    0.01       0.0  T
   2   -209.6329162  0.775337E-01  0.509E-01    0.11       1.0  T
   3   -209.6813320 -0.484158E-01  0.316E-01    0.05       1.0  T
   4   -209.7089306 -0.275985E-01  0.771E-02    0.02       1.0  T
   5   -209.7106067 -0.167614E-02  0.190E-02    0.01       1.0  T
   6   -209.7106016  0.510385E-05  0.168E-02    0.01       1.0  T
   7   -209.7106790 -0.774062E-04  0.316E-03    0.01       3.1  T
   8   -209.7106750  0.399822E-05  0.418E-03    0.01       2.4  T
   9   -209.7106802 -0.518196E-05  0.672E-04    0.01      14.8  T
  10   -209.7106802  0.406533E-07  0.617E-04    0.01      16.1  T
  11   -209.7106802 -0.916389E-07  0.181E-04    0.01      54.8  T
     SCC iter.                  ...        0 min,  0.673 sec
     gradient                   ...        0 min,  0.033 sec
 * total energy  :  -207.4016028 Eh     change       -0.5120701E-03 Eh
[...]
    54   8 O        0.860    -0.503    23.845     6.547
    55   8 O        1.705    -0.377    20.392     6.097
    56   6 C        3.742     0.052    19.771     6.344
    57   8 O        1.846    -0.394    20.695     6.143
    58   6 C        3.719     0.040    20.017     6.390
    59   8 O        0.860    -0.519    24.206     6.596
    60   8 O        0.870    -0.545    24.795     6.676
    61   8 O        1.705    -0.390    20.637     6.134
    62   6 C        3.728     0.049    19.844     6.360
    63   8 O        0.860    -0.503    23.854     6.548
    64   8 O        1.705    -0.377    20.387     6.096
    65   6 C        3.743     0.052    19.769     6.343
    66   8 O        0.860    -0.510    24.004     6.569
    67   8 O        1.706    -0.367    20.208     6.069
    68   6 C        3.753     0.051    19.774     6.341
    69   8 O        0.860    -0.512    24.059     6.576
    70   8 O        1.706    -0.373    20.317     6.086
    71   6 C        3.724     0.054    19.769     6.349
    72   1 H        0.925     0.052     2.299     2.371
    73   1 H        0.924     0.056     2.242     2.341
    74   1 H        0.924     0.033     2.538     2.491
    75   1 H        0.925     0.056     2.248     2.345
    76   1 H        0.924     0.052     2.290     2.367
    77   1 H        0.924     0.040     2.448     2.447
    78   1 H        0.924     0.047     2.359     2.402
    79   1 H        0.924     0.045     2.387     2.416
    80   1 H        0.924     0.047     2.352     2.398
    81   1 H        0.924     0.049     2.330     2.387
    82   1 H        0.924     0.033     2.548     2.496
    83   1 H        0.924     0.057     2.235     2.338
    84   1 H        0.925     0.054     2.276     2.359
    85   1 H        0.924     0.075     2.037     2.232
    86   1 H        0.924     0.047     2.352     2.398
    87   1 H        0.925     0.052     2.297     2.370
    88   1 H        0.924     0.033     2.540     2.493
    89   1 H        0.924     0.057     2.238     2.340
    90   1 H        0.926     0.073     2.051     2.240
    91   1 H        0.926     0.054     2.266     2.354
    92   1 H        0.926     0.076     2.017     2.221
    93   1 H        0.926     0.054     2.274     2.358
    94   1 H        0.926     0.060     2.201     2.320
    95   1 H        0.926     0.067     2.119     2.276
    96   1 H        0.926     0.053     2.283     2.363
    97   1 H        0.926     0.052     2.297     2.370
    98   1 H        0.926     0.071     2.075     2.253
    99   1 H        0.926     0.077     2.008     2.216
   100   1 H        0.926     0.075     2.029     2.228
   101   1 H        0.926     0.056     2.242     2.341

 Mol. C6AA /au·bohr⁶  :     189453.498924
 Mol. C8AA /au·bohr⁸  :    5213161.533140
 Mol. α(0) /au        :        684.484784


Wiberg/Mayer (AO) data.
largest (>0.10) Wiberg bond orders for each atom

 ---------------------------------------------------------------------------
     #   Z sym  total        # sym  WBO       # sym  WBO       # sym  WBO
 ---------------------------------------------------------------------------
     1   6 C    3.911 --     2 C    1.392     6 C    1.339    96 H    0.956
     2   6 C    3.945 --     1 C    1.392     3 C    1.257    22 O    1.099
     3   6 C    3.931 --     2 C    1.257     7 C    1.218     4 C    1.194
     4   6 C    3.971 --    10 N    1.357     5 C    1.234     3 C    1.194
     5   6 C    3.923 --     6 C    1.517     4 C    1.234    99 H    0.958
     6   6 C    3.963 --     5 C    1.517     1 C    1.339    24 S    0.909
     7   6 C    3.983 --     8 C    1.313     3 C    1.218    11 C    1.207
     8   6 C    3.982 --     7 C    1.313     9 C    1.196    14 C    1.194
     9   6 C    3.979 --    10 N    1.344    17 C    1.254     8 C    1.196
    10   7 N    2.928 --     4 C    1.357     9 C    1.344
    11   6 C    3.930 --    18 C    1.264     7 C    1.207    12 C    1.191
    12   6 C    3.970 --    13 N    1.358    21 C    1.238    11 C    1.191
    13   7 N    2.920 --    12 C    1.358    14 C    1.337
    14   6 C    3.980 --    13 N    1.337    15 C    1.268     8 C    1.194
    15   6 C    3.805 --    16 C    1.423    14 C    1.268   101 H    0.965
    16   6 C    3.966 --    17 C    1.439    15 C    1.423    26 S    0.911
    17   6 C    3.808 --    16 C    1.439     9 C    1.254   100 H    0.960
    18   6 C    3.942 --    19 C    1.381    11 C    1.264    23 O    1.103
    19   6 C    3.902 --    18 C    1.381    20 C    1.348    97 H    0.955
    20   6 C    3.962 --    21 C    1.506    19 C    1.348    25 S    0.913
    21   6 C    3.913 --    20 C    1.506    12 C    1.238    98 H    0.961
    22   8 O    2.103 --     2 C    1.099    53 B    0.767
    23   8 O    2.119 --    18 C    1.103    53 B    0.778
    24  16 S    3.909 --    69 O    1.843    70 O    1.041     6 C    0.909
    25  16 S    3.867 --    59 O    1.829    57 O    0.973    20 C    0.913
    26  16 S    3.902 --    54 O    1.849    55 O    1.029    16 C    0.911
    27   6 C    3.912 --    28 C    1.382    32 C    1.349    95 H    0.961
    28   6 C    3.938 --    27 C    1.382    29 C    1.244    48 O    1.114
    29   6 C    3.939 --    28 C    1.244    33 C    1.224    30 C    1.199
    30   6 C    3.973 --    36 N    1.343    31 C    1.249    29 C    1.199
    31   6 C    3.925 --    32 C    1.502    30 C    1.249    93 H    0.965
    32   6 C    3.963 --    31 C    1.502    27 C    1.349    50 S    0.912
    33   6 C    3.982 --    34 C    1.316    29 C    1.224    37 C    1.202
    34   6 C    3.981 --    33 C    1.316    40 C    1.190    35 C    1.190
    35   6 C    3.978 --    36 N    1.355    43 C    1.254    34 C    1.190
    36   7 N    2.916 --    35 C    1.355    30 C    1.343
    37   6 C    3.922 --    44 C    1.252    33 C    1.202    38 C    1.185
    38   6 C    3.969 --    39 N    1.363    47 C    1.233    37 C    1.185
    39   7 N    2.936 --    38 C    1.363    40 C    1.339
    40   6 C    3.979 --    39 N    1.339    41 C    1.264    34 C    1.190
    41   6 C    3.803 --    42 C    1.427    40 C    1.264    90 H    0.960
    42   6 C    3.965 --    43 C    1.433    41 C    1.427    52 S    0.911
    43   6 C    3.802 --    42 C    1.433    35 C    1.254    91 H    0.965
    44   6 C    3.930 --    45 C    1.390    37 C    1.252    49 O    1.109
    45   6 C    3.903 --    44 C    1.390    46 C    1.338    94 H    0.952
    46   6 C    3.966 --    47 C    1.513    45 C    1.338    51 S    0.910
    47   6 C    3.917 --    46 C    1.513    38 C    1.233    92 H    0.958
    48   8 O    2.149 --    28 C    1.114    53 B    0.792
    49   8 O    2.163 --    44 C    1.109    53 B    0.807
    50  16 S    3.945 --    60 O    1.782    61 O    1.022    32 C    0.912
                            57 O    0.110
    51  16 S    3.915 --    66 O    1.838    67 O    1.051    46 C    0.910
    52  16 S    3.903 --    63 O    1.848    64 O    1.030    42 C    0.911
    53   5 B    3.300 --    49 O    0.807    48 O    0.792    23 O    0.778
                            22 O    0.767
    54   8 O    2.030 --    26 S    1.849
    55   8 O    2.158 --    26 S    1.029    56 C    0.982
    56   6 C    3.940 --    55 O    0.982    88 H    0.979    87 H    0.975
                            89 H    0.972
    57   8 O    2.193 --    25 S    0.973    58 C    0.968    50 S    0.110
    58   6 C    3.926 --    86 H    0.977    84 H    0.977    57 O    0.968
                            85 H    0.964
    59   8 O    2.012 --    25 S    1.829
    60   8 O    1.981 --    50 S    1.782
    61   8 O    2.146 --    50 S    1.022    62 C    0.984
    62   6 C    3.941 --    61 O    0.984    82 H    0.978    81 H    0.976
                            83 H    0.972
    63   8 O    2.029 --    52 S    1.848
    64   8 O    2.159 --    52 S    1.030    65 C    0.982
    65   6 C    3.940 --    64 O    0.982    74 H    0.979    72 H    0.976
                            73 H    0.972
    66   8 O    2.017 --    51 S    1.838
    67   8 O    2.175 --    51 S    1.051    68 C    0.978
    68   6 C    3.938 --    67 O    0.978    77 H    0.977    75 H    0.976
                            76 H    0.974
    69   8 O    2.021 --    24 S    1.843
    70   8 O    2.168 --    24 S    1.041    71 C    0.977
    71   6 C    3.941 --    70 O    0.977    79 H    0.977    80 H    0.976
                            78 H    0.975
    72   1 H    0.997 --    65 C    0.976
    73   1 H    0.997 --    65 C    0.972
    74   1 H    0.999 --    65 C    0.979
    75   1 H    0.997 --    68 C    0.976
    76   1 H    0.997 --    68 C    0.974
    77   1 H    0.998 --    68 C    0.977
    78   1 H    0.998 --    71 C    0.975
    79   1 H    0.998 --    71 C    0.977
    80   1 H    0.998 --    71 C    0.976
    81   1 H    0.997 --    62 C    0.976
    82   1 H    0.999 --    62 C    0.978
    83   1 H    0.997 --    62 C    0.972
    84   1 H    0.997 --    58 C    0.977
    85   1 H    0.994 --    58 C    0.964
    86   1 H    0.998 --    58 C    0.977
    87   1 H    0.997 --    56 C    0.975
    88   1 H    0.999 --    56 C    0.979
    89   1 H    0.997 --    56 C    0.972
    90   1 H    0.994 --    41 C    0.960
    91   1 H    0.996 --    43 C    0.965
    92   1 H    0.993 --    47 C    0.958
    93   1 H    0.996 --    31 C    0.965
    94   1 H    0.995 --    45 C    0.952
    95   1 H    0.995 --    27 C    0.961
    96   1 H    0.997 --     1 C    0.956
    97   1 H    0.997 --    19 C    0.955
    98   1 H    0.994 --    21 C    0.961
    99   1 H    0.993 --     5 C    0.958
   100   1 H    0.994 --    17 C    0.960
   101   1 H    0.996 --    15 C    0.965
 ---------------------------------------------------------------------------

Topologies differ in bond orders
Writing corrected topology to xtbtopo.mol

molecular dipole:
                 x           y           z       tot (Debye)
 q only:        2.006      -3.114      -0.148
   full:        1.388      -2.661      -0.096       7.632
molecular quadrupole (traceless):
                xx          xy          yy          xz          yz          zz
 q only:      -61.294       6.240      -7.125     -24.409      25.318      68.419
  q+dip:      -59.648      13.939     -11.352     -19.353      17.574      70.999
   full:      -61.096      16.766     -18.038     -22.609      18.444      79.134

           -------------------------------------------------
          |                Geometry Summary                 |
           -------------------------------------------------

      molecular mass/u    :     1073.9276462
   center of mass at/Å    :       -0.9798527       0.5749766       0.3379566
  moments of inertia/u·Å² :        0.1657317E+05   0.2637807E+05   0.3540508E+05
rotational constants/cm⁻¹ :        0.1017164E-02   0.6390774E-03   0.4761359E-03

 * 93 selected distances

     #   Z          #   Z                                           value/Å
     1   6 C        2   6 C                                       1.3887902
     2   6 C        3   6 C                                       1.4195292
     4   6 C        5   6 C                                       1.4146979
     1   6 C        6   6 C                                       1.3901960
     5   6 C        6   6 C                                       1.3618491
     3   6 C        7   6 C                                       1.4346154
     7   6 C        8   6 C                                       1.4128908
     8   6 C        9   6 C                                       1.4261417
     4   6 C       10   7 N                                       1.3311071
     9   6 C       10   7 N                                       1.3288663
    12   6 C       13   7 N                                       1.3313397
     8   6 C       14   6 C                                       1.4255119
    13   7 N       14   6 C                                       1.3297724
    14   6 C       15   6 C                                       1.4095504
    15   6 C       16   6 C                                       1.3798726
     9   6 C       17   6 C                                       1.4112757
    16   6 C       17   6 C                                       1.3764427
    11   6 C       18   6 C                                       1.4220870
    18   6 C       19   6 C                                       1.3941561
    19   6 C       20   6 C                                       1.3899440
    12   6 C       21   6 C                                       1.4140704
    20   6 C       21   6 C                                       1.3642284
     2   6 C       22   8 O                                       1.3404431
    18   6 C       23   8 O                                       1.3427407
    27   6 C       28   6 C                                       1.3929260
    28   6 C       29   6 C                                       1.4282233
    30   6 C       31   6 C                                       1.4135774
    27   6 C       32   6 C                                       1.3877565
    31   6 C       32   6 C                                       1.3626400
    33   6 C       34   6 C                                       1.4136603
    34   6 C       35   6 C                                       1.4255409
    30   6 C       36   7 N                                       1.3342310
    35   6 C       36   7 N                                       1.3262393
    38   6 C       39   7 N                                       1.3293878
    34   6 C       40   6 C                                       1.4268184
    39   7 N       40   6 C                                       1.3298055
    40   6 C       41   6 C                                       1.4089148
    41   6 C       42   6 C                                       1.3784197
    35   6 C       43   6 C                                       1.4121483
    42   6 C       43   6 C                                       1.3783841
    37   6 C       44   6 C                                       1.4222678
    44   6 C       45   6 C                                       1.3916932
    45   6 C       46   6 C                                       1.3912812
    38   6 C       47   6 C                                       1.4147900
    46   6 C       47   6 C                                       1.3621838
    28   6 C       48   8 O                                       1.3353519
    44   6 C       49   8 O                                       1.3369327
    22   8 O       53   5 B                                       1.4851161 (max)
    23   8 O       53   5 B                                       1.4794466
    48   8 O       53   5 B                                       1.4674816
    49   8 O       53   5 B                                       1.4548908
    26  16 S       54   8 O                                       1.4514887
    55   8 O       56   6 C                                       1.4030330
    57   8 O       58   6 C                                       1.4054498
    25  16 S       59   8 O                                       1.4569688
    50  16 S       60   8 O                                       1.4561695
    61   8 O       62   6 C                                       1.4025498
    52  16 S       63   8 O                                       1.4516827
    64   8 O       65   6 C                                       1.4032192
    51  16 S       66   8 O                                       1.4542318
    67   8 O       68   6 C                                       1.4035352
    24  16 S       69   8 O                                       1.4531726
    70   8 O       71   6 C                                       1.4045226
    65   6 C       72   1 H                                       1.0894454
    65   6 C       73   1 H                                       1.0953625
    65   6 C       74   1 H                                       1.0947200
    68   6 C       75   1 H                                       1.0888346
    68   6 C       76   1 H                                       1.0956154
    68   6 C       77   1 H                                       1.0931847
    71   6 C       78   1 H                                       1.0908548
    71   6 C       79   1 H                                       1.0939665
    71   6 C       80   1 H                                       1.0946840
    62   6 C       81   1 H                                       1.0903828
    62   6 C       82   1 H                                       1.0951856
    62   6 C       83   1 H                                       1.0945552
    58   6 C       84   1 H                                       1.0900510
    58   6 C       85   1 H                                       1.0954906
    58   6 C       86   1 H                                       1.0930682
    56   6 C       87   1 H                                       1.0894810
    56   6 C       88   1 H                                       1.0947317
    56   6 C       89   1 H                                       1.0953382
    41   6 C       90   1 H                                       1.0786022
    43   6 C       91   1 H                                       1.0781532
    47   6 C       92   1 H                                       1.0780142
    31   6 C       93   1 H                                       1.0773903
    45   6 C       94   1 H                                       1.0752840
    27   6 C       95   1 H                                       1.0796770
     1   6 C       96   1 H                                       1.0770481
    19   6 C       97   1 H                                       1.0752022 (min)
    21   6 C       98   1 H                                       1.0775067
     5   6 C       99   1 H                                       1.0783367
    17   6 C      100   1 H                                       1.0787240
    15   6 C      101   1 H                                       1.0780714

 * 6 distinct bonds (by element types)

   Z      Z             #   av. dist./Å        max./Å        min./Å
   1 H    6 C          30     1.0868987     1.0956154     1.0752022
   6 C    6 C          35     1.4013450     1.4346154     1.3618491
   6 C    7 N           8     1.3300936     1.3342310     1.3262393
   5 B    8 O           4     1.4717337     1.4851161     1.4548908
   6 C    8 O          10     1.3777778     1.4054498     1.3353519
   8 O   16 S           6     1.4539523     1.4569688     1.4514887


optimized geometry written to: xtbopt.mol


           -------------------------------------------------
          | TOTAL ENERGY             -207.431612420827 Eh   |
          | GRADIENT NORM               0.000988279513 Eh/α |
          | HOMO-LUMO GAP               0.028974070327 eV   |
           -------------------------------------------------
########################################################################
[WARNING] Runtime exception occurred
-2- restart_readRestart: Multiplicity missmatch in restart file.
-1- restart_readRestart: Number of electron missmatch in restart file.
########################################################################

------------------------------------------------------------------------
Note: The following floating-point exceptions are signalling: IEEE_UNDERFLOW_FLAG
normal termination of xtb
 * finished run on 2024/10/31 at 14:19:48.974     
------------------------------------------------------------------------
 total:
 * wall-time:     0 d,  0 h,  1 min, 30.964 sec
 *  cpu-time:     0 d,  0 h,  4 min, 49.570 sec
 * ratio c/w:     3.183 speedup
 SCF:
 * wall-time:     0 d,  0 h,  0 min,  2.672 sec
 *  cpu-time:     0 d,  0 h,  0 min,  9.579 sec
 * ratio c/w:     3.586 speedup
 ANC optimizer:
 * wall-time:     0 d,  0 h,  1 min, 28.271 sec
 *  cpu-time:     0 d,  0 h,  4 min, 39.956 sec
 * ratio c/w:     3.172 speedup

