      -----------------------------------------------------------      
     |                   =====================                   |     
     |                           x T B                           |     
     |                   =====================                   |     
     |                         S. Grimme                         |     
     |          Mulliken Center for Theoretical Chemistry        |     
     |                    University of Bonn                     |     
      -----------------------------------------------------------      

   * xtb version 6.6.1 (8d0f1dd) compiled by 'runner@Mac-1690902418499.local' on 2023-08-01

   xtb is free software: you can redistribute it and/or modify it under
   the terms of the GNU Lesser General Public License as published by
   the Free Software Foundation, either version 3 of the License, or
   (at your option) any later version.
   
   xtb is distributed in the hope that it will be useful,
   but WITHOUT ANY WARRANTY; without even the implied warranty of
   MERCHANTABILITY or FITNESS FOR A PARTICULAR PURPOSE.  See the
   GNU Lesser General Public License for more details.
   
   Cite this work as:
   * C. Bannwarth, E. Caldeweyher, S. Ehlert, A. Hansen, P. Pracht,
     J. Seibert, S. Spicher, S. Grimme, WIREs Comput. Mol. Sci., 2020, 11,
     e01493. DOI: 10.1002/wcms.1493
   
   for GFN2-xTB:
   * C. Bannwarth, S. Ehlert and S. Grimme., J. Chem. Theory Comput., 2019,
     15, 1652-1671. DOI: 10.1021/acs.jctc.8b01176
   for GFN1-xTB:
   * S. Grimme, C. Bannwarth, P. Shushkov, J. Chem. Theory Comput., 2017,
     13, 1989-2009. DOI: 10.1021/acs.jctc.7b00118
   for GFN0-xTB:
   * P. Pracht, E. Caldeweyher, S. Ehlert, S. Grimme, ChemRxiv, 2019, preprint.
     DOI: 10.26434/chemrxiv.8326202.v1
   for GFN-FF:
   * S. Spicher and S. Grimme, Angew. Chem. Int. Ed., 2020, 59, 15665-15673.
     DOI: 10.1002/anie.202004239
   
   for ALPB and GBSA implicit solvation:
   * S. Ehlert, M. Stahn, S. Spicher, S. Grimme, J. Chem. Theory Comput.,
     2021, 17, 4250-4261. DOI: 10.1021/acs.jctc.1c00471
   
   for DFT-D4:
   * E. Caldeweyher, C. Bannwarth and S. Grimme, J. Chem. Phys., 2017,
     147, 034112. DOI: 10.1063/1.4993215
   * E. Caldeweyher, S. Ehlert, A. Hansen, H. Neugebauer, S. Spicher,
     C. Bannwarth and S. Grimme, J. Chem. Phys., 2019, 150, 154122.
     DOI: 10.1063/1.5090222
   * E. Caldeweyher, J.-M. Mewes, S. Ehlert and S. Grimme, Phys. Chem. Chem. Phys.
     2020, 22, 8499-8512. DOI: 10.1039/D0CP00502A
   
   for sTDA-xTB:
   * S. Grimme and C. Bannwarth, J. Chem. Phys., 2016, 145, 054103.
     DOI: 10.1063/1.4959605
   
   in the mass-spec context:
   * V. Asgeirsson, C. Bauer and S. Grimme, Chem. Sci., 2017, 8, 4879.
     DOI: 10.1039/c7sc00601b
   * J. Koopman and S. Grimme, ACS Omega 2019, 4, 12, 15120-15133.
     DOI: 10.1021/acsomega.9b02011
   
   for metadynamics refer to:
   * S. Grimme, J. Chem. Theory Comput., 2019, 155, 2847-2862
     DOI: 10.1021/acs.jctc.9b00143
   
   for SPH calculations refer to:
   * S. Spicher and S. Grimme, J. Chem. Theory Comput., 2021, 17, 1701-1714
     DOI: 10.1021/acs.jctc.0c01306
   
   with help from (in alphabetical order)
   P. Atkinson, C. Bannwarth, F. Bohle, G. Brandenburg, E. Caldeweyher
   M. Checinski, S. Dohm, S. Ehlert, S. Ehrlich, I. Gerasimov, C. Hölzer
   A. Katbashev, J. Koopman, C. Lavigne, S. Lehtola, F. März, M. Müller,
   F. Musil, H. Neugebauer, J. Pisarek, C. Plett, P. Pracht, F. Pultar,
   J. Seibert, P. Shushkov, S. Spicher, M. Stahn, M. Steiner, T. Strunk,
   J. Stückrath, T. Rose, and J. Unsleber
   
 * started run on 2024/10/31 at 14:22:39.933     

           -------------------------------------------------
          |                Calculation Setup                |
           -------------------------------------------------

          program call               : xtb opt_radical_Base1SO2Me.mol --gfn2 --sp --chrg -1 --uhf 1
          coordinate file            : opt_radical_Base1SO2Me.mol
          omp threads                :                     8

   ID    Z sym.   atoms
    1    6 C      1-9, 11, 12, 14-21, 27-35, 37, 38, 40-47, 56, 58, 62, 65,
                  68, 71
    2    7 N      10, 13, 36, 39
    3    8 O      22, 23, 48, 49, 54, 55, 57, 59-61, 63, 64, 66, 67, 69, 70
    4   16 S      24-26, 50-52
    5    5 B      53
    6    1 H      72-101

           -------------------------------------------------
          |                 G F N 2 - x T B                 |
           -------------------------------------------------

        Reference                      10.1021/acs.jctc.8b01176
      * Hamiltonian:
        H0-scaling (s, p, d)           1.850000    2.230000    2.230000
        zeta-weighting                 0.500000
      * Dispersion:
        s8                             2.700000
        a1                             0.520000
        a2                             5.000000
        s9                             5.000000
      * Repulsion:
        kExp                           1.500000    1.000000
        rExp                           1.000000
      * Coulomb:
        alpha                          2.000000
        third order                    shell-resolved
        anisotropic                    true
        a3                             3.000000
        a5                             4.000000
        cn-shift                       1.200000
        cn-exp                         4.000000
        max-rad                        5.000000

q/qsh data taken from xtbrestart
CAMM data taken from xtbrestart

          ...................................................
          :                      SETUP                      :
          :.................................................:
          :  # basis functions                 350          :
          :  # atomic orbitals                 344          :
          :  # shells                          178          :
          :  # electrons                       362          :
          :  max. iterations                   250          :
          :  Hamiltonian                  GFN2-xTB          :
          :  restarted?                       true          :
          :  GBSA solvation                  false          :
          :  PC potential                    false          :
          :  electronic temp.          300.0000000     K    :
          :  accuracy                    1.0000000          :
          :  -> integral cutoff          0.2500000E+02      :
          :  -> integral neglect         0.1000000E-07      :
          :  -> SCF convergence          0.1000000E-05 Eh   :
          :  -> wf. convergence          0.1000000E-03 e    :
          :  Broyden damping             0.4000000          :
          ...................................................

 iter      E             dE          RMSdq      gap      omega  full diag
   1   -209.7059491 -0.209706E+03  0.128E+00    0.07       0.0  T
   2   -209.5242916  0.181657E+00  0.118E+00    0.44       1.0  T
   3   -209.5091902  0.151014E-01  0.118E+00    0.40       1.0  T
   4   -209.5638819 -0.546916E-01  0.871E-01    0.36       1.0  T
   5   -209.6550409 -0.911590E-01  0.592E-01    0.11       1.0  T
   6   -209.5798704  0.751705E-01  0.767E-01    0.37       1.0  T
   7   -209.7025577 -0.122687E+00  0.365E-01    0.08       1.0  T
   8   -209.6721695  0.303883E-01  0.478E-01    0.10       1.0  T
   9   -209.7008980 -0.287286E-01  0.357E-01    0.09       1.0  T
  10   -209.7347001 -0.338021E-01  0.577E-02    0.05       1.0  T
  11   -209.7341611  0.539008E-03  0.703E-02    0.05       1.0  T
  12   -209.7352699 -0.110885E-02  0.306E-02    0.05       1.0  T
  13   -209.7354714 -0.201468E-03  0.137E-02    0.05       1.0  T
  14   -209.7355230 -0.515654E-04  0.105E-03    0.05       9.5  T
  15   -209.7355220  0.983218E-06  0.204E-03    0.05       4.9  T
  16   -209.7355226 -0.646253E-06  0.122E-03    0.05       8.1  T
  17   -209.7355229 -0.310715E-06  0.548E-04    0.05      18.2  T
  18   -209.7355230 -0.763413E-07  0.128E-04    0.05      77.9  T

   *** convergence criteria satisfied after 18 iterations ***

         #    Occupation            Energy/Eh            Energy/eV
      -------------------------------------------------------------
         1        2.0000           -0.7128783             -19.3984
       ...           ...                  ...                  ...
       175        2.0000           -0.3067792              -8.3479
       176        2.0000           -0.3058575              -8.3228
       177        2.0000           -0.3035279              -8.2594
       178        2.0000           -0.2942798              -8.0078
       179        2.0000           -0.2922144              -7.9516
       180        2.0000           -0.2906805              -7.9098
       181        1.4479           -0.2788717              -7.5885 (HOMO)
       182        0.5521           -0.2770397              -7.5386 (LUMO)
       183                         -0.2157005              -5.8695
       184                         -0.2130676              -5.7979
       185                         -0.1861333              -5.0649
       186                         -0.1835950              -4.9959
       ...                                ...                  ...
       344                          1.0677128              29.0539
      -------------------------------------------------------------
                  HL-Gap            0.0018320 Eh            0.0499 eV
             Fermi-level           -0.2779557 Eh           -7.5636 eV

 SCC (total)                   0 d,  0 h,  0 min,  1.214 sec
 SCC setup                      ...        0 min,  0.000 sec (  0.029%)
 Dispersion                     ...        0 min,  0.001 sec (  0.087%)
 classical contributions        ...        0 min,  0.000 sec (  0.019%)
 integral evaluation            ...        0 min,  0.006 sec (  0.527%)
 iterations                     ...        0 min,  1.168 sec ( 96.159%)
 molecular gradient             ...        0 min,  0.032 sec (  2.628%)
 printout                       ...        0 min,  0.007 sec (  0.550%)

         :::::::::::::::::::::::::::::::::::::::::::::::::::::
         ::                     SUMMARY                     ::
         :::::::::::::::::::::::::::::::::::::::::::::::::::::
         :: total energy            -207.429643464876 Eh    ::
         :: gradient norm              0.038011992329 Eh/a0 ::
         :: HOMO-LUMO gap              0.049850247418 eV    ::
         ::.................................................::
         :: SCC energy              -209.735523021607 Eh    ::
         :: -> isotropic ES            0.527732122750 Eh    ::
         :: -> anisotropic ES         -0.024001311067 Eh    ::
         :: -> anisotropic XC          0.056084445349 Eh    ::
         :: -> dispersion             -0.181230386456 Eh    ::
         :: repulsion energy           2.303594895319 Eh    ::
         :: add. restraining           0.000000000000 Eh    ::
         :: total charge              -0.999997378605 e     ::
         :::::::::::::::::::::::::::::::::::::::::::::::::::::

           -------------------------------------------------
          |                Property Printout                |
           -------------------------------------------------

    * Orbital Energies and Occupations

         #    Occupation            Energy/Eh            Energy/eV
      -------------------------------------------------------------
         1        2.0000           -0.7128783             -19.3984
       ...           ...                  ...                  ...
       169        2.0000           -0.3255796              -8.8595
       170        2.0000           -0.3190305              -8.6813
       171        2.0000           -0.3149502              -8.5702
       172        2.0000           -0.3135138              -8.5311
       173        2.0000           -0.3115444              -8.4776
       174        2.0000           -0.3086171              -8.3979
       175        2.0000           -0.3067792              -8.3479
       176        2.0000           -0.3058575              -8.3228
       177        2.0000           -0.3035279              -8.2594
       178        2.0000           -0.2942798              -8.0078
       179        2.0000           -0.2922144              -7.9516
       180        2.0000           -0.2906805              -7.9098
       181        1.4479           -0.2788717              -7.5885 (HOMO)
       182        0.5521           -0.2770397              -7.5386 (LUMO)
       183                         -0.2157005              -5.8695
       184                         -0.2130676              -5.7979
       185                         -0.1861333              -5.0649
       186                         -0.1835950              -4.9959
       187                         -0.1806551              -4.9159
       188                         -0.1763615              -4.7990
       189                         -0.1622479              -4.4150
       190                         -0.1592186              -4.3326
       191                         -0.1548170              -4.2128
       192                         -0.1531176              -4.1665
       ...                                ...                  ...
       344                          1.0677128              29.0539
      -------------------------------------------------------------
                  HL-Gap            0.0018320 Eh            0.0499 eV
             Fermi-level           -0.2779557 Eh           -7.5636 eV

     #   Z          covCN         q      C6AA      α(0)
     1   6 C        2.947    -0.064    29.581     8.920
     2   6 C        2.877     0.174    24.264     8.075
     3   6 C        2.976    -0.028    28.704     8.788
     4   6 C        2.970     0.092    25.943     8.355
     5   6 C        2.952    -0.049    29.211     8.865
     6   6 C        2.955    -0.058    29.449     8.901
     7   6 C        2.972     0.043    27.032     8.528
     8   6 C        2.997    -0.028    28.690     8.786
     9   6 C        2.964     0.091    25.969     8.359
    10   7 N        1.858    -0.251    27.383     7.756
    11   6 C        2.970    -0.029    28.710     8.789
    12   6 C        2.969     0.097    25.843     8.339
    13   7 N        1.865    -0.248    27.319     7.747
    14   6 C        2.963     0.092    25.948     8.355
    15   6 C        2.946    -0.049    29.207     8.864
    16   6 C        2.952    -0.056    29.400     8.893
    17   6 C        2.945    -0.039    28.958     8.826
    18   6 C        2.845     0.174    24.252     8.071
    19   6 C        2.931    -0.048    29.203     8.862
    20   6 C        2.953    -0.050    29.241     8.869
    21   6 C        2.993    -0.050    29.225     8.868
    22   8 O        1.636    -0.416    21.165     6.210
    23   8 O        1.635    -0.418    21.213     6.217
    24  16 S        2.843     0.684   116.225    18.145
    25  16 S        3.015     0.741   114.433    18.004
    26  16 S        2.845     0.651   117.293    18.228
    27   6 C        2.945    -0.053    29.310     8.879
    28   6 C        2.859     0.170    24.331     8.085
    29   6 C        2.969    -0.033    28.813     8.805
    30   6 C        2.967     0.093    25.932     8.353
    31   6 C        2.966    -0.060    29.484     8.907
    32   6 C        2.955    -0.055    29.363     8.888
    33   6 C        2.969     0.039    27.113     8.541
    34   6 C        2.996    -0.028    28.698     8.788
    35   6 C        2.963     0.094    25.916     8.350
    36   7 N        1.862    -0.259    27.590     7.786
    37   6 C        2.972    -0.030    28.738     8.793
    38   6 C        2.973     0.093    25.933     8.353
    39   7 N        1.861    -0.248    27.323     7.748
    40   6 C        2.964     0.090    25.987     8.362
    41   6 C        2.943    -0.041    29.025     8.836
    42   6 C        2.953    -0.056    29.401     8.893
    43   6 C        2.947    -0.052    29.289     8.876
    44   6 C        2.846     0.177    24.193     8.061
    45   6 C        2.946    -0.068    29.689     8.937
    46   6 C        2.954    -0.058    29.430     8.898
    47   6 C        2.955    -0.050    29.247     8.870
    48   8 O        1.638    -0.414    21.124     6.204
    49   8 O        1.638    -0.404    20.945     6.178
    50  16 S        3.130     0.696   115.865    18.117
    51  16 S        2.852     0.652   117.280    18.227
    52  16 S        2.846     0.648   117.405    18.237
    53   5 B        3.202     0.630    13.211     6.062
    54   8 O        0.860    -0.501    23.812     6.543
    55   8 O        1.706    -0.376    20.374     6.094
    56   6 C        3.739     0.051    19.799     6.349
    57   8 O        1.912    -0.394    20.691     6.143
    58   6 C        3.705     0.037    20.088     6.408
    59   8 O        0.860    -0.529    24.446     6.629
    60   8 O        0.963    -0.555    24.987     6.705
    61   8 O        1.706    -0.382    20.488     6.111
    62   6 C        3.718     0.047    19.906     6.373
    63   8 O        0.860    -0.501    23.816     6.543
    64   8 O        1.706    -0.376    20.367     6.093
    65   6 C        3.739     0.051    19.794     6.348
    66   8 O        0.860    -0.505    23.903     6.555
    67   8 O        1.706    -0.370    20.269     6.078
    68   6 C        3.747     0.049    19.808     6.348
    69   8 O        0.860    -0.511    24.019     6.571
    70   8 O        1.706    -0.377    20.388     6.096
    71   6 C        3.734     0.053    19.767     6.346
    72   1 H        0.925     0.050     2.318     2.381
    73   1 H        0.924     0.059     2.209     2.324
    74   1 H        0.924     0.037     2.494     2.470
    75   1 H        0.925     0.054     2.274     2.358
    76   1 H        0.924     0.056     2.252     2.347
    77   1 H        0.924     0.044     2.401     2.423
    78   1 H        0.925     0.047     2.360     2.403
    79   1 H        0.924     0.039     2.465     2.455
    80   1 H        0.924     0.055     2.257     2.350
    81   1 H        0.925     0.051     2.303     2.373
    82   1 H        0.924     0.041     2.441     2.443
    83   1 H        0.924     0.060     2.202     2.320
    84   1 H        0.924     0.045     2.382     2.413
    85   1 H        0.924     0.082     1.960     2.189
    86   1 H        0.924     0.054     2.265     2.354
    87   1 H        0.925     0.051     2.312     2.378
    88   1 H        0.924     0.037     2.491     2.468
    89   1 H        0.924     0.059     2.205     2.322
    90   1 H        0.926     0.071     2.071     2.250
    91   1 H        0.926     0.051     2.303     2.373
    92   1 H        0.926     0.074     2.039     2.233
    93   1 H        0.926     0.052     2.293     2.368
    94   1 H        0.926     0.062     2.170     2.304
    95   1 H        0.926     0.061     2.184     2.311
    96   1 H        0.926     0.051     2.309     2.376
    97   1 H        0.926     0.052     2.290     2.366
    98   1 H        0.926     0.062     2.181     2.309
    99   1 H        0.926     0.072     2.062     2.246
   100   1 H        0.926     0.073     2.048     2.238
   101   1 H        0.926     0.054     2.270     2.356

 Mol. C6AA /au·bohr⁶  :     189452.337781
 Mol. C8AA /au·bohr⁸  :    5213147.519650
 Mol. α(0) /au        :        684.489364


Wiberg/Mayer (AO) data.
largest (>0.10) Wiberg bond orders for each atom

 ---------------------------------------------------------------------------
     #   Z sym  total        # sym  WBO       # sym  WBO       # sym  WBO
 ---------------------------------------------------------------------------
     1   6 C    3.914 --     2 C    1.394     6 C    1.336    96 H    0.957
     2   6 C    3.944 --     1 C    1.394     3 C    1.256    22 O    1.099
     3   6 C    3.932 --     2 C    1.256     7 C    1.221     4 C    1.190
     4   6 C    3.971 --    10 N    1.365     5 C    1.228     3 C    1.190
     5   6 C    3.926 --     6 C    1.521     4 C    1.228    99 H    0.960
     6   6 C    3.961 --     5 C    1.521     1 C    1.336    24 S    0.904
     7   6 C    3.982 --     8 C    1.311     3 C    1.221    11 C    1.203
     8   6 C    3.982 --     7 C    1.311     9 C    1.197    14 C    1.196
     9   6 C    3.979 --    10 N    1.341    17 C    1.255     8 C    1.197
    10   7 N    2.931 --     4 C    1.365     9 C    1.341
    11   6 C    3.935 --    18 C    1.270     7 C    1.203    12 C    1.187
    12   6 C    3.968 --    13 N    1.367    21 C    1.231    11 C    1.187
    13   7 N    2.920 --    12 C    1.367    14 C    1.331
    14   6 C    3.980 --    13 N    1.331    15 C    1.268     8 C    1.196
    15   6 C    3.810 --    16 C    1.424    14 C    1.268   101 H    0.966
    16   6 C    3.963 --    17 C    1.442    15 C    1.424    26 S    0.901
    17   6 C    3.812 --    16 C    1.442     9 C    1.255   100 H    0.960
    18   6 C    3.938 --    19 C    1.354    11 C    1.270    23 O    1.119
    19   6 C    3.889 --    20 C    1.360    18 C    1.354    97 H    0.960
    20   6 C    3.963 --    21 C    1.503    19 C    1.360    25 S    0.907
    21   6 C    3.902 --    20 C    1.503    12 C    1.231    98 H    0.962
    22   8 O    2.119 --     2 C    1.099    53 B    0.780
    23   8 O    2.132 --    18 C    1.119    53 B    0.772
    24  16 S    3.896 --    69 O    1.845    70 O    1.030     6 C    0.904
    25  16 S    3.888 --    59 O    1.819    57 O    0.962    20 C    0.907
    26  16 S    3.907 --    54 O    1.851    55 O    1.039    16 C    0.901
    27   6 C    3.913 --    28 C    1.381    32 C    1.347    95 H    0.962
    28   6 C    3.939 --    27 C    1.381    29 C    1.254    48 O    1.106
    29   6 C    3.937 --    28 C    1.254    33 C    1.223    30 C    1.195
    30   6 C    3.973 --    36 N    1.352    31 C    1.244    29 C    1.195
    31   6 C    3.925 --    32 C    1.509    30 C    1.244    93 H    0.965
    32   6 C    3.962 --    31 C    1.509    27 C    1.347    50 S    0.908
    33   6 C    3.982 --    34 C    1.316    29 C    1.223    37 C    1.201
    34   6 C    3.981 --    33 C    1.316    35 C    1.193    40 C    1.191
    35   6 C    3.978 --    36 N    1.350    43 C    1.254    34 C    1.193
    36   7 N    2.918 --    30 C    1.352    35 C    1.350
    37   6 C    3.923 --    44 C    1.259    33 C    1.201    38 C    1.179
    38   6 C    3.968 --    39 N    1.374    47 C    1.227    37 C    1.179
    39   7 N    2.940 --    38 C    1.374    40 C    1.333
    40   6 C    3.979 --    39 N    1.333    41 C    1.267    34 C    1.191
    41   6 C    3.808 --    42 C    1.427    40 C    1.267    90 H    0.960
    42   6 C    3.963 --    43 C    1.438    41 C    1.427    52 S    0.902
    43   6 C    3.808 --    42 C    1.438    35 C    1.254    91 H    0.966
    44   6 C    3.929 --    45 C    1.378    37 C    1.259    49 O    1.115
    45   6 C    3.898 --    44 C    1.378    46 C    1.344    94 H    0.951
    46   6 C    3.962 --    47 C    1.513    45 C    1.344    51 S    0.903
    47   6 C    3.912 --    46 C    1.513    38 C    1.227    92 H    0.958
    48   8 O    2.132 --    28 C    1.106    53 B    0.788
    49   8 O    2.166 --    44 C    1.115    53 B    0.803
    50  16 S    3.947 --    60 O    1.729    61 O    1.053    32 C    0.908
                            57 O    0.132
    51  16 S    3.920 --    66 O    1.844    67 O    1.053    46 C    0.903
    52  16 S    3.908 --    63 O    1.851    64 O    1.040    42 C    0.902
    53   5 B    3.301 --    49 O    0.803    48 O    0.788    22 O    0.780
                            23 O    0.772
    54   8 O    2.034 --    26 S    1.851
    55   8 O    2.163 --    26 S    1.039    56 C    0.979
    56   6 C    3.938 --    55 O    0.979    88 H    0.979    87 H    0.976
                            89 H    0.970
    57   8 O    2.203 --    58 C    0.969    25 S    0.962    50 S    0.132
    58   6 C    3.923 --    84 H    0.979    86 H    0.975    57 O    0.969
                            85 H    0.957
    59   8 O    2.010 --    25 S    1.819
    60   8 O    1.975 --    50 S    1.729
    61   8 O    2.163 --    50 S    1.053    62 C    0.976
    62   6 C    3.936 --    82 H    0.978    81 H    0.977    61 O    0.976
                            83 H    0.972
    63   8 O    2.034 --    52 S    1.851
    64   8 O    2.164 --    52 S    1.040    65 C    0.979
    65   6 C    3.938 --    64 O    0.979    74 H    0.979    72 H    0.977
                            73 H    0.971
    66   8 O    2.025 --    51 S    1.844
    67   8 O    2.174 --    51 S    1.053    68 C    0.975
Note: The following floating-point exceptions are signalling: IEEE_UNDERFLOW_FLAG
normal termination of xtb
    68   6 C    3.936 --    77 H    0.978    75 H    0.977    67 O    0.975
                            76 H    0.972
    69   8 O    2.026 --    24 S    1.845
    70   8 O    2.163 --    24 S    1.030    71 C    0.982
    71   6 C    3.940 --    70 O    0.982    79 H    0.978    78 H    0.976
                            80 H    0.971
    72   1 H    0.997 --    65 C    0.977
    73   1 H    0.996 --    65 C    0.971
    74   1 H    0.999 --    65 C    0.979
    75   1 H    0.997 --    68 C    0.977
    76   1 H    0.997 --    68 C    0.972
    77   1 H    0.998 --    68 C    0.978
    78   1 H    0.997 --    71 C    0.976
    79   1 H    0.998 --    71 C    0.978
    80   1 H    0.997 --    71 C    0.971
    81   1 H    0.997 --    62 C    0.977
    82   1 H    0.998 --    62 C    0.978
    83   1 H    0.996 --    62 C    0.972
    84   1 H    0.998 --    58 C    0.979
    85   1 H    0.993 --    58 C    0.957
    86   1 H    0.997 --    58 C    0.975
    87   1 H    0.997 --    56 C    0.976
    88   1 H    0.999 --    56 C    0.979
    89   1 H    0.996 --    56 C    0.970
    90   1 H    0.994 --    41 C    0.960
    91   1 H    0.997 --    43 C    0.966
    92   1 H    0.994 --    47 C    0.958
    93   1 H    0.997 --    31 C    0.965
    94   1 H    0.995 --    45 C    0.951
    95   1 H    0.996 --    27 C    0.962
    96   1 H    0.997 --     1 C    0.957
    97   1 H    0.997 --    19 C    0.960
    98   1 H    0.996 --    21 C    0.962
    99   1 H    0.994 --     5 C    0.960
   100   1 H    0.994 --    17 C    0.960
   101   1 H    0.996 --    15 C    0.966
 ---------------------------------------------------------------------------

Topologies differ in bond orders
Writing corrected topology to xtbtopo.mol

molecular dipole:
                 x           y           z       tot (Debye)
 q only:        1.871      -3.386       0.223
   full:        1.367      -2.855       0.318       8.086
molecular quadrupole (traceless):
                xx          xy          yy          xz          yz          zz
 q only:      -70.203       5.629       1.414     -27.775      10.843      68.789
  q+dip:      -71.487      14.678      -2.867     -23.491       1.033      74.354
   full:      -74.100      17.173     -10.361     -28.147       1.434      84.460


           -------------------------------------------------
          | TOTAL ENERGY             -207.429643464876 Eh   |
          | GRADIENT NORM               0.038011992329 Eh/α |
          | HOMO-LUMO GAP               0.049850247418 eV   |
           -------------------------------------------------
########################################################################
[WARNING] Runtime exception occurred
-1- restart_readRestart: Number of electron missmatch in restart file.
########################################################################

------------------------------------------------------------------------
 * finished run on 2024/10/31 at 14:22:41.163     
------------------------------------------------------------------------
 total:
 * wall-time:     0 d,  0 h,  0 min,  1.229 sec
 *  cpu-time:     0 d,  0 h,  0 min,  4.159 sec
 * ratio c/w:     3.385 speedup
 SCF:
 * wall-time:     0 d,  0 h,  0 min,  1.215 sec
 *  cpu-time:     0 d,  0 h,  0 min,  4.127 sec
 * ratio c/w:     3.397 speedup

