      -----------------------------------------------------------      
     |                   =====================                   |     
     |                           x T B                           |     
     |                   =====================                   |     
     |                         S. Grimme                         |     
     |          Mulliken Center for Theoretical Chemistry        |     
     |                    University of Bonn                     |     
      -----------------------------------------------------------      

   * xtb version 6.6.1 (8d0f1dd) compiled by 'runner@Mac-1690902418499.local' on 2023-08-01

   xtb is free software: you can redistribute it and/or modify it under
   the terms of the GNU Lesser General Public License as published by
   the Free Software Foundation, either version 3 of the License, or
   (at your option) any later version.
   
   xtb is distributed in the hope that it will be useful,
   but WITHOUT ANY WARRANTY; without even the implied warranty of
   MERCHANTABILITY or FITNESS FOR A PARTICULAR PURPOSE.  See the
   GNU Lesser General Public License for more details.
   
   Cite this work as:
   * C. Bannwarth, E. Caldeweyher, S. Ehlert, A. Hansen, P. Pracht,
     J. Seibert, S. Spicher, S. Grimme, WIREs Comput. Mol. Sci., 2020, 11,
     e01493. DOI: 10.1002/wcms.1493
   
   for GFN2-xTB:
   * C. Bannwarth, S. Ehlert and S. Grimme., J. Chem. Theory Comput., 2019,
     15, 1652-1671. DOI: 10.1021/acs.jctc.8b01176
   for GFN1-xTB:
   * S. Grimme, C. Bannwarth, P. Shushkov, J. Chem. Theory Comput., 2017,
     13, 1989-2009. DOI: 10.1021/acs.jctc.7b00118
   for GFN0-xTB:
   * P. Pracht, E. Caldeweyher, S. Ehlert, S. Grimme, ChemRxiv, 2019, preprint.
     DOI: 10.26434/chemrxiv.8326202.v1
   for GFN-FF:
   * S. Spicher and S. Grimme, Angew. Chem. Int. Ed., 2020, 59, 15665-15673.
     DOI: 10.1002/anie.202004239
   
   for ALPB and GBSA implicit solvation:
   * S. Ehlert, M. Stahn, S. Spicher, S. Grimme, J. Chem. Theory Comput.,
     2021, 17, 4250-4261. DOI: 10.1021/acs.jctc.1c00471
   
   for DFT-D4:
   * E. Caldeweyher, C. Bannwarth and S. Grimme, J. Chem. Phys., 2017,
     147, 034112. DOI: 10.1063/1.4993215
   * E. Caldeweyher, S. Ehlert, A. Hansen, H. Neugebauer, S. Spicher,
     C. Bannwarth and S. Grimme, J. Chem. Phys., 2019, 150, 154122.
     DOI: 10.1063/1.5090222
   * E. Caldeweyher, J.-M. Mewes, S. Ehlert and S. Grimme, Phys. Chem. Chem. Phys.
     2020, 22, 8499-8512. DOI: 10.1039/D0CP00502A
   
   for sTDA-xTB:
   * S. Grimme and C. Bannwarth, J. Chem. Phys., 2016, 145, 054103.
     DOI: 10.1063/1.4959605
   
   in the mass-spec context:
   * V. Asgeirsson, C. Bauer and S. Grimme, Chem. Sci., 2017, 8, 4879.
     DOI: 10.1039/c7sc00601b
   * J. Koopman and S. Grimme, ACS Omega 2019, 4, 12, 15120-15133.
     DOI: 10.1021/acsomega.9b02011
   
   for metadynamics refer to:
   * S. Grimme, J. Chem. Theory Comput., 2019, 155, 2847-2862
     DOI: 10.1021/acs.jctc.9b00143
   
   for SPH calculations refer to:
   * S. Spicher and S. Grimme, J. Chem. Theory Comput., 2021, 17, 1701-1714
     DOI: 10.1021/acs.jctc.0c01306
   
   with help from (in alphabetical order)
   P. Atkinson, C. Bannwarth, F. Bohle, G. Brandenburg, E. Caldeweyher
   M. Checinski, S. Dohm, S. Ehlert, S. Ehrlich, I. Gerasimov, C. Hölzer
   A. Katbashev, J. Koopman, C. Lavigne, S. Lehtola, F. März, M. Müller,
   F. Musil, H. Neugebauer, J. Pisarek, C. Plett, P. Pracht, F. Pultar,
   J. Seibert, P. Shushkov, S. Spicher, M. Stahn, M. Steiner, T. Strunk,
   J. Stückrath, T. Rose, and J. Unsleber
   
 * started run on 2024/10/31 at 14:33:31.142     

           -------------------------------------------------
          |                Calculation Setup                |
           -------------------------------------------------

          program call               : xtb stacked_dimer_Base1SO2Me.mol --opt --gfn2 --chrg -1 --uhf 0 --tight
          coordinate file            : stacked_dimer_Base1SO2Me.mol
          omp threads                :                     8

   ID    Z sym.   atoms
    1    6 C      1-9, 11, 12, 14-21, 27-35, 37, 38, 40-47, 56, 58, 62, 65,
                  68, 71, 102-110, 112, 113, 115-122, 128-136, 138, 139,
                  141-148, 157, 159, 163, 166, 169, 172
    2    7 N      10, 13, 36, 39, 111, 114, 137, 140
    3    8 O      22, 23, 48, 49, 54, 55, 57, 59-61, 63, 64, 66, 67, 69, 70,
                  123, 124, 149, 150, 155, 156, 158, 160-162, 164, 165, 167,
                  168, 170, 171
    4   16 S      24-26, 50-52, 125-127, 151-153
    5    5 B      53, 154
    6    1 H      72-101, 173-202
########################################################################
[WARNING] Please study the warnings concerning your input carefully
-1- prog_main_parseArguments: Unknown option '--tight' provided
########################################################################

           -------------------------------------------------
          |                 G F N 2 - x T B                 |
           -------------------------------------------------

        Reference                      10.1021/acs.jctc.8b01176
      * Hamiltonian:
        H0-scaling (s, p, d)           1.850000    2.230000    2.230000
        zeta-weighting                 0.500000
      * Dispersion:
        s8                             2.700000
        a1                             0.520000
        a2                             5.000000
        s9                             5.000000
      * Repulsion:
        kExp                           1.500000    1.000000
        rExp                           1.000000
      * Coulomb:
        alpha                          2.000000
        third order                    shell-resolved
        anisotropic                    true
        a3                             3.000000
        a5                             4.000000
        cn-shift                       1.200000
        cn-exp                         4.000000
        max-rad                        5.000000

q/qsh data taken from xtbrestart
CAMM data taken from xtbrestart

          ...................................................
          :                      SETUP                      :
          :.................................................:
          :  # basis functions                 700          :
          :  # atomic orbitals                 688          :
          :  # shells                          356          :
          :  # electrons                       723          :
          :  max. iterations                   250          :
          :  Hamiltonian                  GFN2-xTB          :
          :  restarted?                       true          :
          :  GBSA solvation                  false          :
          :  PC potential                    false          :
          :  electronic temp.          300.0000000     K    :
          :  accuracy                    1.0000000          :
          :  -> integral cutoff          0.2500000E+02      :
          :  -> integral neglect         0.1000000E-07      :
          :  -> SCF convergence          0.1000000E-05 Eh   :
          :  -> wf. convergence          0.1000000E-03 e    :
          :  Broyden damping             0.4000000          :
          ...................................................

 iter      E             dE          RMSdq      gap      omega  full diag
   1   -417.5897563 -0.417590E+03  0.315E+00    0.76       0.0  T
   2   -411.3503164  0.623944E+01  0.365E+00    0.23       1.0  T
   3   -417.4496923 -0.609938E+01  0.205E+00    0.01       1.0  T
   4   -417.1890030  0.260689E+00  0.168E+00    0.47       1.0  T
   5   -417.7441737 -0.555171E+00  0.128E+00    0.05       1.0  T
   6   -418.2850305 -0.540857E+00  0.100E+00    0.30       1.0  T
   7   -418.5286997 -0.243669E+00  0.806E-01    0.06       1.0  T
   8   -418.6564587 -0.127759E+00  0.617E-01    0.06       1.0  T
   9   -418.5726582  0.838006E-01  0.726E-01    0.17       1.0  T
  10   -418.6389558 -0.662977E-01  0.510E-01    0.01       1.0  T
  11   -418.6274738  0.114820E-01  0.591E-01    0.05       1.0  T
  12   -418.6887593 -0.612855E-01  0.465E-01    0.01       1.0  T
  13   -418.6353560  0.534033E-01  0.483E-01    0.02       1.0  T
  14   -418.7114659 -0.761099E-01  0.323E-01    0.05       1.0  T
  15   -418.7148693 -0.340336E-02  0.345E-01    0.05       1.0  T
  16   -418.7521001 -0.372308E-01  0.244E-01    0.04       1.0  T
  17   -418.7464440  0.565607E-02  0.247E-01    0.05       1.0  T
  18   -418.7742494 -0.278054E-01  0.116E-01    0.04       1.0  T
  19   -418.7798995 -0.565012E-02  0.483E-02    0.04       1.0  T
  20   -418.7799574 -0.578727E-04  0.349E-02    0.03       1.0  T
  21   -418.7803957 -0.438302E-03  0.239E-02    0.04       1.0  T
  22   -418.7803213  0.743827E-04  0.222E-02    0.03       1.0  T
  23   -418.7805224 -0.201054E-03  0.119E-02    0.04       1.0  T
  24   -418.7805860 -0.636498E-04  0.345E-03    0.04       2.0  T
  25   -418.7805871 -0.111747E-05  0.254E-03    0.03       2.8  T
  26   -418.7805855  0.168029E-05  0.300E-03    0.03       2.3  T
  27   -418.7805901 -0.459526E-05  0.107E-03    0.03       6.6  T
  28   -418.7805901 -0.124626E-07  0.111E-03    0.03       6.3  T
  29   -418.7805907 -0.605675E-06  0.436E-04    0.03      16.2  T
  30   -418.7805907 -0.270907E-07  0.357E-04    0.03      19.7  T

   *** convergence criteria satisfied after 30 iterations ***

         #    Occupation            Energy/Eh            Energy/eV
      -------------------------------------------------------------
         1        2.0000           -0.7406423             -20.1539
       ...           ...                  ...                  ...
       356        2.0000           -0.3111676              -8.4673
       357        2.0000           -0.3104704              -8.4483
       358        2.0000           -0.3090539              -8.4098
       359        2.0000           -0.3087223              -8.4008
       360        1.9161           -0.3002570              -8.1704
       361        1.2214           -0.2975933              -8.0979
       362        1.0595           -0.2972481              -8.0885 (HOMO)
       363        0.4923           -0.2959665              -8.0537 (LUMO)
       364        0.3106           -0.2953898              -8.0380
       365                         -0.2472447              -6.7279
       366                         -0.2352186              -6.4006
       367                         -0.2315437              -6.3006
       ...                                ...                  ...
       688                          2.0242209              55.0819
      -------------------------------------------------------------
                  HL-Gap            0.0012816 Eh            0.0349 eV
             Fermi-level           -0.2971237 Eh           -8.0851 eV

 SCC (total)                   0 d,  0 h,  0 min,  8.174 sec
 SCC setup                      ...        0 min,  0.001 sec (  0.012%)
 Dispersion                     ...        0 min,  0.004 sec (  0.047%)
 classical contributions        ...        0 min,  0.001 sec (  0.009%)
 integral evaluation            ...        0 min,  0.023 sec (  0.280%)
 iterations                     ...        0 min,  7.910 sec ( 96.771%)
 molecular gradient             ...        0 min,  0.190 sec (  2.322%)
 printout                       ...        0 min,  0.046 sec (  0.559%)

         :::::::::::::::::::::::::::::::::::::::::::::::::::::
         ::                     SUMMARY                     ::
         :::::::::::::::::::::::::::::::::::::::::::::::::::::
         :: total energy            -414.003017653974 Eh    ::
         :: gradient norm              0.706062152438 Eh/a0 ::
         :: HOMO-LUMO gap              0.034874253535 eV    ::
         ::.................................................::
         :: SCC energy              -418.780590696362 Eh    ::
         :: -> isotropic ES            1.014002110624 Eh    ::
         :: -> anisotropic ES         -0.047351797877 Eh    ::
         :: -> anisotropic XC          0.114729404939 Eh    ::
         :: -> dispersion             -0.394978511455 Eh    ::
         :: repulsion energy           4.749005095876 Eh    ::
         :: add. restraining           0.000000000000 Eh    ::
         :: total charge              -1.000000228704 e     ::
         :::::::::::::::::::::::::::::::::::::::::::::::::::::

      ----------------------------------------------------------- 
     |                   =====================                   |
     |                        A N C O P T                        |
     |                   =====================                   |
     |               Approximate Normal Coordinate               |
     |                Rational Function Optimizer                |
      ----------------------------------------------------------- 

          ...................................................
          :                      SETUP                      :
          :.................................................:
          :   optimization level            normal          :
          :   max. optcycles                   606          :
          :   ANC micro-cycles                  20          :
          :   degrees of freedom               600          :
          :.................................................:
          :   RF solver                   davidson          :
          :   write xtbopt.log                true          :
          :   linear?                        false          :
          :   energy convergence         0.5000000E-05 Eh   :
          :   grad. convergence          0.1000000E-02 Eh/α :
          :   maxmium RF displ.          1.0000000          :
          :   Hlow (freq-cutoff)         0.1000000E-01      :
          :   Hmax (freq-cutoff)         5.0000000          :
          :   S6 in model hess.         20.0000000          :
          ...................................................

generating ANC from model Hessian ...
Using Lindh-Hessian (1995)
 Shifting diagonal of input Hessian by    1.0018364583715458E-002
 Lowest  eigenvalues of input Hessian
    0.010000    0.000000    0.000000    0.000000    0.000000    0.000000
    0.000000    0.010069    0.010090    0.010131    0.010136    0.010205
    0.010262    0.010322    0.010361    0.010382    0.010418    0.010454
 Highest eigenvalues
    2.668476    2.668527    2.674702    2.674721    2.674722    2.674931


........................................................................
.............................. CYCLE    1 ..............................
........................................................................

 iter      E             dE          RMSdq      gap      omega  full diag
   1   -418.7805908 -0.418781E+03  0.506E-05    0.03       0.0  T
   2   -418.7805901  0.686564E-06  0.107E-03    0.04       6.6  T
   3   -418.7805908 -0.672611E-06  0.163E-04    0.03      43.2  T
   4   -418.7805908 -0.242932E-08  0.136E-04    0.03      51.7  T
     SCC iter.                  ...        0 min,  1.180 sec
     gradient                   ...        0 min,  0.193 sec
 * total energy  :  -414.0030177 Eh     change       -0.7770586E-07 Eh
   gradient norm :     0.7060915 Eh/α   predicted     0.0000000E+00 (-100.00%)
   displ. norm   :     0.5278953 α      lambda       -0.3003758E+00
   maximum displ.:     0.1900154 α      in ANC's #579, #484, #226, ...

........................................................................
.............................. CYCLE    2 ..............................
........................................................................

 iter      E             dE          RMSdq      gap      omega  full diag
   1   -418.7786350 -0.418779E+03  0.512E-01    0.02       0.0  T
   2   -417.1562931  0.162234E+01  0.155E+00    0.53       1.0  T
   3   -418.8058433 -0.164955E+01  0.544E-01    0.03       1.0  T
   4   -418.7061691  0.996742E-01  0.613E-01    0.13       1.0  T
   5   -418.8008409 -0.946718E-01  0.476E-01    0.02       1.0  T
   6   -418.8255815 -0.247406E-01  0.443E-01    0.03       1.0  T
   7   -418.8517334 -0.261519E-01  0.411E-01    0.05       1.0  T
   8   -418.8367343  0.149991E-01  0.351E-01    0.05       1.0  T
   9   -418.9055686 -0.688343E-01  0.167E-01    0.05       1.0  T
  10   -418.9135317 -0.796311E-02  0.820E-02    0.03       1.0  T
  11   -418.9165613 -0.302960E-02  0.270E-02    0.03       1.0  T
  12   -418.9158140  0.747284E-03  0.416E-02    0.03       1.0  T
  13   -418.9158892 -0.752486E-04  0.349E-02    0.03       1.0  T
  14   -418.9167110 -0.821714E-03  0.993E-03    0.03       1.0  T
  15   -418.9167378 -0.268055E-04  0.657E-03    0.03       1.1  T
  16   -418.9167473 -0.954427E-05  0.493E-03    0.03       1.4  T
  17   -418.9167585 -0.111618E-04  0.300E-03    0.03       2.3  T
  18   -418.9167613 -0.281758E-05  0.189E-03    0.03       3.7  T
  19   -418.9167635 -0.221497E-05  0.280E-04    0.03      25.2  T
  20   -418.9167635  0.199752E-07  0.306E-04    0.03      23.0  T
  21   -418.9167635 -0.289024E-07  0.202E-04    0.03      34.8  T
     SCC iter.                  ...        0 min,  6.301 sec
     gradient                   ...        0 min,  0.180 sec
 * total energy  :  -414.2198605 Eh     change       -0.2168428E+00 Eh
   gradient norm :     0.3352519 Eh/α   predicted    -0.1920806E+00 ( -11.42%)
   displ. norm   :     0.5889463 α      lambda       -0.1551627E+00
   maximum displ.:     0.1317989 α      in ANC's #579, #183, #484, ...

........................................................................
.............................. CYCLE    3 ..............................
........................................................................

 iter      E             dE          RMSdq      gap      omega  full diag
   1   -418.9588697 -0.418959E+03  0.344E-01    0.02       0.0  T
   2   -417.7160871  0.124278E+01  0.135E+00    0.35       1.0  T
   3   -418.9562869 -0.124020E+01  0.388E-01    0.02       1.0  T
   4   -418.7865308  0.169756E+00  0.615E-01    0.17       1.0  T
   5   -418.9565275 -0.169997E+00  0.344E-01    0.04       1.0  T
   6   -418.9108581  0.456694E-01  0.471E-01    0.01       1.0  T
   7   -418.9741583 -0.633002E-01  0.279E-01    0.01       1.0  T
   8   -419.0152915 -0.411332E-01  0.754E-02    0.02       1.0  T
   9   -419.0151217  0.169772E-03  0.786E-02    0.04       1.0  T
  10   -419.0164451 -0.132336E-02  0.516E-02    0.04       1.0  T
  11   -419.0177845 -0.133938E-02  0.173E-02    0.03       1.0  T
  12   -419.0178345 -0.500685E-04  0.122E-02    0.03       1.0  T
  13   -419.0178660 -0.314842E-04  0.101E-02    0.03       1.0  T
  14   -419.0179156 -0.495408E-04  0.396E-03    0.03       1.8  T
  15   -419.0179239 -0.831351E-05  0.139E-03    0.03       5.1  T
  16   -419.0179232  0.652843E-06  0.185E-03    0.03       3.8  T
  17   -419.0179245 -0.127846E-05  0.831E-04    0.03       8.5  T
  18   -419.0179247 -0.158443E-06  0.669E-04    0.03      10.5  T
  19   -419.0179248 -0.161405E-06  0.489E-04    0.03      14.4  T
     SCC iter.                  ...        0 min,  3.836 sec
     gradient                   ...        0 min,  0.180 sec
 * total energy  :  -414.3420900 Eh     change       -0.1222295E+00 Eh
   gradient norm :     0.1930514 Eh/α   predicted    -0.1044911E+00 ( -14.51%)
   displ. norm   :     0.6168626 α      lambda       -0.9541826E-01
   maximum displ.:     0.1419999 α      in ANC's #579, #183, #150, ...

........................................................................
.............................. CYCLE    4 ..............................
........................................................................

 iter      E             dE          RMSdq      gap      omega  full diag
   1   -419.0312890 -0.419031E+03  0.310E-01    0.03       0.0  T
   2   -417.8014959  0.122979E+01  0.137E+00    0.43       1.0  T
   3   -419.0283165 -0.122682E+01  0.332E-01    0.02       1.0  T
   4   -419.0131629  0.151536E-01  0.396E-01    0.07       1.0  T
   5   -418.9641413  0.490216E-01  0.434E-01    0.07       1.0  T
   6   -419.0027033 -0.385620E-01  0.372E-01    0.03       1.0  T
   7   -419.0155330 -0.128297E-01  0.371E-01    0.02       1.0  T
   8   -419.0203145 -0.478150E-02  0.302E-01    0.05       1.0  T
   9   -419.0747131 -0.543986E-01  0.114E-01    0.02       1.0  T
  10   -419.0811813 -0.646825E-02  0.386E-02    0.03       1.0  T
  11   -419.0797521  0.142926E-02  0.613E-02    0.04       1.0  T
  12   -419.0817892 -0.203710E-02  0.165E-02    0.03       1.0  T
  13   -419.0819025 -0.113375E-03  0.747E-03    0.03       1.0  T
  14   -419.0819319 -0.293752E-04  0.343E-03    0.03       2.1  T
  15   -419.0819306  0.132783E-05  0.381E-03    0.03       1.8  T
  16   -419.0819358 -0.518615E-05  0.213E-03    0.03       3.3  T
  17   -419.0819378 -0.205534E-05  0.433E-04    0.03      16.2  T
  18   -419.0819377  0.168173E-06  0.590E-04    0.03      11.9  T
  19   -419.0819379 -0.228814E-06  0.786E-05    0.03      89.6  T
     SCC iter.                  ...        0 min,  3.223 sec
     gradient                   ...        0 min,  0.190 sec
 * total energy  :  -414.4170690 Eh     change       -0.7497902E-01 Eh
   gradient norm :     0.1172212 Eh/α   predicted    -0.6586337E-01 ( -12.16%)
   displ. norm   :     0.6495017 α      lambda       -0.5855237E-01
   maximum displ.:     0.1442972 α      in ANC's #579, #150, #183, ...

........................................................................
.............................. CYCLE    5 ..............................
........................................................................

 iter      E             dE          RMSdq      gap      omega  full diag
   1   -419.0646658 -0.419065E+03  0.313E-01    0.03       0.0  T
   2   -417.7253330  0.133933E+01  0.145E+00    0.46       1.0  T
   3   -419.0259106 -0.130058E+01  0.414E-01    0.06       1.0  T
   4   -418.9948218  0.310888E-01  0.492E-01    0.02       1.0  T
   5   -419.0757097 -0.808879E-01  0.294E-01    0.04       1.0  T
   6   -419.0375051  0.382046E-01  0.411E-01    0.04       1.0  T
   7   -419.1116752 -0.741700E-01  0.140E-01    0.04       1.0  T
   8   -419.0890726  0.226025E-01  0.232E-01    0.02       1.0  T
   9   -419.1125455 -0.234729E-01  0.127E-01    0.02       1.0  T
  10   -419.1199907 -0.744513E-02  0.402E-02    0.03       1.0  T
  11   -419.1195307  0.459989E-03  0.535E-02    0.04       1.0  T
  12   -419.1206724 -0.114169E-02  0.275E-02    0.03       1.0  T
  13   -419.1210220 -0.349660E-03  0.131E-02    0.03       1.0  T
  14   -419.1211349 -0.112915E-03  0.527E-03    0.04       1.3  T
  15   -419.1211464 -0.114247E-04  0.322E-03    0.04       2.2  T
  16   -419.1211471 -0.704356E-06  0.240E-03    0.04       2.9  T
  17   -419.1211501 -0.305181E-05  0.673E-04    0.04      10.5  T
  18   -419.1211501  0.410182E-08  0.428E-04    0.04      16.4  T
  19   -419.1211502 -0.875173E-07  0.157E-04    0.04      44.8  T
     SCC iter.                  ...        0 min,  3.348 sec
     gradient                   ...        0 min,  0.177 sec
 * total energy  :  -414.4638522 Eh     change       -0.4678324E-01 Eh
   gradient norm :     0.0819957 Eh/α   predicted    -0.4162654E-01 ( -11.02%)
   displ. norm   :     0.6801850 α      lambda       -0.3877510E-01
   maximum displ.:     0.1403485 α      in ANC's #150, #579, #183, ...

........................................................................
.............................. CYCLE    6 ..............................
........................................................................

 iter      E             dE          RMSdq      gap      omega  full diag
   1   -419.1029979 -0.419103E+03  0.283E-01    0.03       0.0  T
   2   -417.7953320  0.130767E+01  0.142E+00    0.42       1.0  T
   3   -419.0299251 -0.123459E+01  0.457E-01    0.07       1.0  T
   4   -419.0082341  0.216910E-01  0.511E-01    0.03       1.0  T
   5   -419.1154055 -0.107171E+00  0.255E-01    0.05       1.0  T
   6   -419.0616555  0.537501E-01  0.415E-01    0.01       1.0  T
   7   -419.1396758 -0.780203E-01  0.125E-01    0.04       1.0  T
   8   -419.1423973 -0.272147E-02  0.933E-02    0.04       1.0  T
   9   -419.1436363 -0.123901E-02  0.847E-02    0.03       1.0  T
  10   -419.1470602 -0.342389E-02  0.321E-02    0.04       1.0  T
  11   -419.1474154 -0.355256E-03  0.219E-02    0.04       1.0  T
  12   -419.1475158 -0.100347E-03  0.157E-02    0.04       1.0  T
  13   -419.1476669 -0.151171E-03  0.368E-03    0.04       1.9  T
  14   -419.1476741 -0.714281E-05  0.142E-03    0.04       4.9  T
  15   -419.1476666  0.753799E-05  0.370E-03    0.04       1.9  T
  16   -419.1476736 -0.700108E-05  0.170E-03    0.04       4.1  T
  17   -419.1476741 -0.544475E-06  0.109E-03    0.04       6.5  T
  18   -419.1476748 -0.670064E-06  0.332E-04    0.04      21.2  T
  19   -419.1476748 -0.342123E-08  0.254E-04    0.04      27.7  T
     SCC iter.                  ...        0 min,  3.066 sec
     gradient                   ...        0 min,  0.179 sec
 * total energy  :  -414.4955763 Eh     change       -0.3172407E-01 Eh
   gradient norm :     0.0607362 Eh/α   predicted    -0.2835724E-01 ( -10.61%)
   displ. norm   :     0.7054609 α      lambda       -0.2732606E-01
   maximum displ.:     0.1391004 α      in ANC's #579, #150, #57, ...

........................................................................
.............................. CYCLE    7 ..............................
........................................................................

 iter      E             dE          RMSdq      gap      omega  full diag
   1   -419.1448101 -0.419145E+03  0.215E-01    0.04       0.0  T
   2   -418.1502574  0.994553E+00  0.122E+00    0.26       1.0  T
   3   -419.0977101 -0.947453E+00  0.404E-01    0.02       1.0  T
   4   -418.9860057  0.111704E+00  0.530E-01    0.14       1.0  T
   5   -419.1606838 -0.174678E+00  0.122E-01    0.03       1.0  T
   6   -419.0772896  0.833941E-01  0.430E-01    0.02       1.0  T
   7   -419.1552863 -0.779966E-01  0.144E-01    0.04       1.0  T
   8   -419.1609016 -0.561528E-02  0.110E-01    0.03       1.0  T
   9   -419.1661056 -0.520404E-02  0.401E-02    0.04       1.0  T
  10   -419.1668597 -0.754109E-03  0.151E-02    0.04       1.0  T
  11   -419.1669698 -0.110060E-03  0.587E-03    0.04       1.2  T
  12   -419.1669547  0.150627E-04  0.671E-03    0.04       1.0  T
  13   -419.1669672 -0.124568E-04  0.494E-03    0.04       1.4  T
  14   -419.1669777 -0.105761E-04  0.267E-03    0.04       2.6  T
  15   -419.1669806 -0.289178E-05  0.116E-03    0.04       6.1  T
  16   -419.1669811 -0.475440E-06  0.518E-04    0.04      13.6  T
  17   -419.1669811  0.191786E-07  0.505E-04    0.04      13.9  T
     SCC iter.                  ...        0 min,  2.682 sec
     gradient                   ...        0 min,  0.173 sec
 * total energy  :  -414.5179407 Eh     change       -0.2236444E-01 Eh
   gradient norm :     0.0413189 Eh/α   predicted    -0.2046280E-01 (  -8.50%)
   displ. norm   :     0.7132586 α      lambda       -0.1843110E-01
   maximum displ.:     0.1745611 α      in ANC's #57, #74, #579, ...

........................................................................
.............................. CYCLE    8 ..............................
........................................................................

 iter      E             dE          RMSdq      gap      omega  full diag
   1   -419.1722224 -0.419172E+03  0.144E-01    0.04       0.0  T
   2   -418.7077260  0.464496E+00  0.807E-01    0.04       1.0  T
   3   -419.0710579 -0.363332E+00  0.454E-01    0.03       1.0  T
   4   -419.1432595 -0.722016E-01  0.243E-01    0.03       1.0  T
   5   -419.1354547  0.780482E-02  0.307E-01    0.01       1.0  T
   6   -419.1579414 -0.224867E-01  0.197E-01    0.05       1.0  T
   7   -419.1747022 -0.167608E-01  0.842E-02    0.05       1.0  T
   8   -419.1776315 -0.292926E-02  0.479E-02    0.04       1.0  T
   9   -419.1780001 -0.368665E-03  0.368E-02    0.04       1.0  T
  10   -419.1785458 -0.545640E-03  0.144E-02    0.04       1.0  T
  11   -419.1786260 -0.801937E-04  0.797E-03    0.04       1.0  T
  12   -419.1786358 -0.985247E-05  0.714E-03    0.05       1.0  T
  13   -419.1786524 -0.166010E-04  0.378E-03    0.05       1.9  T
  14   -419.1786575 -0.510274E-05  0.194E-03    0.05       3.6  T
  15   -419.1786587 -0.114034E-05  0.123E-03    0.05       5.7  T
  16   -419.1786594 -0.690813E-06  0.277E-04    0.05      25.4  T
  17   -419.1786594 -0.107570E-07  0.209E-04    0.05      33.7  T
     SCC iter.                  ...        0 min,  2.788 sec
     gradient                   ...        0 min,  0.184 sec
 * total energy  :  -414.5328618 Eh     change       -0.1492109E-01 Eh
   gradient norm :     0.0267569 Eh/α   predicted    -0.1390385E-01 (  -6.82%)
   displ. norm   :     0.7086196 α      lambda       -0.1176175E-01
   maximum displ.:     0.2188181 α      in ANC's #57, #36, #58, ...

........................................................................
.............................. CYCLE    9 ..............................
........................................................................

 iter      E             dE          RMSdq      gap      omega  full diag
   1   -419.1814419 -0.419181E+03  0.113E-01    0.04       0.0  T
   2   -419.1082142  0.732277E-01  0.384E-01    0.05       1.0  T
   3   -419.1362459 -0.280318E-01  0.279E-01    0.03       1.0  T
   4   -419.1432921 -0.704619E-02  0.256E-01    0.03       1.0  T
   5   -419.1325166  0.107755E-01  0.316E-01    0.00       1.0  T
   6   -419.1807906 -0.482740E-01  0.776E-02    0.05       1.0  T
   7   -419.1825226 -0.173195E-02  0.395E-02    0.05       1.0  T
   8   -419.1830995 -0.576969E-03  0.220E-02    0.04       1.0  T
   9   -419.1832925 -0.192907E-03  0.101E-02    0.05       1.0  T
  10   -419.1833244 -0.319756E-04  0.488E-03    0.05       1.4  T
  11   -419.1833335 -0.908457E-05  0.192E-03    0.05       3.7  T
  12   -419.1833319  0.165814E-05  0.239E-03    0.05       2.9  T
  13   -419.1833346 -0.270641E-05  0.904E-04    0.05       7.8  T
  14   -419.1833347 -0.156987E-06  0.657E-04    0.05      10.7  T
  15   -419.1833346  0.888047E-07  0.760E-04    0.05       9.3  T
     SCC iter.                  ...        0 min,  2.362 sec
     gradient                   ...        0 min,  0.182 sec
 * total energy  :  -414.5423713 Eh     change       -0.9509460E-02 Eh
   gradient norm :     0.0219475 Eh/α   predicted    -0.8833918E-02 (  -7.10%)
   displ. norm   :     0.7035002 α      lambda       -0.7675651E-02
   maximum displ.:     0.2558170 α      in ANC's #57, #36, #58, ...

........................................................................
.............................. CYCLE   10 ..............................
........................................................................

 iter      E             dE          RMSdq      gap      omega  full diag
   1   -419.1829433 -0.419183E+03  0.106E-01    0.04       0.0  T
   2   -419.1059742  0.769690E-01  0.419E-01    0.06       1.0  T
   3   -419.1644469 -0.584727E-01  0.191E-01    0.04       1.0  T
   4   -419.1062306  0.582164E-01  0.345E-01    0.08       1.0  T
   5   -419.0517409  0.544897E-01  0.498E-01    0.05       1.0  T
   6   -419.1814863 -0.129745E+00  0.744E-02    0.05       1.0  T
   7   -419.1830470 -0.156072E-02  0.465E-02    0.04       1.0  T
   8   -419.1839719 -0.924819E-03  0.181E-02    0.05       1.0  T
   9   -419.1839747 -0.286987E-05  0.165E-02    0.05       1.0  T
  10   -419.1840993 -0.124546E-03  0.496E-03    0.05       1.4  T
  11   -419.1841096 -0.103305E-04  0.214E-03    0.05       3.3  T
  12   -419.1841104 -0.799456E-06  0.162E-03    0.05       4.3  T
  13   -419.1841111 -0.729836E-06  0.109E-03    0.05       6.5  T
  14   -419.1841116 -0.496617E-06  0.523E-04    0.05      13.4  T
  15   -419.1841116  0.340802E-07  0.554E-04    0.05      12.7  T
     SCC iter.                  ...        0 min,  2.727 sec
     gradient                   ...        0 min,  0.189 sec
 * total energy  :  -414.5486290 Eh     change       -0.6257717E-02 Eh
   gradient norm :     0.0206805 Eh/α   predicted    -0.5737215E-02 (  -8.32%)
   displ. norm   :     0.7007195 α      lambda       -0.5324270E-02
   maximum displ.:     0.2818369 α      in ANC's #57, #36, #58, ...

........................................................................
.............................. CYCLE   11 ..............................
........................................................................

 iter      E             dE          RMSdq      gap      omega  full diag
   1   -419.1828903 -0.419183E+03  0.104E-01    0.04       0.0  T
   2   -419.0866840  0.962062E-01  0.464E-01    0.07       1.0  T
   3   -419.1617584 -0.750744E-01  0.190E-01    0.05       1.0  T
   4   -419.1035311  0.582273E-01  0.349E-01    0.10       1.0  T
   5   -419.1580352 -0.545040E-01  0.229E-01    0.00       1.0  T
   6   -419.1773265 -0.192914E-01  0.109E-01    0.04       1.0  T
   7   -419.1835959 -0.626941E-02  0.273E-02    0.05       1.0  T
   8   -419.1838458 -0.249872E-03  0.172E-02    0.05       1.0  T
   9   -419.1840011 -0.155305E-03  0.665E-03    0.05       1.1  T
  10   -419.1840104 -0.926341E-05  0.444E-03    0.05       1.6  T
  11   -419.1840184 -0.799819E-05  0.217E-03    0.05       3.2  T
  12   -419.1840201 -0.170468E-05  0.907E-04    0.05       7.8  T
  13   -419.1840198  0.245289E-06  0.106E-03    0.05       6.7  T
  14   -419.1840203 -0.477126E-06  0.417E-04    0.05      16.9  T
  15   -419.1840203 -0.134317E-07  0.367E-04    0.05      19.2  T
     SCC iter.                  ...        0 min,  2.643 sec
     gradient                   ...        0 min,  0.213 sec
 * total energy  :  -414.5529957 Eh     change       -0.4366726E-02 Eh
   gradient norm :     0.0184577 Eh/α   predicted    -0.3969272E-02 (  -9.10%)
   displ. norm   :     0.6951427 α      lambda       -0.3852332E-02
   maximum displ.:     0.2927383 α      in ANC's #57, #36, #58, ...

........................................................................
.............................. CYCLE   12 ..............................
........................................................................

 iter      E             dE          RMSdq      gap      omega  full diag
   1   -419.1833051 -0.419183E+03  0.102E-01    0.04       0.0  T
   2   -419.0738953  0.109410E+00  0.488E-01    0.07       1.0  T
   3   -419.1681012 -0.942059E-01  0.163E-01    0.05       1.0  T
   4   -419.1010559  0.670454E-01  0.355E-01    0.10       1.0  T
   5   -419.1643635 -0.633076E-01  0.202E-01    0.02       1.0  T
   6   -419.1779883 -0.136249E-01  0.107E-01    0.04       1.0  T
   7   -419.1841447 -0.615641E-02  0.270E-02    0.05       1.0  T
   8   -419.1842465 -0.101740E-03  0.226E-02    0.05       1.0  T
   9   -419.1844745 -0.228006E-03  0.101E-02    0.05       1.0  T
  10   -419.1845144 -0.398878E-04  0.628E-03    0.05       1.1  T
  11   -419.1845310 -0.166423E-04  0.225E-03    0.05       3.1  T
  12   -419.1845328 -0.178458E-05  0.153E-03    0.05       4.6  T
  13   -419.1845336 -0.753416E-06  0.792E-04    0.05       8.9  T
  14   -419.1845337 -0.126424E-06  0.511E-04    0.05      13.8  T
     SCC iter.                  ...        0 min,  2.201 sec
     gradient                   ...        0 min,  0.177 sec
 * total energy  :  -414.5561591 Eh     change       -0.3163404E-02 Eh
   gradient norm :     0.0156138 Eh/α   predicted    -0.2856947E-02 (  -9.69%)
   displ. norm   :     0.6854318 α      lambda       -0.2858717E-02
   maximum displ.:     0.2855971 α      in ANC's #57, #36, #5, ...

........................................................................
.............................. CYCLE   13 ..............................
........................................................................

 iter      E             dE          RMSdq      gap      omega  full diag
   1   -419.1847750 -0.419185E+03  0.986E-02    0.04       0.0  T
   2   -419.0673138  0.117461E+00  0.498E-01    0.07       1.0  T
   3   -419.1746269 -0.107313E+00  0.139E-01    0.05       1.0  T
   4   -419.1047850  0.698419E-01  0.352E-01    0.09       1.0  T
   5   -419.1310061 -0.262211E-01  0.340E-01    0.01       1.0  T
   6   -419.1814285 -0.504224E-01  0.893E-02    0.05       1.0  T
   7   -419.1858342 -0.440566E-02  0.257E-02    0.05       1.0  T
   8   -419.1857807  0.534442E-04  0.268E-02    0.05       1.0  T
   9   -419.1861077 -0.326995E-03  0.975E-03    0.04       1.0  T
  10   -419.1861417 -0.340204E-04  0.695E-03    0.05       1.0  T
  11   -419.1861582 -0.164320E-04  0.315E-03    0.05       2.2  T
  12   -419.1861638 -0.561422E-05  0.132E-03    0.05       5.3  T
  13   -419.1861642 -0.463168E-06  0.796E-04    0.05       8.8  T
  14   -419.1861645 -0.231677E-06  0.292E-04    0.05      24.1  T
     SCC iter.                  ...        0 min,  2.245 sec
     gradient                   ...        0 min,  0.196 sec
 * total energy  :  -414.5585095 Eh     change       -0.2350382E-02 Eh
   gradient norm :     0.0136500 Eh/α   predicted    -0.2100926E-02 ( -10.61%)
   displ. norm   :     0.6780160 α      lambda       -0.2210681E-02
   maximum displ.:     0.2843413 α      in ANC's #36, #57, #5, ...

........................................................................
.............................. CYCLE   14 ..............................
........................................................................

 iter      E             dE          RMSdq      gap      omega  full diag
   1   -419.1870520 -0.419187E+03  0.959E-02    0.04       0.0  T
   2   -419.0648474  0.122205E+00  0.498E-01    0.05       1.0  T
   3   -419.1775460 -0.112699E+00  0.138E-01    0.05       1.0  T
   4   -419.1257870  0.517591E-01  0.312E-01    0.08       1.0  T
   5   -419.1291338 -0.334683E-02  0.354E-01    0.01       1.0  T
   6   -419.1858560 -0.567222E-01  0.740E-02    0.04       1.0  T
   7   -419.1884112 -0.255516E-02  0.233E-02    0.04       1.0  T
   8   -419.1883948  0.164070E-04  0.241E-02    0.04       1.0  T
   9   -419.1886361 -0.241365E-03  0.854E-03    0.04       1.0  T
  10   -419.1886645 -0.283597E-04  0.447E-03    0.04       1.6  T
  11   -419.1886743 -0.980223E-05  0.236E-03    0.04       3.0  T
  12   -419.1886772 -0.289222E-05  0.651E-04    0.04      10.8  T
  13   -419.1886772 -0.362168E-07  0.539E-04    0.04      13.1  T
  14   -419.1886773 -0.934905E-07  0.223E-04    0.04      31.6  T
     SCC iter.                  ...        0 min,  2.447 sec
     gradient                   ...        0 min,  0.178 sec
 * total energy  :  -414.5603451 Eh     change       -0.1835560E-02 Eh
   gradient norm :     0.0130570 Eh/α   predicted    -0.1613475E-02 ( -12.10%)
   displ. norm   :     0.6823590 α      lambda       -0.1855835E-02
   maximum displ.:     0.2801498 α      in ANC's #36, #57, #5, ...

........................................................................
.............................. CYCLE   15 ..............................
........................................................................

 iter      E             dE          RMSdq      gap      omega  full diag
   1   -419.1899236 -0.419190E+03  0.954E-02    0.04       0.0  T
   2   -419.0606138  0.129310E+00  0.498E-01    0.04       1.0  T
   3   -419.1714153 -0.110802E+00  0.187E-01    0.05       1.0  T
   4   -419.1645177  0.689761E-02  0.209E-01    0.06       1.0  T
   5   -419.1421759  0.223418E-01  0.322E-01    0.01       1.0  T
   6   -419.1879713 -0.457954E-01  0.871E-02    0.03       1.0  T
   7   -419.1917393 -0.376801E-02  0.204E-02    0.04       1.0  T
   8   -419.1915936  0.145722E-03  0.257E-02    0.04       1.0  T
   9   -419.1918936 -0.300034E-03  0.745E-03    0.04       1.0  T
  10   -419.1918790  0.146013E-04  0.855E-03    0.04       1.0  T
  11   -419.1919051 -0.260728E-04  0.466E-03    0.04       1.5  T
  12   -419.1919189 -0.138696E-04  0.489E-04    0.04      14.4  T
  13   -419.1919189  0.666042E-07  0.527E-04    0.04      13.3  T
  14   -419.1919189 -0.554477E-07  0.401E-04    0.04      17.5  T
     SCC iter.                  ...        0 min,  2.397 sec
     gradient                   ...        0 min,  0.179 sec
 * total energy  :  -414.5619148 Eh     change       -0.1569753E-02 Eh
   gradient norm :     0.0130058 Eh/α   predicted    -0.1359983E-02 ( -13.36%)
   displ. norm   :     0.7014857 α      lambda       -0.1707417E-02
   maximum displ.:     0.2661608 α      in ANC's #36, #5, #57, ...

........................................................................
.............................. CYCLE   16 ..............................
........................................................................

 iter      E             dE          RMSdq      gap      omega  full diag
   1   -419.1927258 -0.419193E+03  0.970E-02    0.04       0.0  T
   2   -419.0476558  0.145070E+00  0.511E-01    0.05       1.0  T
   3   -419.1579195 -0.110264E+00  0.256E-01    0.05       1.0  T
   4   -419.1838520 -0.259326E-01  0.137E-01    0.05       1.0  T
   5   -419.1658875  0.179645E-01  0.236E-01    0.04       1.0  T
   6   -419.1792895 -0.134019E-01  0.170E-01    0.01       1.0  T
   7   -419.1948086 -0.155192E-01  0.258E-02    0.04       1.0  T
   8   -419.1943693  0.439302E-03  0.376E-02    0.04       1.0  T
   9   -419.1951467 -0.777406E-03  0.569E-03    0.04       1.2  T
  10   -419.1951370  0.967652E-05  0.651E-03    0.04       1.1  T
  11   -419.1951476 -0.105066E-04  0.436E-03    0.04       1.6  T
  12   -419.1951585 -0.109737E-04  0.105E-03    0.04       6.7  T
  13   -419.1951586 -0.370757E-07  0.104E-03    0.04       6.7  T
  14   -419.1951592 -0.588376E-06  0.408E-04    0.04      17.2  T
  15   -419.1951592 -0.620674E-07  0.163E-04    0.04      43.1  T
     SCC iter.                  ...        0 min,  2.627 sec
     gradient                   ...        0 min,  0.180 sec
 * total energy  :  -414.5633850 Eh     change       -0.1470134E-02 Eh
   gradient norm :     0.0127812 Eh/α   predicted    -0.1273804E-02 ( -13.35%)
   displ. norm   :     0.7217613 α      lambda       -0.1644094E-02
   maximum displ.:     0.2399396 α      in ANC's #5, #36, #6, ...

........................................................................
.............................. CYCLE   17 ..............................
........................................................................

 iter      E             dE          RMSdq      gap      omega  full diag
   1   -419.1960374 -0.419196E+03  0.976E-02    0.04       0.0  T
   2   -419.0302238  0.165814E+00  0.533E-01    0.08       1.0  T
   3   -419.1574336 -0.127210E+00  0.276E-01    0.05       1.0  T
   4   -419.1899598 -0.325262E-01  0.122E-01    0.05       1.0  T
   5   -419.1788954  0.110644E-01  0.177E-01    0.04       1.0  T
   6   -419.1765165  0.237895E-02  0.212E-01    0.01       1.0  T
   7   -419.1976363 -0.211198E-01  0.437E-02    0.04       1.0  T
   8   -419.1976696 -0.333038E-04  0.429E-02    0.04       1.0  T
   9   -419.1987329 -0.106334E-02  0.614E-03    0.04       1.1  T
  10   -419.1987373 -0.434020E-05  0.465E-03    0.04       1.5  T
  11   -419.1987429 -0.559095E-05  0.306E-03    0.04       2.3  T
  12   -419.1987461 -0.318379E-05  0.169E-03    0.04       4.2  T
  13   -419.1987465 -0.420683E-06  0.153E-03    0.04       4.6  T
  14   -419.1987479 -0.145469E-05  0.392E-04    0.04      18.0  T
  15   -419.1987480 -0.447960E-07  0.198E-04    0.04      35.5  T
  16   -419.1987480 -0.121345E-07  0.993E-05    0.04      70.9  T
     SCC iter.                  ...        0 min,  2.626 sec
     gradient                   ...        0 min,  0.184 sec
 * total energy  :  -414.5648049 Eh     change       -0.1419902E-02 Eh
   gradient norm :     0.0122772 Eh/α   predicted    -0.1250289E-02 ( -11.95%)
   displ. norm   :     0.7421555 α      lambda       -0.1563159E-02
   maximum displ.:     0.2673926 α      in ANC's #5, #6, #36, ...

........................................................................
.............................. CYCLE   18 ..............................
........................................................................

 iter      E             dE          RMSdq      gap      omega  full diag
   1   -419.1967137 -0.419197E+03  0.945E-02    0.03       0.0  T
   2   -419.0174813  0.179232E+00  0.544E-01    0.10       1.0  T
   3   -419.1651354 -0.147654E+00  0.256E-01    0.05       1.0  T
   4   -419.1887125 -0.235771E-01  0.136E-01    0.05       1.0  T
   5   -419.1809433  0.776915E-02  0.174E-01    0.04       1.0  T
   6   -419.1667309  0.142124E-01  0.254E-01    0.01       1.0  T
   7   -419.1980461 -0.313152E-01  0.430E-02    0.04       1.0  T
   8   -419.1984909 -0.444804E-03  0.354E-02    0.04       1.0  T
   9   -419.1992083 -0.717338E-03  0.656E-03    0.04       1.1  T
  10   -419.1992153 -0.705880E-05  0.485E-03    0.04       1.4  T
  11   -419.1992248 -0.946216E-05  0.221E-03    0.04       3.2  T
  12   -419.1992268 -0.198474E-05  0.864E-04    0.04       8.1  T
  13   -419.1992268  0.294320E-07  0.839E-04    0.04       8.4  T
  14   -419.1992271 -0.346461E-06  0.464E-04    0.04      15.2  T
     SCC iter.                  ...        0 min,  2.220 sec
     gradient                   ...        0 min,  0.186 sec
 * total energy  :  -414.5661368 Eh     change       -0.1331890E-02 Eh
   gradient norm :     0.0124852 Eh/α   predicted    -0.1212097E-02 (  -8.99%)
   displ. norm   :     0.7413035 α      lambda       -0.1529961E-02
   maximum displ.:     0.2881860 α      in ANC's #5, #6, #21, ...

........................................................................
.............................. CYCLE   19 ..............................
........................................................................

 iter      E             dE          RMSdq      gap      omega  full diag
   1   -419.2014421 -0.419201E+03  0.879E-02    0.03       0.0  T
   2   -419.0228454  0.178597E+00  0.538E-01    0.11       1.0  T
   3   -419.1793422 -0.156497E+00  0.218E-01    0.05       1.0  T
   4   -419.1887768 -0.943456E-02  0.164E-01    0.05       1.0  T
   5   -419.1824754  0.630141E-02  0.200E-01    0.03       1.0  T
   6   -419.1829960 -0.520621E-03  0.200E-01    0.01       1.0  T
   7   -419.2023815 -0.193855E-01  0.411E-02    0.04       1.0  T
   8   -419.2029818 -0.600315E-03  0.286E-02    0.04       1.0  T
   9   -419.2034604 -0.478604E-03  0.577E-03    0.04       1.2  T
  10   -419.2034671 -0.665493E-05  0.412E-03    0.03       1.7  T
  11   -419.2034736 -0.656653E-05  0.172E-03    0.03       4.1  T
  12   -419.2034746 -0.922284E-06  0.985E-04    0.03       7.1  T
  13   -419.2034748 -0.231167E-06  0.673E-04    0.03      10.5  T
     SCC iter.                  ...        0 min,  2.142 sec
     gradient                   ...        0 min,  0.178 sec
 * total energy  :  -414.5673427 Eh     change       -0.1205906E-02 Eh
   gradient norm :     0.0144246 Eh/α   predicted    -0.1185369E-02 (  -1.70%)
   displ. norm   :     0.7217275 α      lambda       -0.1425294E-02
   maximum displ.:     0.2916550 α      in ANC's #5, #6, #21, ...

........................................................................
.............................. CYCLE   20 ..............................
........................................................................

 iter      E             dE          RMSdq      gap      omega  full diag
   1   -419.1999513 -0.419200E+03  0.742E-02    0.03       0.0  T
   2   -419.0457598  0.154191E+00  0.497E-01    0.09       1.0  T
   3   -419.1872406 -0.141481E+00  0.166E-01    0.05       1.0  T
   4   -419.1850114  0.222921E-02  0.177E-01    0.05       1.0  T
   5   -419.1627558  0.222556E-01  0.276E-01    0.01       1.0  T
   6   -419.1969224 -0.341666E-01  0.907E-02    0.02       1.0  T
   7   -419.2006121 -0.368971E-02  0.285E-02    0.03       1.0  T
   8   -419.2009762 -0.364054E-03  0.134E-02    0.03       1.0  T
   9   -419.2010687 -0.925963E-04  0.470E-03    0.03       1.5  T
  10   -419.2010763 -0.758109E-05  0.267E-03    0.03       2.6  T
  11   -419.2010781 -0.180912E-05  0.171E-03    0.03       4.1  T
  12   -419.2010793 -0.115503E-05  0.802E-04    0.03       8.8  T
  13   -419.2010795 -0.234492E-06  0.467E-04    0.03      15.1  T
  14   -419.2010796 -0.414320E-07  0.274E-04    0.03      25.7  T
     SCC iter.                  ...        0 min,  2.362 sec
     gradient                   ...        0 min,  0.244 sec
 * total energy  :  -414.5685403 Eh     change       -0.1197661E-02 Eh
   gradient norm :     0.0134562 Eh/α   predicted    -0.1083931E-02 (  -9.50%)
   displ. norm   :     0.7050605 α      lambda       -0.1369581E-02
   maximum displ.:     0.3060313 α      in ANC's #5, #21, #6, ...
 * RMSD in coord.:     0.7345563 α      energy gain  -0.5655227E+00 Eh

generating ANC from model Hessian ...
Using Lindh-Hessian (1995)
 Shifting diagonal of input Hessian by    1.0036664250488053E-002
 Lowest  eigenvalues of input Hessian
    0.010000    0.010033    0.000000    0.000000    0.000000    0.000000
    0.000000    0.000000    0.010065    0.010125    0.010166    0.010201
    0.010233    0.010262    0.010317    0.010354    0.010395    0.010406
 Highest eigenvalues
    2.644617    2.649350    2.651628    2.653121    2.655744    2.659503


........................................................................
.............................. CYCLE   21 ..............................
........................................................................

 iter      E             dE          RMSdq      gap      omega  full diag
   1   -419.2022175 -0.419202E+03  0.611E-02    0.03       0.0  T
   2   -419.1178697  0.843478E-01  0.365E-01    0.05       1.0  T
   3   -419.1914509 -0.735812E-01  0.143E-01    0.03       1.0  T
   4   -419.1867432  0.470769E-02  0.189E-01    0.05       1.0  T
   5   -419.1878530 -0.110981E-02  0.169E-01    0.02       1.0  T
   6   -419.1974806 -0.962757E-02  0.979E-02    0.02       1.0  T
   7   -419.2024023 -0.492166E-02  0.181E-02    0.03       1.0  T
   8   -419.2025128 -0.110542E-03  0.798E-03    0.03       1.0  T
   9   -419.2025421 -0.292607E-04  0.324E-03    0.03       2.2  T
  10   -419.2025434 -0.130507E-05  0.234E-03    0.03       3.0  T
  11   -419.2025454 -0.200637E-05  0.129E-03    0.03       5.5  T
  12   -419.2025460 -0.579202E-06  0.544E-04    0.03      12.9  T
  13   -419.2025460 -0.502455E-07  0.406E-04    0.03      17.3  T
     SCC iter.                  ...        0 min,  2.277 sec
     gradient                   ...        0 min,  0.203 sec
 * total energy  :  -414.5697579 Eh     change       -0.1217599E-02 Eh
   gradient norm :     0.0128105 Eh/α   predicted     0.0000000E+00 (-100.00%)
   displ. norm   :     0.2193106 α      lambda       -0.8754675E-03
   maximum displ.:     0.0966161 α      in ANC's #7, #23, #26, ...

........................................................................
.............................. CYCLE   22 ..............................
........................................................................

 iter      E             dE          RMSdq      gap      omega  full diag
   1   -419.2047641 -0.419205E+03  0.293E-02    0.03       0.0  T
   2   -419.1733377  0.314264E-01  0.218E-01    0.03       1.0  T
   3   -419.2012433 -0.279056E-01  0.790E-02    0.04       1.0  T
   4   -419.2007459  0.497437E-03  0.921E-02    0.03       1.0  T
   5   -419.2016981 -0.952234E-03  0.819E-02    0.03       1.0  T
   6   -419.2045493 -0.285116E-02  0.258E-02    0.03       1.0  T
   7   -419.2048120 -0.262748E-03  0.860E-03    0.03       1.0  T
   8   -419.2048415 -0.294345E-04  0.361E-03    0.03       1.9  T
   9   -419.2048478 -0.632685E-05  0.166E-03    0.03       4.2  T
  10   -419.2048480 -0.205335E-06  0.125E-03    0.03       5.6  T
  11   -419.2048489 -0.843403E-06  0.352E-04    0.03      20.0  T
  12   -419.2048489 -0.225997E-07  0.221E-04    0.03      31.8  T
     SCC iter.                  ...        0 min,  1.911 sec
     gradient                   ...        0 min,  0.180 sec
 * total energy  :  -414.5705260 Eh     change       -0.7681135E-03 Eh
   gradient norm :     0.0076667 Eh/α   predicted    -0.4587981E-03 ( -40.27%)
   displ. norm   :     0.6295103 α      lambda       -0.1861711E-02
   maximum displ.:     0.2727088 α      in ANC's #7, #23, #26, ...

........................................................................
.............................. CYCLE   23 ..............................
........................................................................

 iter      E             dE          RMSdq      gap      omega  full diag
   1   -419.2066246 -0.419207E+03  0.743E-02    0.03       0.0  T
   2   -419.1293060  0.773186E-01  0.349E-01    0.02       1.0  T
   3   -419.1695072 -0.402012E-01  0.257E-01    0.06       1.0  T
   4   -419.1930415 -0.235343E-01  0.172E-01    0.03       1.0  T
   5   -419.1698619  0.231795E-01  0.290E-01    0.02       1.0  T
   6   -419.2054824 -0.356205E-01  0.630E-02    0.03       1.0  T
   7   -419.2067527 -0.127023E-02  0.295E-02    0.03       1.0  T
   8   -419.2071638 -0.411152E-03  0.858E-03    0.03       1.0  T
   9   -419.2071731 -0.930322E-05  0.633E-03    0.03       1.1  T
  10   -419.2071854 -0.122588E-04  0.388E-03    0.03       1.8  T
  11   -419.2071904 -0.497921E-05  0.172E-03    0.03       4.1  T
  12   -419.2071915 -0.112342E-05  0.931E-04    0.03       7.6  T
  13   -419.2071915  0.182447E-07  0.797E-04    0.03       8.8  T
  14   -419.2071917 -0.286297E-06  0.390E-04    0.03      18.0  T
     SCC iter.                  ...        0 min,  3.142 sec
     gradient                   ...        0 min,  0.187 sec
 * total energy  :  -414.5719929 Eh     change       -0.1466835E-02 Eh
   gradient norm :     0.0073464 Eh/α   predicted    -0.1299738E-02 ( -11.39%)
   displ. norm   :     0.6632483 α      lambda       -0.1359579E-02
   maximum displ.:     0.2977401 α      in ANC's #7, #23, #20, ...

........................................................................
.............................. CYCLE   24 ..............................
........................................................................

 iter      E             dE          RMSdq      gap      omega  full diag
   1   -419.2070009 -0.419207E+03  0.684E-02    0.03       0.0  T
   2   -419.1520747  0.549263E-01  0.307E-01    0.01       1.0  T
   3   -419.1882037 -0.361291E-01  0.179E-01    0.04       1.0  T
   4   -419.1778490  0.103547E-01  0.235E-01    0.04       1.0  T
   5   -419.1780167 -0.167667E-03  0.243E-01    0.02       1.0  T
   6   -419.2060892 -0.280725E-01  0.537E-02    0.03       1.0  T
   7   -419.2072285 -0.113935E-02  0.176E-02    0.03       1.0  T
   8   -419.2073329 -0.104386E-03  0.969E-03    0.03       1.0  T
   9   -419.2073568 -0.238929E-04  0.563E-03    0.03       1.2  T
  10   -419.2073698 -0.129930E-04  0.279E-03    0.03       2.5  T
  11   -419.2073712 -0.137954E-05  0.174E-03    0.03       4.0  T
  12   -419.2073723 -0.111865E-05  0.876E-04    0.03       8.0  T
  13   -419.2073723  0.116233E-07  0.795E-04    0.03       8.9  T
  14   -419.2073724 -0.970949E-07  0.631E-04    0.03      11.1  T
     SCC iter.                  ...        0 min,  2.309 sec
     gradient                   ...        0 min,  0.189 sec
 * total energy  :  -414.5731730 Eh     change       -0.1180154E-02 Eh
   gradient norm :     0.0119979 Eh/α   predicted    -0.9788336E-03 ( -17.06%)
   displ. norm   :     0.7450527 α      lambda       -0.1493697E-02
   maximum displ.:     0.3379007 α      in ANC's #7, #23, #20, ...

........................................................................
.............................. CYCLE   25 ..............................
........................................................................

 iter      E             dE          RMSdq      gap      omega  full diag
   1   -419.2072822 -0.419207E+03  0.707E-02    0.03       0.0  T
   2   -419.1632296  0.440526E-01  0.295E-01    0.02       1.0  T
   3   -419.1999970 -0.367674E-01  0.126E-01    0.02       1.0  T
   4   -419.1337757  0.662213E-01  0.402E-01    0.07       1.0  T
   5   -419.1765629 -0.427872E-01  0.215E-01    0.04       1.0  T
   6   -419.2034284 -0.268655E-01  0.825E-02    0.03       1.0  T
   7   -419.2074170 -0.398860E-02  0.154E-02    0.03       1.0  T
   8   -419.2074912 -0.742122E-04  0.814E-03    0.03       1.0  T
   9   -419.2075015 -0.103035E-04  0.607E-03    0.03       1.2  T
  10   -419.2075165 -0.150036E-04  0.290E-03    0.03       2.4  T
  11   -419.2075193 -0.282463E-05  0.157E-03    0.03       4.5  T
  12   -419.2075201 -0.819437E-06  0.963E-04    0.03       7.3  T
  13   -419.2075205 -0.395843E-06  0.446E-04    0.03      15.8  T
     SCC iter.                  ...        0 min,  2.087 sec
     gradient                   ...        0 min,  0.178 sec
 * total energy  :  -414.5745674 Eh     change       -0.1394403E-02 Eh
   gradient norm :     0.0127656 Eh/α   predicted    -0.1161441E-02 ( -16.71%)
   displ. norm   :     0.8130183 α      lambda       -0.1852490E-02
   maximum displ.:     0.3727207 α      in ANC's #7, #23, #3, ...

........................................................................
.............................. CYCLE   26 ..............................
........................................................................

 iter      E             dE          RMSdq      gap      omega  full diag
   1   -419.2084291 -0.419208E+03  0.765E-02    0.03       0.0  T
   2   -419.1611180  0.473111E-01  0.305E-01    0.01       1.0  T
   3   -419.1988975 -0.377795E-01  0.133E-01    0.03       1.0  T
   4   -419.0951786  0.103719E+00  0.417E-01    0.05       1.0  T
   5   -419.1630818 -0.679031E-01  0.330E-01    0.06       1.0  T
   6   -419.2070554 -0.439737E-01  0.531E-02    0.03       1.0  T
   7   -419.2084380 -0.138260E-02  0.198E-02    0.03       1.0  T
   8   -419.2084897 -0.516559E-04  0.173E-02    0.03       1.0  T
   9   -419.2086355 -0.145829E-03  0.648E-03    0.03       1.1  T
  10   -419.2086415 -0.595846E-05  0.518E-03    0.03       1.4  T
  11   -419.2086533 -0.118636E-04  0.115E-03    0.03       6.1  T
  12   -419.2086531  0.232093E-06  0.126E-03    0.03       5.6  T
  13   -419.2086535 -0.435178E-06  0.686E-04    0.03      10.3  T
  14   -419.2086537 -0.138462E-06  0.451E-04    0.03      15.6  T
     SCC iter.                  ...        0 min,  2.433 sec
     gradient                   ...        0 min,  0.181 sec
 * total energy  :  -414.5762957 Eh     change       -0.1728310E-02 Eh
   gradient norm :     0.0103889 Eh/α   predicted    -0.1538498E-02 ( -10.98%)
   displ. norm   :     0.8517808 α      lambda       -0.1972383E-02
   maximum displ.:     0.3965365 α      in ANC's #7, #23, #3, ...

........................................................................
.............................. CYCLE   27 ..............................
........................................................................

 iter      E             dE          RMSdq      gap      omega  full diag
   1   -419.2096001 -0.419210E+03  0.828E-02    0.02       0.0  T
   2   -419.1362597  0.733404E-01  0.347E-01    0.04       1.0  T
   3   -419.1837673 -0.475076E-01  0.209E-01    0.04       1.0  T
   4   -419.1701053  0.136619E-01  0.292E-01    0.02       1.0  T
   5   -419.1774374 -0.733207E-02  0.267E-01    0.03       1.0  T
   6   -419.2033172 -0.258798E-01  0.106E-01    0.03       1.0  T
   7   -419.2096237 -0.630644E-02  0.255E-02    0.03       1.0  T
   8   -419.2098950 -0.271347E-03  0.121E-02    0.02       1.0  T
   9   -419.2099402 -0.451308E-04  0.602E-03    0.02       1.2  T
  10   -419.2099524 -0.122013E-04  0.275E-03    0.02       2.6  T
  11   -419.2099547 -0.234433E-05  0.130E-03    0.02       5.4  T
  12   -419.2099550 -0.257111E-06  0.826E-04    0.02       8.5  T
  13   -419.2099552 -0.233782E-06  0.485E-04    0.02      14.5  T
     SCC iter.                  ...        0 min,  2.158 sec
     gradient                   ...        0 min,  0.173 sec
 * total energy  :  -414.5781196 Eh     change       -0.1823894E-02 Eh
   gradient norm :     0.0103934 Eh/α   predicted    -0.1701733E-02 (  -6.70%)
   displ. norm   :     0.8768404 α      lambda       -0.1925255E-02
   maximum displ.:     0.4159672 α      in ANC's #7, #3, #23, ...

........................................................................
.............................. CYCLE   28 ..............................
........................................................................

 iter      E             dE          RMSdq      gap      omega  full diag
   1   -419.2102450 -0.419210E+03  0.846E-02    0.02       0.0  T
   2   -419.1442024  0.660426E-01  0.331E-01    0.04       1.0  T
   3   -419.1798442 -0.356418E-01  0.223E-01    0.04       1.0  T
   4   -419.1704067  0.943752E-02  0.294E-01    0.03       1.0  T
   5   -419.1781029 -0.769622E-02  0.268E-01    0.02       1.0  T
   6   -419.2029930 -0.248901E-01  0.115E-01    0.02       1.0  T
   7   -419.2101411 -0.714807E-02  0.290E-02    0.02       1.0  T
   8   -419.2105347 -0.393573E-03  0.120E-02    0.02       1.0  T
   9   -419.2105760 -0.413177E-04  0.608E-03    0.02       1.2  T
  10   -419.2105877 -0.116926E-04  0.295E-03    0.02       2.4  T
  11   -419.2105900 -0.232990E-05  0.158E-03    0.02       4.4  T
  12   -419.2105909 -0.873319E-06  0.836E-04    0.02       8.4  T
  13   -419.2105911 -0.255486E-06  0.435E-04    0.02      16.2  T
     SCC iter.                  ...        0 min,  2.073 sec
     gradient                   ...        0 min,  0.186 sec
 * total energy  :  -414.5799308 Eh     change       -0.1811154E-02 Eh
   gradient norm :     0.0116262 Eh/α   predicted    -0.1702762E-02 (  -5.98%)
   displ. norm   :     0.8741993 α      lambda       -0.1938962E-02
   maximum displ.:     0.4268600 α      in ANC's #7, #3, #23, ...

........................................................................
.............................. CYCLE   29 ..............................
........................................................................

 iter      E             dE          RMSdq      gap      omega  full diag
   1   -419.2127721 -0.419213E+03  0.830E-02    0.02       0.0  T
   2   -419.1605898  0.521823E-01  0.303E-01    0.02       1.0  T
   3   -419.1877092 -0.271194E-01  0.200E-01    0.04       1.0  T
   4   -419.1646084  0.231008E-01  0.307E-01    0.03       1.0  T
   5   -419.1744327 -0.982427E-02  0.298E-01    0.04       1.0  T
   6   -419.2073651 -0.329324E-01  0.100E-01    0.02       1.0  T
   7   -419.2125011 -0.513606E-02  0.325E-02    0.02       1.0  T
   8   -419.2130130 -0.511812E-03  0.117E-02    0.02       1.0  T
   9   -419.2130570 -0.440627E-04  0.566E-03    0.02       1.2  T
  10   -419.2130681 -0.111045E-04  0.215E-03    0.02       3.3  T
  11   -419.2130668  0.130770E-05  0.218E-03    0.02       3.2  T
  12   -419.2130691 -0.232480E-05  0.896E-04    0.02       7.9  T
  13   -419.2130694 -0.260953E-06  0.470E-04    0.02      15.0  T
  14   -419.2130695 -0.708214E-07  0.291E-04    0.02      24.2  T
     SCC iter.                  ...        0 min,  2.261 sec
     gradient                   ...        0 min,  0.175 sec
 * total energy  :  -414.5817473 Eh     change       -0.1816531E-02 Eh
   gradient norm :     0.0109745 Eh/α   predicted    -0.1710383E-02 (  -5.84%)
   displ. norm   :     0.8855985 α      lambda       -0.1914537E-02
   maximum displ.:     0.4426234 α      in ANC's #7, #3, #23, ...

........................................................................
.............................. CYCLE   30 ..............................
........................................................................

 iter      E             dE          RMSdq      gap      omega  full diag
   1   -419.2143798 -0.419214E+03  0.820E-02    0.02       0.0  T
   2   -419.1741543  0.402255E-01  0.289E-01    0.03       1.0  T
   3   -419.2043885 -0.302342E-01  0.144E-01    0.02       1.0  T
   4   -419.0886407  0.115748E+00  0.433E-01    0.07       1.0  T
   5   -419.2109700 -0.122329E+00  0.899E-02    0.02       1.0  T
   6   -419.1997987  0.111713E-01  0.188E-01    0.05       1.0  T
   7   -419.2136191 -0.138203E-01  0.403E-02    0.02       1.0  T
   8   -419.2145646 -0.945527E-03  0.118E-02    0.02       1.0  T
   9   -419.2146036 -0.390467E-04  0.659E-03    0.02       1.1  T
  10   -419.2146206 -0.169676E-04  0.290E-03    0.02       2.4  T
  11   -419.2146189  0.165975E-05  0.298E-03    0.02       2.4  T
  12   -419.2146237 -0.473652E-05  0.814E-04    0.02       8.6  T
  13   -419.2146238 -0.698292E-07  0.684E-04    0.02      10.3  T
  14   -419.2146239 -0.189882E-06  0.337E-04    0.02      20.9  T
     SCC iter.                  ...        0 min,  2.161 sec
     gradient                   ...        0 min,  0.179 sec
 * total energy  :  -414.5835492 Eh     change       -0.1801863E-02 Eh
   gradient norm :     0.0096726 Eh/α   predicted    -0.1708045E-02 (  -5.21%)
   displ. norm   :     0.8740574 α      lambda       -0.1887490E-02
   maximum displ.:     0.4540081 α      in ANC's #7, #3, #14, ...

........................................................................
.............................. CYCLE   31 ..............................
........................................................................

 iter      E             dE          RMSdq      gap      omega  full diag
   1   -419.2195998 -0.419220E+03  0.795E-02    0.01       0.0  T
   2   -419.1767238  0.428760E-01  0.302E-01    0.04       1.0  T
   3   -419.2130266 -0.363027E-01  0.124E-01    0.01       1.0  T
   4   -419.1466621  0.663644E-01  0.363E-01    0.03       1.0  T
   5   -419.1907655 -0.441034E-01  0.219E-01    0.04       1.0  T
   6   -419.2136497 -0.228842E-01  0.111E-01    0.02       1.0  T
   7   -419.2194601 -0.581036E-02  0.301E-02    0.02       1.0  T
   8   -419.2197941 -0.333974E-03  0.133E-02    0.01       1.0  T
   9   -419.2198627 -0.686160E-04  0.685E-03    0.01       1.0  T
  10   -419.2198767 -0.140297E-04  0.327E-03    0.02       2.2  T
  11   -419.2198793 -0.255019E-05  0.187E-03    0.02       3.8  T
  12   -419.2198807 -0.138111E-05  0.859E-04    0.02       8.2  T
  13   -419.2198809 -0.273846E-06  0.455E-04    0.02      15.5  T
  14   -419.2198809 -0.196651E-07  0.354E-04    0.02      19.9  T
     SCC iter.                  ...        0 min,  2.126 sec
     gradient                   ...        0 min,  0.177 sec
 * total energy  :  -414.5852865 Eh     change       -0.1737282E-02 Eh
   gradient norm :     0.0088484 Eh/α   predicted    -0.1664745E-02 (  -4.18%)
   displ. norm   :     0.9090903 α      lambda       -0.1814792E-02
   maximum displ.:     0.4666789 α      in ANC's #7, #3, #23, ...

........................................................................
.............................. CYCLE   32 ..............................
........................................................................

 iter      E             dE          RMSdq      gap      omega  full diag
   1   -419.2168879 -0.419217E+03  0.829E-02    0.01       0.0  T
   2   -419.1722234  0.446645E-01  0.310E-01    0.03       1.0  T
   3   -419.2071799 -0.349565E-01  0.148E-01    0.01       1.0  T
   4   -419.1534729  0.537070E-01  0.355E-01    0.04       1.0  T
   5   -419.1755075 -0.220346E-01  0.264E-01    0.04       1.0  T
   6   -419.2139193 -0.384118E-01  0.770E-02    0.01       1.0  T
   7   -419.2169800 -0.306066E-02  0.236E-02    0.02       1.0  T
   8   -419.2171395 -0.159545E-03  0.129E-02    0.01       1.0  T
   9   -419.2171960 -0.564823E-04  0.723E-03    0.01       1.0  T
  10   -419.2172126 -0.166059E-04  0.344E-03    0.01       2.0  T
  11   -419.2172149 -0.227723E-05  0.233E-03    0.01       3.0  T
  12   -419.2172174 -0.252855E-05  0.902E-04    0.01       7.8  T
  13   -419.2172177 -0.312827E-06  0.472E-04    0.01      14.9  T
  14   -419.2172178 -0.624109E-07  0.286E-04    0.01      24.6  T
     SCC iter.                  ...        0 min,  2.258 sec
     gradient                   ...        0 min,  0.183 sec
 * total energy  :  -414.5869503 Eh     change       -0.1663880E-02 Eh
   gradient norm :     0.0106099 Eh/α   predicted    -0.1657310E-02 (  -0.39%)
   displ. norm   :     0.8549129 α      lambda       -0.1791471E-02
   maximum displ.:     0.4649936 α      in ANC's #7, #3, #14, ...

........................................................................
.............................. CYCLE   33 ..............................
........................................................................

 iter      E             dE          RMSdq      gap      omega  full diag
   1   -419.2249593 -0.419225E+03  0.750E-02    0.01       0.0  T
   2   -419.1870035  0.379559E-01  0.282E-01    0.02       1.0  T
   3   -419.2182678 -0.312644E-01  0.117E-01    0.01       1.0  T
   4   -419.1467247  0.715431E-01  0.359E-01    0.03       1.0  T
   5   -419.1984930 -0.517683E-01  0.229E-01    0.05       1.0  T
   6   -419.2218270 -0.233341E-01  0.886E-02    0.02       1.0  T
   7   -419.2250139 -0.318685E-02  0.230E-02    0.01       1.0  T
   8   -419.2251800 -0.166097E-03  0.118E-02    0.01       1.0  T
   9   -419.2252512 -0.712453E-04  0.377E-03    0.01       1.9  T
  10   -419.2252542 -0.299054E-05  0.205E-03    0.01       3.4  T
  11   -419.2252534  0.788469E-06  0.187E-03    0.01       3.8  T
  12   -419.2252551 -0.167308E-05  0.762E-04    0.01       9.2  T
  13   -419.2252552 -0.106491E-06  0.535E-04    0.01      13.2  T
  14   -419.2252553 -0.668024E-07  0.359E-04    0.01      19.6  T
     SCC iter.                  ...        0 min,  2.193 sec
     gradient                   ...        0 min,  0.180 sec
 * total energy  :  -414.5885532 Eh     change       -0.1602864E-02 Eh
   gradient norm :     0.0101458 Eh/α   predicted    -0.1550416E-02 (  -3.27%)
   displ. norm   :     0.8765582 α      lambda       -0.1632077E-02
   maximum displ.:     0.4759033 α      in ANC's #7, #3, #14, ...

........................................................................
.............................. CYCLE   34 ..............................
........................................................................

 iter      E             dE          RMSdq      gap      omega  full diag
   1   -419.2249690 -0.419225E+03  0.759E-02    0.01       0.0  T
   2   -419.1992437  0.257253E-01  0.230E-01    0.01       1.0  T
   3   -419.2142635 -0.150197E-01  0.143E-01    0.01       1.0  T
   4   -419.1573276  0.569359E-01  0.343E-01    0.03       1.0  T
   5   -419.2120729 -0.547452E-01  0.158E-01    0.04       1.0  T
   6   -419.2178662 -0.579332E-02  0.128E-01    0.03       1.0  T
   7   -419.2250001 -0.713395E-02  0.216E-02    0.01       1.0  T
   8   -419.2251237 -0.123616E-03  0.111E-02    0.01       1.0  T
   9   -419.2251906 -0.668346E-04  0.386E-03    0.01       1.8  T
  10   -419.2251902  0.337064E-06  0.355E-03    0.01       2.0  T
  11   -419.2251926 -0.238503E-05  0.234E-03    0.01       3.0  T
  12   -419.2251947 -0.211338E-05  0.107E-03    0.01       6.6  T
  13   -419.2251953 -0.524803E-06  0.477E-04    0.01      14.7  T
  14   -419.2251953 -0.509069E-07  0.284E-04    0.01      24.8  T
     SCC iter.                  ...        0 min,  2.256 sec
     gradient                   ...        0 min,  0.179 sec
 * total energy  :  -414.5900659 Eh     change       -0.1512662E-02 Eh
   gradient norm :     0.0083626 Eh/α   predicted    -0.1443046E-02 (  -4.60%)
   displ. norm   :     0.8416147 α      lambda       -0.1545934E-02
   maximum displ.:     0.4706538 α      in ANC's #7, #3, #14, ...

........................................................................
.............................. CYCLE   35 ..............................
........................................................................

 iter      E             dE          RMSdq      gap      omega  full diag
   1   -419.2300701 -0.419230E+03  0.719E-02    0.01       0.0  T
   2   -419.2151357  0.149344E-01  0.173E-01    0.01       1.0  T
   3   -419.2161974 -0.106175E-02  0.153E-01    0.02       1.0  T
   4   -419.1700591  0.461383E-01  0.320E-01    0.01       1.0  T
   5   -419.2280603 -0.580011E-01  0.706E-02    0.02       1.0  T
   6   -419.2112090  0.168512E-01  0.208E-01    0.04       1.0  T
   7   -419.2300342 -0.188252E-01  0.205E-02    0.01       1.0  T
   8   -419.2301287 -0.944345E-04  0.131E-02    0.01       1.0  T
   9   -419.2302125 -0.838906E-04  0.615E-03    0.01       1.1  T
  10   -419.2302266 -0.140652E-04  0.300E-03    0.01       2.3  T
  11   -419.2302277 -0.107344E-05  0.210E-03    0.01       3.3  T
  12   -419.2302294 -0.176162E-05  0.918E-04    0.01       7.7  T
  13   -419.2302298 -0.374709E-06  0.438E-04    0.01      16.1  T
  14   -419.2302299 -0.414793E-07  0.256E-04    0.01      27.5  T
     SCC iter.                  ...        0 min,  2.401 sec
     gradient                   ...        0 min,  0.172 sec
 * total energy  :  -414.5914586 Eh     change       -0.1392762E-02 Eh
   gradient norm :     0.0075061 Eh/α   predicted    -0.1320475E-02 (  -5.19%)
   displ. norm   :     0.8321554 α      lambda       -0.1378354E-02
   maximum displ.:     0.4665541 α      in ANC's #7, #3, #19, ...

........................................................................
.............................. CYCLE   36 ..............................
........................................................................

 iter      E             dE          RMSdq      gap      omega  full diag
   1   -419.2300229 -0.419230E+03  0.741E-02    0.01       0.0  T
   2   -419.2263090  0.371398E-02  0.103E-01    0.01       1.0  T
   3   -419.2097196  0.165894E-01  0.227E-01    0.06       1.0  T
   4   -419.1931875  0.165321E-01  0.286E-01    0.05       1.0  T
   5   -419.2270654 -0.338779E-01  0.812E-02    0.03       1.0  T
   6   -419.2234999  0.356545E-02  0.990E-02    0.01       1.0  T
   7   -419.2297428 -0.624287E-02  0.241E-02    0.01       1.0  T
   8   -419.2300528 -0.310008E-03  0.102E-02    0.01       1.0  T
   9   -419.2300992 -0.463705E-04  0.510E-03    0.01       1.4  T
  10   -419.2301104 -0.112027E-04  0.158E-03    0.01       4.5  T
  11   -419.2301101  0.266091E-06  0.140E-03    0.01       5.0  T
  12   -419.2301111 -0.975974E-06  0.377E-04    0.01      18.7  T
  13   -419.2301111  0.192962E-07  0.347E-04    0.01      20.3  T
     SCC iter.                  ...        0 min,  2.054 sec
     gradient                   ...        0 min,  0.176 sec
 * total energy  :  -414.5926763 Eh     change       -0.1217638E-02 Eh
   gradient norm :     0.0065672 Eh/α   predicted    -0.1166427E-02 (  -4.21%)
   displ. norm   :     0.8065356 α      lambda       -0.1226864E-02
   maximum displ.:     0.4461775 α      in ANC's #7, #3, #19, ...

........................................................................
.............................. CYCLE   37 ..............................
........................................................................

 iter      E             dE          RMSdq      gap      omega  full diag
   1   -419.2335972 -0.419234E+03  0.738E-02    0.01       0.0  T
   2   -419.2291675  0.442969E-02  0.112E-01    0.02       1.0  T
   3   -419.2111987  0.179688E-01  0.237E-01    0.08       1.0  T
   4   -419.1997916  0.114071E-01  0.254E-01    0.03       1.0  T
   5   -419.2272703 -0.274788E-01  0.104E-01    0.03       1.0  T
   6   -419.2254789  0.179139E-02  0.118E-01    0.01       1.0  T
   7   -419.2335445 -0.806562E-02  0.173E-02    0.01       1.0  T
   8   -419.2336006 -0.560167E-04  0.113E-02    0.01       1.0  T
   9   -419.2336652 -0.646352E-04  0.478E-03    0.01       1.5  T
  10   -419.2336712 -0.596167E-05  0.232E-03    0.01       3.0  T
  11   -419.2336732 -0.201572E-05  0.138E-03    0.01       5.1  T
  12   -419.2336739 -0.759307E-06  0.607E-04    0.01      11.6  T
  13   -419.2336740 -0.104029E-06  0.397E-04    0.01      17.7  T
     SCC iter.                  ...        0 min,  2.062 sec
     gradient                   ...        0 min,  0.180 sec
 * total energy  :  -414.5937438 Eh     change       -0.1067503E-02 Eh
   gradient norm :     0.0080552 Eh/α   predicted    -0.1012470E-02 (  -5.16%)
   displ. norm   :     0.7814326 α      lambda       -0.1106116E-02
   maximum displ.:     0.4224594 α      in ANC's #7, #3, #19, ...

........................................................................
.............................. CYCLE   38 ..............................
........................................................................

 iter      E             dE          RMSdq      gap      omega  full diag
   1   -419.2342735 -0.419234E+03  0.772E-02    0.01       0.0  T
   2   -419.2242260  0.100475E-01  0.149E-01    0.02       1.0  T
   3   -419.2183725  0.585354E-02  0.191E-01    0.06       1.0  T
   4   -419.2000058  0.183667E-01  0.237E-01    0.03       1.0  T
   5   -419.2295223 -0.295166E-01  0.101E-01    0.03       1.0  T
   6   -419.2317714 -0.224903E-02  0.687E-02    0.01       1.0  T
   7   -419.2339961 -0.222474E-02  0.282E-02    0.01       1.0  T
   8   -419.2342488 -0.252670E-03  0.134E-02    0.01       1.0  T
   9   -419.2343524 -0.103582E-03  0.395E-03    0.01       1.8  T
  10   -419.2343531 -0.728817E-06  0.309E-03    0.01       2.3  T
  11   -419.2343568 -0.369347E-05  0.171E-03    0.01       4.1  T
  12   -419.2343581 -0.127465E-05  0.757E-04    0.01       9.3  T
  13   -419.2343582 -0.168233E-06  0.532E-04    0.01      13.2  T
  14   -419.2343583 -0.999769E-07  0.208E-04    0.01      33.8  T
     SCC iter.                  ...        0 min,  2.174 sec
     gradient                   ...        0 min,  0.180 sec
 * total energy  :  -414.5947116 Eh     change       -0.9678006E-03 Eh
   gradient norm :     0.0070932 Eh/α   predicted    -0.8907794E-03 (  -7.96%)
   displ. norm   :     0.7732728 α      lambda       -0.1040134E-02
   maximum displ.:     0.3933188 α      in ANC's #7, #3, #4, ...

........................................................................
.............................. CYCLE   39 ..............................
........................................................................

 iter      E             dE          RMSdq      gap      omega  full diag
   1   -419.2345085 -0.419235E+03  0.815E-02    0.01       0.0  T
   2   -419.2238884  0.106201E-01  0.155E-01    0.02       1.0  T
   3   -419.2174824  0.640596E-02  0.201E-01    0.06       1.0  T
   4   -419.1898240  0.276584E-01  0.259E-01    0.02       1.0  T
   5   -419.2308982 -0.410742E-01  0.898E-02    0.03       1.0  T
   6   -419.2337948 -0.289654E-02  0.395E-02    0.01       1.0  T
   7   -419.2339154 -0.120654E-03  0.368E-02    0.01       1.0  T
   8   -419.2345301 -0.614640E-03  0.110E-02    0.01       1.0  T
   9   -419.2345798 -0.497450E-04  0.454E-03    0.01       1.5  T
  10   -419.2345869 -0.714096E-05  0.256E-03    0.01       2.7  T
  11   -419.2345884 -0.144874E-05  0.182E-03    0.01       3.9  T
  12   -419.2345899 -0.151514E-05  0.759E-04    0.01       9.3  T
  13   -419.2345900 -0.930671E-07  0.631E-04    0.01      11.2  T
  14   -419.2345902 -0.158383E-06  0.282E-04    0.01      25.0  T
     SCC iter.                  ...        0 min,  2.354 sec
     gradient                   ...        0 min,  0.179 sec
 * total energy  :  -414.5956218 Eh     change       -0.9101950E-03 Eh
   gradient norm :     0.0074162 Eh/α   predicted    -0.8310427E-03 (  -8.70%)
   displ. norm   :     0.7573063 α      lambda       -0.9712467E-03
   maximum displ.:     0.3543939 α      in ANC's #7, #3, #4, ...

........................................................................
[...]
   153  16 S    3.913 --   164 O    1.812   165 O    1.044   143 C    0.910
   154   5 B    3.299 --   149 O    0.799   150 O    0.798   123 O    0.781
                           124 O    0.767
   155   8 O    2.020 --   127 S    1.841
   156   8 O    2.144 --   127 S    1.015   157 C    0.985
   157   6 C    3.941 --   156 O    0.985   189 H    0.979   188 H    0.976
                           190 H    0.971
   158   8 O    2.212 --   159 C    0.968   126 S    0.945   151 S    0.156
   159   6 C    3.918 --   185 H    0.980   158 O    0.968   186 H    0.968
                           187 H    0.961
   160   8 O    2.035 --   126 S    1.853
   161   8 O    1.966 --   151 S    1.744
   162   8 O    2.149 --   151 S    1.030   163 C    0.981
   163   6 C    3.938 --   162 O    0.981   183 H    0.978   182 H    0.976
                           184 H    0.972
   164   8 O    2.005 --   153 S    1.812
   165   8 O    2.165 --   153 S    1.044   166 C    0.979
   166   6 C    3.936 --   165 O    0.979   175 H    0.979   173 H    0.976
                           174 H    0.971
   167   8 O    2.042 --   152 S    1.847
   168   8 O    2.139 --   152 S    1.014   169 C    0.972
   169   6 C    3.928 --   176 H    0.979   177 H    0.973   168 O    0.972
                           178 H    0.970
   170   8 O    2.025 --   125 S    1.839
   171   8 O    2.184 --   125 S    0.998   172 C    0.966
   172   6 C    3.918 --   179 H    0.980   180 H    0.967   171 O    0.966
                           181 H    0.966
   173   1 H    0.996 --   166 C    0.976
   174   1 H    0.996 --   166 C    0.971
   175   1 H    0.999 --   166 C    0.979
   176   1 H    0.998 --   169 C    0.979
   177   1 H    0.995 --   169 C    0.973
   178   1 H    0.993 --   169 C    0.970
   179   1 H    0.998 --   172 C    0.980
   180   1 H    0.993 --   172 C    0.967
   181   1 H    0.995 --   172 C    0.966
   182   1 H    0.996 --   163 C    0.976
   183   1 H    0.999 --   163 C    0.978
   184   1 H    0.996 --   163 C    0.972
   185   1 H    0.998 --   159 C    0.980
   186   1 H    0.994 --   159 C    0.968
   187   1 H    0.991 --   159 C    0.961
   188   1 H    0.997 --   157 C    0.976
   189   1 H    0.999 --   157 C    0.979
   190   1 H    0.997 --   157 C    0.971
   191   1 H    0.992 --   142 C    0.958
   192   1 H    0.996 --   144 C    0.963
   193   1 H    0.992 --   148 C    0.958
   194   1 H    0.996 --   132 C    0.960
   195   1 H    0.995 --   146 C    0.953
   196   1 H    0.995 --   128 C    0.961
   197   1 H    0.996 --   102 C    0.959
   198   1 H    0.995 --   120 C    0.958
   199   1 H    0.994 --   122 C    0.961
   200   1 H    0.993 --   106 C    0.960
   201   1 H    0.992 --   118 C    0.958
   202   1 H    0.995 --   116 C    0.964
 ---------------------------------------------------------------------------

Topologies differ in bond orders
Writing corrected topology to xtbtopo.mol

molecular dipole:
                 x           y           z       tot (Debye)
 q only:        1.897      -4.070      -5.475
   full:        1.324      -3.193      -5.487      16.483
molecular quadrupole (traceless):
                xx          xy          yy          xz          yz          zz
 q only:      -78.521      21.924      61.792     -35.828     -23.753      16.730
  q+dip:      -85.374      45.797      56.087     -58.480     -36.808      29.287
   full:      -92.540      50.929      43.032     -74.381     -39.828      49.507

           -------------------------------------------------
          |                Geometry Summary                 |
           -------------------------------------------------

      molecular mass/u    :     2147.8552923
   center of mass at/Å    :       -1.0470238       0.5496926       3.3318828
  moments of inertia/u·Å² :        0.3803520E+05   0.6606092E+05   0.8399703E+05
rotational constants/cm⁻¹ :        0.4432113E-03   0.2551831E-03   0.2006932E-03

 * 185 selected distances

     #   Z          #   Z                                           value/Å
     1   6 C        2   6 C                                       1.3956580
     2   6 C        3   6 C                                       1.4247643
     4   6 C        5   6 C                                       1.4182034
     1   6 C        6   6 C                                       1.3886907
     5   6 C        6   6 C                                       1.3596752
     7   6 C        8   6 C                                       1.4162619
     8   6 C        9   6 C                                       1.4214929
     4   6 C       10   7 N                                       1.3276992
     9   6 C       10   7 N                                       1.3287320
    12   6 C       13   7 N                                       1.3317810
     8   6 C       14   6 C                                       1.4228192
    13   7 N       14   6 C                                       1.3272263
    14   6 C       15   6 C                                       1.4079288
    15   6 C       16   6 C                                       1.3828144
     9   6 C       17   6 C                                       1.4134228
    16   6 C       17   6 C                                       1.3782636
    11   6 C       18   6 C                                       1.4206873
    18   6 C       19   6 C                                       1.3985029
    19   6 C       20   6 C                                       1.3870510
    12   6 C       21   6 C                                       1.4138160
    20   6 C       21   6 C                                       1.3647605
     2   6 C       22   8 O                                       1.3310231
    18   6 C       23   8 O                                       1.3348490
    27   6 C       28   6 C                                       1.4007960
    28   6 C       29   6 C                                       1.4283619
    30   6 C       31   6 C                                       1.4139348
    27   6 C       32   6 C                                       1.3864383
    31   6 C       32   6 C                                       1.3601905
    33   6 C       34   6 C                                       1.4188710
    34   6 C       35   6 C                                       1.4238968
    30   6 C       36   7 N                                       1.3278093
    35   6 C       36   7 N                                       1.3287056
    38   6 C       39   7 N                                       1.3250710
    34   6 C       40   6 C                                       1.4269314
    39   7 N       40   6 C                                       1.3259473
    40   6 C       41   6 C                                       1.4097122
    41   6 C       42   6 C                                       1.3756224
    35   6 C       43   6 C                                       1.4096502
    42   6 C       43   6 C                                       1.3781161
    37   6 C       44   6 C                                       1.4207540
    44   6 C       45   6 C                                       1.3944917
    45   6 C       46   6 C                                       1.3900978
    38   6 C       47   6 C                                       1.4160473
    46   6 C       47   6 C                                       1.3606203
    28   6 C       48   8 O                                       1.3329846
    44   6 C       49   8 O                                       1.3376321
    22   8 O       53   5 B                                       1.4487210
    23   8 O       53   5 B                                       1.4655598
    48   8 O       53   5 B                                       1.4787132 (max)
    49   8 O       53   5 B                                       1.4619070
    26  16 S       54   8 O                                       1.4497021
    55   8 O       56   6 C                                       1.4088775
    57   8 O       58   6 C                                       1.4035851
    25  16 S       59   8 O                                       1.4557905
    50  16 S       60   8 O                                       1.4638714
    61   8 O       62   6 C                                       1.4095962
    52  16 S       63   8 O                                       1.4502937
    64   8 O       65   6 C                                       1.4107345
    51  16 S       66   8 O                                       1.4500205
    67   8 O       68   6 C                                       1.4027330
    24  16 S       69   8 O                                       1.4548629
    70   8 O       71   6 C                                       1.4004181
    65   6 C       72   1 H                                       1.0890608
    65   6 C       73   1 H                                       1.0945564
    65   6 C       74   1 H                                       1.0920188
    68   6 C       75   1 H                                       1.0890083
    68   6 C       76   1 H                                       1.0954659
    68   6 C       77   1 H                                       1.0932785
    71   6 C       78   1 H                                       1.0907938
    71   6 C       79   1 H                                       1.0949815
    71   6 C       80   1 H                                       1.0953361
    62   6 C       81   1 H                                       1.0899990
    62   6 C       82   1 H                                       1.0946591
    62   6 C       83   1 H                                       1.0940747
    58   6 C       84   1 H                                       1.0940921
    58   6 C       85   1 H                                       1.0945560
    58   6 C       86   1 H                                       1.0907077
    56   6 C       87   1 H                                       1.0884978
    56   6 C       88   1 H                                       1.0925956
    56   6 C       89   1 H                                       1.0942633
    41   6 C       90   1 H                                       1.0786692
    43   6 C       91   1 H                                       1.0781883
    47   6 C       92   1 H                                       1.0772958
    31   6 C       93   1 H                                       1.0777447
    45   6 C       94   1 H                                       1.0769356
    27   6 C       95   1 H                                       1.0783763
     1   6 C       96   1 H                                       1.0764932
    19   6 C       97   1 H                                       1.0785727
    21   6 C       98   1 H                                       1.0770090
     5   6 C       99   1 H                                       1.0776127
    17   6 C      100   1 H                                       1.0780234
    15   6 C      101   1 H                                       1.0782683
   102   6 C      103   6 C                                       1.3895939
   103   6 C      104   6 C                                       1.4117831
   104   6 C      105   6 C                                       1.4382944
   105   6 C      106   6 C                                       1.4152003
   102   6 C      107   6 C                                       1.3904977
   106   6 C      107   6 C                                       1.3647213
   108   6 C      109   6 C                                       1.4121683
   109   6 C      110   6 C                                       1.4278021
   105   6 C      111   7 N                                       1.3306481
   110   6 C      111   7 N                                       1.3252588
   113   6 C      114   7 N                                       1.3284054
   109   6 C      115   6 C                                       1.4235213
   114   7 N      115   6 C                                       1.3319120
   115   6 C      116   6 C                                       1.4067778
   116   6 C      117   6 C                                       1.3809698
   110   6 C      118   6 C                                       1.4135323
   117   6 C      118   6 C                                       1.3731058
   112   6 C      119   6 C                                       1.4240892
   119   6 C      120   6 C                                       1.4025730
   120   6 C      121   6 C                                       1.3875335
   113   6 C      122   6 C                                       1.4178943
   121   6 C      122   6 C                                       1.3633447
   103   6 C      123   8 O                                       1.3359438
   119   6 C      124   8 O                                       1.3323761
   128   6 C      129   6 C                                       1.3922221
   129   6 C      130   6 C                                       1.4193249
   131   6 C      132   6 C                                       1.4151150
   128   6 C      133   6 C                                       1.3847828
   132   6 C      133   6 C                                       1.3614712
   134   6 C      135   6 C                                       1.4188599
   135   6 C      136   6 C                                       1.4256538
   131   6 C      137   7 N                                       1.3328819
   136   6 C      137   7 N                                       1.3258184
   139   6 C      140   7 N                                       1.3289098
   135   6 C      141   6 C                                       1.4236209
   140   7 N      141   6 C                                       1.3239368
   141   6 C      142   6 C                                       1.4131424
   142   6 C      143   6 C                                       1.3738531
   136   6 C      144   6 C                                       1.4118106
   143   6 C      144   6 C                                       1.3780403
   138   6 C      145   6 C                                       1.4325014
   145   6 C      146   6 C                                       1.3999330
   146   6 C      147   6 C                                       1.3843524
   139   6 C      148   6 C                                       1.4170683
   147   6 C      148   6 C                                       1.3619496
   129   6 C      149   8 O                                       1.3354493
   145   6 C      150   8 O                                       1.3244121
   123   8 O      154   5 B                                       1.4698623
   124   8 O      154   5 B                                       1.4775521
   149   8 O      154   5 B                                       1.4553401
   150   8 O      154   5 B                                       1.4484334
   127  16 S      155   8 O                                       1.4490427
   156   8 O      157   6 C                                       1.4020514
   158   8 O      159   6 C                                       1.4089622
   126  16 S      160   8 O                                       1.4528536
   151  16 S      161   8 O                                       1.4604200
   162   8 O      163   6 C                                       1.4041299
   153  16 S      164   8 O                                       1.4540657
   165   8 O      166   6 C                                       1.4033645
   152  16 S      167   8 O                                       1.4497994
   168   8 O      169   6 C                                       1.4082470
   125  16 S      170   8 O                                       1.4548655
   171   8 O      172   6 C                                       1.4082009
   166   6 C      173   1 H                                       1.0894148
   166   6 C      174   1 H                                       1.0949553
   166   6 C      175   1 H                                       1.0945895
   169   6 C      176   1 H                                       1.0944909
   169   6 C      177   1 H                                       1.0940574
   169   6 C      178   1 H                                       1.0885545
Note: The following floating-point exceptions are signalling: IEEE_UNDERFLOW_FLAG
normal termination of xtb
   172   6 C      179   1 H                                       1.0927149
   172   6 C      180   1 H                                       1.0884911
   172   6 C      181   1 H                                       1.0941669
   163   6 C      182   1 H                                       1.0902632
   163   6 C      183   1 H                                       1.0946697
   163   6 C      184   1 H                                       1.0941829
   159   6 C      185   1 H                                       1.0951073
   159   6 C      186   1 H                                       1.0936015
   159   6 C      187   1 H                                       1.0914253
   157   6 C      188   1 H                                       1.0896702
   157   6 C      189   1 H                                       1.0951542
   157   6 C      190   1 H                                       1.0948522
   142   6 C      191   1 H                                       1.0790289
   144   6 C      192   1 H                                       1.0786754
   148   6 C      193   1 H                                       1.0774265
   132   6 C      194   1 H                                       1.0758562 (min)
   146   6 C      195   1 H                                       1.0759264
   128   6 C      196   1 H                                       1.0796101
   102   6 C      197   1 H                                       1.0787049
   120   6 C      198   1 H                                       1.0773964
   122   6 C      199   1 H                                       1.0778746
   106   6 C      200   1 H                                       1.0770408
   118   6 C      201   1 H                                       1.0790350
   116   6 C      202   1 H                                       1.0774594

 * 6 distinct bonds (by element types)

   Z      Z             #   av. dist./Å        max./Å        min./Å
   1 H    6 C          60     1.0867588     1.0954659     1.0758562
   6 C    6 C          69     1.4012529     1.4382944     1.3596752
   6 C    7 N          16     1.3281714     1.3328819     1.3239368
   5 B    8 O           8     1.4632611     1.4787132     1.4484334
   6 C    8 O          20     1.3767785     1.4107345     1.3244121
   8 O   16 S          12     1.4537990     1.4638714     1.4490427


optimized geometry written to: xtbopt.mol


           -------------------------------------------------
          | TOTAL ENERGY             -414.652664652739 Eh   |
          | GRADIENT NORM               0.000748493322 Eh/α |
          | HOMO-LUMO GAP               0.063890766374 eV   |
           -------------------------------------------------
########################################################################
[WARNING] Runtime exception occurred
-1- restart_readRestart: Number of electron missmatch in restart file.
########################################################################

------------------------------------------------------------------------
 * finished run on 2024/10/31 at 14:41:49.924     
------------------------------------------------------------------------
 total:
 * wall-time:     0 d,  0 h,  8 min, 18.781 sec
 *  cpu-time:     0 d,  0 h, 28 min, 24.632 sec
 * ratio c/w:     3.418 speedup
 SCF:
 * wall-time:     0 d,  0 h,  0 min,  8.176 sec
 *  cpu-time:     0 d,  0 h,  0 min, 33.361 sec
 * ratio c/w:     4.080 speedup
 ANC optimizer:
 * wall-time:     0 d,  0 h,  8 min, 10.514 sec
 *  cpu-time:     0 d,  0 h, 27 min, 51.163 sec
 * ratio c/w:     3.407 speedup

