      -----------------------------------------------------------      
     |                   =====================                   |     
     |                           x T B                           |     
     |                   =====================                   |     
     |                         S. Grimme                         |     
     |          Mulliken Center for Theoretical Chemistry        |     
     |                    University of Bonn                     |     
      -----------------------------------------------------------      

   * xtb version 6.6.1 (8d0f1dd) compiled by 'runner@Mac-1690902418499.local' on 2023-08-01

   xtb is free software: you can redistribute it and/or modify it under
   the terms of the GNU Lesser General Public License as published by
   the Free Software Foundation, either version 3 of the License, or
   (at your option) any later version.
   
   xtb is distributed in the hope that it will be useful,
   but WITHOUT ANY WARRANTY; without even the implied warranty of
   MERCHANTABILITY or FITNESS FOR A PARTICULAR PURPOSE.  See the
   GNU Lesser General Public License for more details.
   
   Cite this work as:
   * C. Bannwarth, E. Caldeweyher, S. Ehlert, A. Hansen, P. Pracht,
     J. Seibert, S. Spicher, S. Grimme, WIREs Comput. Mol. Sci., 2020, 11,
     e01493. DOI: 10.1002/wcms.1493
   
   for GFN2-xTB:
   * C. Bannwarth, S. Ehlert and S. Grimme., J. Chem. Theory Comput., 2019,
     15, 1652-1671. DOI: 10.1021/acs.jctc.8b01176
   for GFN1-xTB:
   * S. Grimme, C. Bannwarth, P. Shushkov, J. Chem. Theory Comput., 2017,
     13, 1989-2009. DOI: 10.1021/acs.jctc.7b00118
   for GFN0-xTB:
   * P. Pracht, E. Caldeweyher, S. Ehlert, S. Grimme, ChemRxiv, 2019, preprint.
     DOI: 10.26434/chemrxiv.8326202.v1
   for GFN-FF:
   * S. Spicher and S. Grimme, Angew. Chem. Int. Ed., 2020, 59, 15665-15673.
     DOI: 10.1002/anie.202004239
   
   for ALPB and GBSA implicit solvation:
   * S. Ehlert, M. Stahn, S. Spicher, S. Grimme, J. Chem. Theory Comput.,
     2021, 17, 4250-4261. DOI: 10.1021/acs.jctc.1c00471
   
   for DFT-D4:
   * E. Caldeweyher, C. Bannwarth and S. Grimme, J. Chem. Phys., 2017,
     147, 034112. DOI: 10.1063/1.4993215
   * E. Caldeweyher, S. Ehlert, A. Hansen, H. Neugebauer, S. Spicher,
     C. Bannwarth and S. Grimme, J. Chem. Phys., 2019, 150, 154122.
     DOI: 10.1063/1.5090222
   * E. Caldeweyher, J.-M. Mewes, S. Ehlert and S. Grimme, Phys. Chem. Chem. Phys.
     2020, 22, 8499-8512. DOI: 10.1039/D0CP00502A
   
   for sTDA-xTB:
   * S. Grimme and C. Bannwarth, J. Chem. Phys., 2016, 145, 054103.
     DOI: 10.1063/1.4959605
   
   in the mass-spec context:
   * V. Asgeirsson, C. Bauer and S. Grimme, Chem. Sci., 2017, 8, 4879.
     DOI: 10.1039/c7sc00601b
   * J. Koopman and S. Grimme, ACS Omega 2019, 4, 12, 15120-15133.
     DOI: 10.1021/acsomega.9b02011
   
   for metadynamics refer to:
   * S. Grimme, J. Chem. Theory Comput., 2019, 155, 2847-2862
     DOI: 10.1021/acs.jctc.9b00143
   
   for SPH calculations refer to:
   * S. Spicher and S. Grimme, J. Chem. Theory Comput., 2021, 17, 1701-1714
     DOI: 10.1021/acs.jctc.0c01306
   
   with help from (in alphabetical order)
   P. Atkinson, C. Bannwarth, F. Bohle, G. Brandenburg, E. Caldeweyher
   M. Checinski, S. Dohm, S. Ehlert, S. Ehrlich, I. Gerasimov, C. Hölzer
   A. Katbashev, J. Koopman, C. Lavigne, S. Lehtola, F. März, M. Müller,
   F. Musil, H. Neugebauer, J. Pisarek, C. Plett, P. Pracht, F. Pultar,
   J. Seibert, P. Shushkov, S. Spicher, M. Stahn, M. Steiner, T. Strunk,
   J. Stückrath, T. Rose, and J. Unsleber
   
 * started run on 2024/10/31 at 14:41:49.969     

           -------------------------------------------------
          |                Calculation Setup                |
           -------------------------------------------------

          program call               : xtb stacked_dimer_Base1SO2Me.mol --opt --gfn2 --chrg 1 --uhf 0 --tight
          coordinate file            : stacked_dimer_Base1SO2Me.mol
          omp threads                :                     8

   ID    Z sym.   atoms
    1    6 C      1-9, 11, 12, 14-21, 27-35, 37, 38, 40-47, 56, 58, 62, 65,
                  68, 71, 102-110, 112, 113, 115-122, 128-136, 138, 139,
                  141-148, 157, 159, 163, 166, 169, 172
    2    7 N      10, 13, 36, 39, 111, 114, 137, 140
    3    8 O      22, 23, 48, 49, 54, 55, 57, 59-61, 63, 64, 66, 67, 69, 70,
                  123, 124, 149, 150, 155, 156, 158, 160-162, 164, 165, 167,
                  168, 170, 171
    4   16 S      24-26, 50-52, 125-127, 151-153
    5    5 B      53, 154
    6    1 H      72-101, 173-202
########################################################################
[WARNING] Please study the warnings concerning your input carefully
-1- prog_main_parseArguments: Unknown option '--tight' provided
########################################################################

           -------------------------------------------------
          |                 G F N 2 - x T B                 |
           -------------------------------------------------

        Reference                      10.1021/acs.jctc.8b01176
      * Hamiltonian:
        H0-scaling (s, p, d)           1.850000    2.230000    2.230000
        zeta-weighting                 0.500000
      * Dispersion:
        s8                             2.700000
        a1                             0.520000
        a2                             5.000000
        s9                             5.000000
      * Repulsion:
        kExp                           1.500000    1.000000
        rExp                           1.000000
      * Coulomb:
        alpha                          2.000000
        third order                    shell-resolved
        anisotropic                    true
        a3                             3.000000
        a5                             4.000000
        cn-shift                       1.200000
        cn-exp                         4.000000
        max-rad                        5.000000

q/qsh data taken from xtbrestart
CAMM data taken from xtbrestart

          ...................................................
          :                      SETUP                      :
          :.................................................:
          :  # basis functions                 700          :
          :  # atomic orbitals                 688          :
          :  # shells                          356          :
          :  # electrons                       721          :
          :  max. iterations                   250          :
          :  Hamiltonian                  GFN2-xTB          :
          :  restarted?                       true          :
          :  GBSA solvation                  false          :
          :  PC potential                    false          :
          :  electronic temp.          300.0000000     K    :
          :  accuracy                    1.0000000          :
          :  -> integral cutoff          0.2500000E+02      :
          :  -> integral neglect         0.1000000E-07      :
          :  -> SCF convergence          0.1000000E-05 Eh   :
          :  -> wf. convergence          0.1000000E-03 e    :
          :  Broyden damping             0.4000000          :
          ...................................................

 iter      E             dE          RMSdq      gap      omega  full diag
   1   -416.7007411 -0.416701E+03  0.315E+00    0.30       0.0  T
   2   -407.2965083  0.940423E+01  0.401E+00    0.11       1.0  T
   3   -416.2352316 -0.893872E+01  0.212E+00    0.10       1.0  T
   4   -415.8057749  0.429457E+00  0.205E+00    0.00       1.0  T
   5   -416.7120979 -0.906323E+00  0.139E+00    0.16       1.0  T
   6   -416.8771478 -0.165050E+00  0.126E+00    0.06       1.0  T
   7   -417.6520140 -0.774866E+00  0.824E-01    0.04       1.0  T
   8   -417.8660883 -0.214074E+00  0.705E-01    0.12       1.0  T
   9   -417.7100076  0.156081E+00  0.758E-01    0.10       1.0  T
  10   -417.9092528 -0.199245E+00  0.615E-01    0.09       1.0  T
  11   -417.9792554 -0.700025E-01  0.415E-01    0.04       1.0  T
  12   -417.9702308  0.902459E-02  0.456E-01    0.06       1.0  T
  13   -417.9979480 -0.277172E-01  0.345E-01    0.05       1.0  T
  14   -417.9899148  0.803326E-02  0.310E-01    0.00       1.0  T
  15   -418.0030686 -0.131538E-01  0.231E-01    0.03       1.0  T
  16   -418.0241491 -0.210805E-01  0.137E-01    0.00       1.0  T
  17   -418.0094246  0.147246E-01  0.187E-01    0.00       1.0  T
  18   -418.0270111 -0.175866E-01  0.123E-01    0.01       1.0  T
  19   -418.0323366 -0.532549E-02  0.462E-02    0.01       1.0  T
  20   -418.0325262 -0.189530E-03  0.319E-02    0.01       1.0  T
  21   -418.0326933 -0.167143E-03  0.283E-02    0.00       1.0  T
  22   -418.0330688 -0.375526E-03  0.128E-02    0.01       1.0  T
  23   -418.0331139 -0.450480E-04  0.906E-03    0.01       1.0  T
  24   -418.0331202 -0.634350E-05  0.667E-03    0.01       1.1  T
  25   -418.0331396 -0.193314E-04  0.281E-03    0.01       2.5  T
  26   -418.0331425 -0.289466E-05  0.195E-03    0.01       3.6  T
  27   -418.0331446 -0.215566E-05  0.868E-04    0.01       8.1  T
  28   -418.0331445  0.144101E-06  0.999E-04    0.01       7.0  T
  29   -418.0331450 -0.569044E-06  0.203E-04    0.01      34.6  T

   *** convergence criteria satisfied after 29 iterations ***

         #    Occupation            Energy/Eh            Energy/eV
      -------------------------------------------------------------
         1        2.0000           -0.8892590             -24.1980
       ...           ...                  ...                  ...
       355        2.0000           -0.4609367             -12.5427
       356        1.9997           -0.4586268             -12.4799
       357        1.9996           -0.4583231             -12.4716
       358        1.9990           -0.4573557             -12.4453
       359        1.9987           -0.4570812             -12.4378
       360        1.5914           -0.4513063             -12.2807
       361        0.6265           -0.4489798             -12.2174 (HOMO)
       362        0.5093           -0.4486720             -12.2090 (LUMO)
       363        0.1617           -0.4472950             -12.1715
       364        0.1140           -0.4469279             -12.1615
       365                         -0.3970465             -10.8042
       366                         -0.3859174             -10.5013
       ...                                ...                  ...
       688                          1.8746988              51.0132
      -------------------------------------------------------------
                  HL-Gap            0.0003078 Eh            0.0084 eV
             Fermi-level           -0.4498398 Eh          -12.2408 eV

 SCC (total)                   0 d,  0 h,  0 min,  5.780 sec
 SCC setup                      ...        0 min,  0.001 sec (  0.020%)
 Dispersion                     ...        0 min,  0.004 sec (  0.062%)
 classical contributions        ...        0 min,  0.001 sec (  0.013%)
 integral evaluation            ...        0 min,  0.023 sec (  0.398%)
 iterations                     ...        0 min,  5.538 sec ( 95.810%)
 molecular gradient             ...        0 min,  0.183 sec (  3.174%)
 printout                       ...        0 min,  0.030 sec (  0.523%)

         :::::::::::::::::::::::::::::::::::::::::::::::::::::
         ::                     SUMMARY                     ::
         :::::::::::::::::::::::::::::::::::::::::::::::::::::
         :: total energy            -413.255571997446 Eh    ::
         :: gradient norm              0.692094848671 Eh/a0 ::
         :: HOMO-LUMO gap              0.008375791352 eV    ::
         ::.................................................::
         :: SCC energy              -418.033145039834 Eh    ::
         :: -> isotropic ES            0.977853629215 Eh    ::
         :: -> anisotropic ES         -0.040139151934 Eh    ::
         :: -> anisotropic XC          0.124799209702 Eh    ::
         :: -> dispersion             -0.390417405529 Eh    ::
         :: repulsion energy           4.749005095876 Eh    ::
         :: add. restraining           0.000000000000 Eh    ::
         :: total charge               1.000002955341 e     ::
         :::::::::::::::::::::::::::::::::::::::::::::::::::::

      ----------------------------------------------------------- 
     |                   =====================                   |
     |                        A N C O P T                        |
     |                   =====================                   |
     |               Approximate Normal Coordinate               |
     |                Rational Function Optimizer                |
      ----------------------------------------------------------- 

          ...................................................
          :                      SETUP                      :
          :.................................................:
          :   optimization level            normal          :
          :   max. optcycles                   606          :
          :   ANC micro-cycles                  20          :
          :   degrees of freedom               600          :
          :.................................................:
          :   RF solver                   davidson          :
          :   write xtbopt.log                true          :
          :   linear?                        false          :
          :   energy convergence         0.5000000E-05 Eh   :
          :   grad. convergence          0.1000000E-02 Eh/α :
          :   maxmium RF displ.          1.0000000          :
          :   Hlow (freq-cutoff)         0.1000000E-01      :
          :   Hmax (freq-cutoff)         5.0000000          :
          :   S6 in model hess.         20.0000000          :
          ...................................................

generating ANC from model Hessian ...
Using Lindh-Hessian (1995)
 Shifting diagonal of input Hessian by    1.0018364583715458E-002
 Lowest  eigenvalues of input Hessian
    0.010000    0.000000    0.000000    0.000000    0.000000    0.000000
    0.000000    0.010069    0.010090    0.010131    0.010136    0.010205
    0.010262    0.010322    0.010361    0.010382    0.010418    0.010454
 Highest eigenvalues
    2.668476    2.668527    2.674702    2.674721    2.674722    2.674931


........................................................................
.............................. CYCLE    1 ..............................
........................................................................

 iter      E             dE          RMSdq      gap      omega  full diag
   1   -418.0331450 -0.418033E+03  0.299E-04    0.01       0.0  T
   2   -418.0331286  0.164345E-04  0.496E-03    0.01       1.4  T
   3   -418.0331450 -0.164306E-04  0.324E-04    0.01      21.7  T
   4   -418.0331450 -0.198676E-07  0.243E-04    0.01      29.0  T
   5   -418.0331450  0.259900E-07  0.302E-04    0.01      23.3  T
     SCC iter.                  ...        0 min,  0.778 sec
     gradient                   ...        0 min,  0.183 sec
 * total energy  :  -413.2555720 Eh     change        0.3988055E-07 Eh
   gradient norm :     0.6920845 Eh/α   predicted     0.0000000E+00 (-100.00%)
   displ. norm   :     0.5210963 α      lambda       -0.2891953E+00
   maximum displ.:     0.1875349 α      in ANC's #579, #484, #226, ...

........................................................................
.............................. CYCLE    2 ..............................
........................................................................

 iter      E             dE          RMSdq      gap      omega  full diag
   1   -418.0606657 -0.418061E+03  0.452E-01    0.07       0.0  T
   2   -415.5657351  0.249493E+01  0.176E+00    0.06       1.0  T
   3   -418.1225545 -0.255682E+01  0.373E-01    0.07       1.0  T
   4   -417.9881372  0.134417E+00  0.501E-01    0.03       1.0  T
   5   -418.0582472 -0.701101E-01  0.383E-01    0.09       1.0  T
   6   -418.0860497 -0.278025E-01  0.378E-01    0.10       1.0  T
   7   -418.0881069 -0.205715E-02  0.406E-01    0.11       1.0  T
   8   -418.1188715 -0.307646E-01  0.258E-01    0.05       1.0  T
   9   -418.1457483 -0.268768E-01  0.194E-01    0.01       1.0  T
  10   -418.1593333 -0.135849E-01  0.929E-02    0.02       1.0  T
  11   -418.1597002 -0.366939E-03  0.988E-02    0.02       1.0  T
  12   -418.1605025 -0.802312E-03  0.825E-02    0.03       1.0  T
  13   -418.1600691  0.433391E-03  0.797E-02    0.03       1.0  T
  14   -418.1616417 -0.157260E-02  0.539E-02    0.03       1.0  T
  15   -418.1624132 -0.771434E-03  0.278E-02    0.02       1.0  T
  16   -418.1624566 -0.434519E-04  0.199E-02    0.02       1.0  T
  17   -418.1625346 -0.780159E-04  0.142E-02    0.02       1.0  T
  18   -418.1625918 -0.571566E-04  0.747E-03    0.02       1.0  T
  19   -418.1626076 -0.158423E-04  0.311E-03    0.02       2.3  T
  20   -418.1626105 -0.289482E-05  0.193E-03    0.02       3.6  T
  21   -418.1626111 -0.594538E-06  0.106E-03    0.02       6.7  T
  22   -418.1626115 -0.373934E-06  0.449E-04    0.02      15.7  T
  23   -418.1626115  0.161926E-07  0.362E-04    0.02      19.5  T
     SCC iter.                  ...        0 min,  4.279 sec
     gradient                   ...        0 min,  0.177 sec
 * total energy  :  -413.4639575 Eh     change       -0.2083856E+00 Eh
   gradient norm :     0.3293390 Eh/α   predicted    -0.1839006E+00 ( -11.75%)
   displ. norm   :     0.5936101 α      lambda       -0.1533336E+00
   maximum displ.:     0.1311784 α      in ANC's #579, #484, #183, ...

........................................................................
.............................. CYCLE    3 ..............................
........................................................................

 iter      E             dE          RMSdq      gap      omega  full diag
   1   -418.2446260 -0.418245E+03  0.246E-01    0.01       0.0  T
   2   -417.4427279  0.801898E+00  0.994E-01    0.06       1.0  T
   3   -418.2165133 -0.773785E+00  0.319E-01    0.08       1.0  T
   4   -418.1082373  0.108276E+00  0.477E-01    0.11       1.0  T
   5   -418.1822702 -0.740329E-01  0.413E-01    0.12       1.0  T
   6   -418.2516438 -0.693736E-01  0.181E-01    0.01       1.0  T
   7   -418.2537904 -0.214661E-02  0.145E-01    0.01       1.0  T
   8   -418.2586328 -0.484241E-02  0.117E-01    0.01       1.0  T
   9   -418.2613582 -0.272534E-02  0.782E-02    0.01       1.0  T
  10   -418.2636753 -0.231715E-02  0.582E-02    0.03       1.0  T
  11   -418.2638661 -0.190744E-03  0.500E-02    0.03       1.0  T
  12   -418.2640961 -0.230002E-03  0.379E-02    0.03       1.0  T
  13   -418.2647607 -0.664589E-03  0.189E-02    0.02       1.0  T
  14   -418.2648220 -0.613126E-04  0.145E-02    0.02       1.0  T
  15   -418.2648919 -0.699333E-04  0.958E-03    0.02       1.0  T
  16   -418.2649154 -0.234918E-04  0.614E-03    0.02       1.1  T
  17   -418.2649261 -0.107113E-04  0.267E-03    0.02       2.6  T
  18   -418.2649271 -0.962528E-06  0.182E-03    0.02       3.9  T
  19   -418.2649266  0.519729E-06  0.165E-03    0.02       4.3  T
  20   -418.2649278 -0.121876E-05  0.836E-04    0.02       8.4  T
  21   -418.2649280 -0.238169E-06  0.277E-04    0.02      25.4  T
  22   -418.2649280 -0.304212E-07  0.141E-04    0.02      50.0  T
     SCC iter.                  ...        0 min,  4.034 sec
     gradient                   ...        0 min,  0.175 sec
 * total energy  :  -413.5856400 Eh     change       -0.1216824E+00 Eh
   gradient norm :     0.1914911 Eh/α   predicted    -0.1036822E+00 ( -14.79%)
   displ. norm   :     0.6240635 α      lambda       -0.9573602E-01
   maximum displ.:     0.1443197 α      in ANC's #579, #183, #150, ...

........................................................................
.............................. CYCLE    4 ..............................
........................................................................

 iter      E             dE          RMSdq      gap      omega  full diag
   1   -418.3251747 -0.418325E+03  0.180E-01    0.01       0.0  T
   2   -418.2497527  0.754220E-01  0.350E-01    0.04       1.0  T
   3   -418.2945542 -0.448014E-01  0.264E-01    0.07       1.0  T
   4   -418.2570024  0.375518E-01  0.328E-01    0.10       1.0  T
   5   -418.2751177 -0.181153E-01  0.339E-01    0.08       1.0  T
   6   -418.3149635 -0.398457E-01  0.177E-01    0.02       1.0  T
   7   -418.3257604 -0.107969E-01  0.857E-02    0.01       1.0  T
   8   -418.3277784 -0.201802E-02  0.686E-02    0.02       1.0  T
   9   -418.3292766 -0.149812E-02  0.384E-02    0.03       1.0  T
  10   -418.3292175  0.590351E-04  0.345E-02    0.03       1.0  T
  11   -418.3297380 -0.520500E-03  0.154E-02    0.02       1.0  T
  12   -418.3297380 -0.471914E-08  0.110E-02    0.02       1.0  T
  13   -418.3297826 -0.445556E-04  0.870E-03    0.02       1.0  T
  14   -418.3297857 -0.312246E-05  0.729E-03    0.02       1.0  T
  15   -418.3298045 -0.187695E-04  0.345E-03    0.02       2.0  T
  16   -418.3298092 -0.473222E-05  0.180E-03    0.02       3.9  T
  17   -418.3298095 -0.342770E-06  0.149E-03    0.02       4.7  T
  18   -418.3298097 -0.158176E-06  0.110E-03    0.02       6.4  T
  19   -418.3298103 -0.549530E-06  0.244E-04    0.02      28.8  T
  20   -418.3298103 -0.129721E-07  0.126E-04    0.02      55.6  T
     SCC iter.                  ...        0 min,  3.137 sec
     gradient                   ...        0 min,  0.181 sec
 * total energy  :  -413.6600860 Eh     change       -0.7444604E-01 Eh
   gradient norm :     0.1150426 Eh/α   predicted    -0.6651051E-01 ( -10.66%)
   displ. norm   :     0.6420307 α      lambda       -0.5569044E-01
   maximum displ.:     0.1426679 α      in ANC's #579, #150, #183, ...

........................................................................
.............................. CYCLE    5 ..............................
........................................................................

 iter      E             dE          RMSdq      gap      omega  full diag
   1   -418.3579766 -0.418358E+03  0.168E-01    0.01       0.0  T
   2   -418.1207977  0.237179E+00  0.614E-01    0.01       1.0  T
   3   -418.3459503 -0.225153E+00  0.217E-01    0.01       1.0  T
   4   -418.3435521  0.239818E-02  0.232E-01    0.04       1.0  T
   5   -418.3617950 -0.182428E-01  0.117E-01    0.01       1.0  T
   6   -418.3466032  0.151918E-01  0.180E-01    0.01       1.0  T
   7   -418.3376868  0.891639E-02  0.212E-01    0.08       1.0  T
   8   -418.3657100 -0.280232E-01  0.469E-02    0.01       1.0  T
   9   -418.3660860 -0.375987E-03  0.398E-02    0.02       1.0  T
  10   -418.3661388 -0.527915E-04  0.355E-02    0.03       1.0  T
  11   -418.3667430 -0.604239E-03  0.164E-02    0.02       1.0  T
  12   -418.3667664 -0.233569E-04  0.125E-02    0.02       1.0  T
  13   -418.3668108 -0.444022E-04  0.764E-03    0.02       1.0  T
  14   -418.3668245 -0.137191E-04  0.549E-03    0.02       1.3  T
  15   -418.3668300 -0.554742E-05  0.397E-03    0.02       1.8  T
  16   -418.3668339 -0.388405E-05  0.248E-03    0.02       2.8  T
  17   -418.3668364 -0.247201E-05  0.791E-04    0.02       8.9  T
  18   -418.3668362  0.173785E-06  0.842E-04    0.02       8.4  T
  19   -418.3668365 -0.302119E-06  0.312E-04    0.02      22.5  T
     SCC iter.                  ...        0 min,  3.096 sec
     gradient                   ...        0 min,  0.200 sec
 * total energy  :  -413.7043184 Eh     change       -0.4423239E-01 Eh
   gradient norm :     0.0805501 Eh/α   predicted    -0.3932333E-01 ( -11.10%)
   displ. norm   :     0.6720445 α      lambda       -0.3619208E-01
   maximum displ.:     0.1461404 α      in ANC's #150, #579, #183, ...

........................................................................
.............................. CYCLE    6 ..............................
........................................................................

 iter      E             dE          RMSdq      gap      omega  full diag
   1   -418.3774575 -0.418377E+03  0.181E-01    0.01       0.0  T
   2   -417.9889319  0.388526E+00  0.785E-01    0.04       1.0  T
   3   -418.3656281 -0.376696E+00  0.241E-01    0.03       1.0  T
   4   -418.3444861  0.211420E-01  0.297E-01    0.07       1.0  T
   5   -418.3775362 -0.330501E-01  0.150E-01    0.03       1.0  T
   6   -418.3428913  0.346449E-01  0.286E-01    0.10       1.0  T
   7   -418.3842437 -0.413524E-01  0.111E-01    0.02       1.0  T
   8   -418.3862546 -0.201093E-02  0.787E-02    0.00       1.0  T
   9   -418.3891365 -0.288189E-02  0.461E-02    0.01       1.0  T
  10   -418.3896589 -0.522371E-03  0.275E-02    0.02       1.0  T
  11   -418.3900805 -0.421575E-03  0.106E-02    0.02       1.0  T
  12   -418.3900780  0.243466E-05  0.942E-03    0.01       1.0  T
  13   -418.3901039 -0.258274E-04  0.574E-03    0.02       1.2  T
  14   -418.3901127 -0.885339E-05  0.385E-03    0.02       1.8  T
  15   -418.3901166 -0.388404E-05  0.293E-03    0.02       2.4  T
  16   -418.3901178 -0.122459E-05  0.216E-03    0.02       3.3  T
  17   -418.3901187 -0.826306E-06  0.116E-03    0.02       6.1  T
  18   -418.3901189 -0.281809E-06  0.443E-04    0.02      15.9  T
  19   -418.3901190 -0.654234E-07  0.159E-04    0.02      44.3  T
     SCC iter.                  ...        0 min,  3.019 sec
     gradient                   ...        0 min,  0.179 sec
 * total energy  :  -413.7337791 Eh     change       -0.2946069E-01 Eh
   gradient norm :     0.0615309 Eh/α   predicted    -0.2626902E-01 ( -10.83%)
   displ. norm   :     0.6996786 α      lambda       -0.2554026E-01
   maximum displ.:     0.1397271 α      in ANC's #150, #579, #57, ...

........................................................................
.............................. CYCLE    7 ..............................
........................................................................

 iter      E             dE          RMSdq      gap      omega  full diag
   1   -418.3963716 -0.418396E+03  0.175E-01    0.02       0.0  T
   2   -418.0741239  0.322248E+00  0.716E-01    0.05       1.0  T
   3   -418.3779201 -0.303796E+00  0.258E-01    0.06       1.0  T
   4   -418.3684041  0.951600E-02  0.243E-01    0.01       1.0  T
   5   -418.3585319  0.987222E-02  0.257E-01    0.02       1.0  T
   6   -418.3877671 -0.292353E-01  0.175E-01    0.04       1.0  T
   7   -418.3858053  0.196189E-02  0.208E-01    0.06       1.0  T
   8   -418.4011633 -0.153581E-01  0.985E-02    0.02       1.0  T
   9   -418.4056504 -0.448707E-02  0.522E-02    0.02       1.0  T
  10   -418.4056874 -0.369776E-04  0.444E-02    0.01       1.0  T
  11   -418.4062521 -0.564698E-03  0.314E-02    0.01       1.0  T
  12   -418.4062407  0.113610E-04  0.282E-02    0.01       1.0  T
  13   -418.4065229 -0.282177E-03  0.176E-02    0.01       1.0  T
  14   -418.4066096 -0.867120E-04  0.112E-02    0.01       1.0  T
  15   -418.4066344 -0.248034E-04  0.739E-03    0.01       1.0  T
  16   -418.4066413 -0.689006E-05  0.531E-03    0.01       1.3  T
  17   -418.4066451 -0.383756E-05  0.321E-03    0.01       2.2  T
  18   -418.4066472 -0.203078E-05  0.176E-03    0.01       4.0  T
  19   -418.4066486 -0.138071E-05  0.535E-04    0.01      13.1  T
  20   -418.4066486 -0.580953E-07  0.279E-04    0.01      25.2  T
  21   -418.4066486 -0.325015E-07  0.838E-05    0.01      83.9  T
     SCC iter.                  ...        0 min,  3.469 sec
     gradient                   ...        0 min,  0.182 sec
 * total energy  :  -413.7548853 Eh     change       -0.2110624E-01 Eh
   gradient norm :     0.0484794 Eh/α   predicted    -0.1902176E-01 (  -9.88%)
   displ. norm   :     0.7188846 α      lambda       -0.1865430E-01
   maximum displ.:     0.1713016 α      in ANC's #57, #74, #36, ...

........................................................................
.............................. CYCLE    8 ..............................
........................................................................

 iter      E             dE          RMSdq      gap      omega  full diag
   1   -418.4128116 -0.418413E+03  0.152E-01    0.02       0.0  T
   2   -418.3097115  0.103100E+00  0.417E-01    0.00       1.0  T
   3   -418.3835675 -0.738561E-01  0.261E-01    0.07       1.0  T
   4   -418.3936949 -0.101273E-01  0.198E-01    0.03       1.0  T
   5   -418.3405508  0.531441E-01  0.353E-01    0.01       1.0  T
   6   -418.4077681 -0.672173E-01  0.134E-01    0.02       1.0  T
   7   -418.4123922 -0.462416E-02  0.117E-01    0.01       1.0  T
   8   -418.4143781 -0.198590E-02  0.884E-02    0.03       1.0  T
   9   -418.4164372 -0.205907E-02  0.669E-02    0.01       1.0  T
  10   -418.4172829 -0.845699E-03  0.486E-02    0.01       1.0  T
  11   -418.4176383 -0.355451E-03  0.399E-02    0.01       1.0  T
  12   -418.4179702 -0.331837E-03  0.304E-02    0.01       1.0  T
  13   -418.4181341 -0.163916E-03  0.235E-02    0.01       1.0  T
  14   -418.4183388 -0.204722E-03  0.144E-02    0.01       1.0  T
  15   -418.4183952 -0.563518E-04  0.712E-03    0.01       1.0  T
  16   -418.4184159 -0.206919E-04  0.310E-03    0.01       2.3  T
  17   -418.4184184 -0.258275E-05  0.175E-03    0.01       4.0  T
  18   -418.4184197 -0.126520E-05  0.936E-04    0.01       7.5  T
  19   -418.4184198 -0.457916E-07  0.845E-04    0.01       8.3  T
  20   -418.4184200 -0.258067E-06  0.353E-04    0.01      19.9  T
     SCC iter.                  ...        0 min,  3.448 sec
     gradient                   ...        0 min,  0.179 sec
 * total energy  :  -413.7703003 Eh     change       -0.1541499E-01 Eh
   gradient norm :     0.0356034 Eh/α   predicted    -0.1414739E-01 (  -8.22%)
   displ. norm   :     0.7208409 α      lambda       -0.1304892E-01
   maximum displ.:     0.2097402 α      in ANC's #57, #36, #58, ...

........................................................................
.............................. CYCLE    9 ..............................
........................................................................

 iter      E             dE          RMSdq      gap      omega  full diag
   1   -418.4232256 -0.418423E+03  0.130E-01    0.01       0.0  T
   2   -418.3943664  0.288591E-01  0.243E-01    0.02       1.0  T
   3   -418.3863632  0.800324E-02  0.239E-01    0.04       1.0  T
   4   -418.4108422 -0.244790E-01  0.167E-01    0.02       1.0  T
   5   -418.4119506 -0.110836E-02  0.177E-01    0.05       1.0  T
   6   -418.4146305 -0.267993E-02  0.145E-01    0.03       1.0  T
   7   -418.4191725 -0.454203E-02  0.107E-01    0.04       1.0  T
   8   -418.4252030 -0.603042E-02  0.364E-02    0.00       1.0  T
   9   -418.4250627  0.140255E-03  0.341E-02    0.00       1.0  T
  10   -418.4253256 -0.262850E-03  0.264E-02    0.01       1.0  T
  11   -418.4255419 -0.216327E-03  0.150E-02    0.00       1.0  T
  12   -418.4255850 -0.431455E-04  0.891E-03    0.00       1.0  T
  13   -418.4256191 -0.340974E-04  0.331E-03    0.00       2.1  T
  14   -418.4256224 -0.327904E-05  0.211E-03    0.00       3.3  T
  15   -418.4256241 -0.165127E-05  0.649E-04    0.00      10.8  T
  16   -418.4256242 -0.103090E-06  0.388E-04    0.00      18.1  T
  17   -418.4256242 -0.217381E-07  0.262E-04    0.00      26.9  T
     SCC iter.                  ...        0 min,  2.808 sec
     gradient                   ...        0 min,  0.202 sec
 * total energy  :  -413.7808453 Eh     change       -0.1054499E-01 Eh
   gradient norm :     0.0243699 Eh/α   predicted    -0.9914650E-02 (  -5.98%)
   displ. norm   :     0.6993586 α      lambda       -0.8265327E-02
   maximum displ.:     0.2431484 α      in ANC's #57, #36, #58, ...

........................................................................
.............................. CYCLE   10 ..............................
........................................................................

 iter      E             dE          RMSdq      gap      omega  full diag
   1   -418.4266303 -0.418427E+03  0.116E-01    0.01       0.0  T
   2   -418.4054472  0.211832E-01  0.214E-01    0.01       1.0  T
   3   -418.4081449 -0.269779E-02  0.175E-01    0.00       1.0  T
   4   -418.3924366  0.157083E-01  0.233E-01    0.02       1.0  T
   5   -418.4192474 -0.268108E-01  0.129E-01    0.05       1.0  T
   6   -418.4172837  0.196371E-02  0.136E-01    0.04       1.0  T
   7   -418.4253573 -0.807356E-02  0.683E-02    0.02       1.0  T
   8   -418.4276203 -0.226297E-02  0.286E-02    0.01       1.0  T
   9   -418.4275176  0.102693E-03  0.308E-02    0.01       1.0  T
  10   -418.4278972 -0.379625E-03  0.158E-02    0.01       1.0  T
  11   -418.4279770 -0.798462E-04  0.980E-03    0.00       1.0  T
  12   -418.4279950 -0.179511E-04  0.605E-03    0.00       1.2  T
  13   -418.4280112 -0.162554E-04  0.175E-03    0.01       4.0  T
  14   -418.4280108  0.441888E-06  0.170E-03    0.01       4.1  T
  15   -418.4280121 -0.133023E-05  0.699E-04    0.01      10.1  T
  16   -418.4280122 -0.107679E-06  0.343E-04    0.01      20.5  T
  17   -418.4280123 -0.322494E-07  0.193E-04    0.01      36.4  T
     SCC iter.                  ...        0 min,  2.920 sec
     gradient                   ...        0 min,  0.180 sec
 * total energy  :  -413.7874751 Eh     change       -0.6629788E-02 Eh
   gradient norm :     0.0209274 Eh/α   predicted    -0.6153963E-02 (  -7.18%)
   displ. norm   :     0.6815651 α      lambda       -0.5392304E-02
   maximum displ.:     0.2642270 α      in ANC's #57, #36, #58, ...

........................................................................
.............................. CYCLE   11 ..............................
........................................................................

 iter      E             dE          RMSdq      gap      omega  full diag
   1   -418.4273417 -0.418427E+03  0.108E-01    0.01       0.0  T
   2   -418.4076602  0.196815E-01  0.211E-01    0.00       1.0  T
   3   -418.4181794 -0.105192E-01  0.145E-01    0.02       1.0  T
   4   -418.3791283  0.390511E-01  0.303E-01    0.03       1.0  T
   5   -418.4092190 -0.300908E-01  0.176E-01    0.03       1.0  T
   6   -418.4181348 -0.891579E-02  0.125E-01    0.04       1.0  T
   7   -418.4264389 -0.830404E-02  0.712E-02    0.01       1.0  T
   8   -418.4273964 -0.957515E-03  0.478E-02    0.01       1.0  T
   9   -418.4277778 -0.381427E-03  0.370E-02    0.01       1.0  T
  10   -418.4283357 -0.557880E-03  0.178E-02    0.01       1.0  T
  11   -418.4284016 -0.659283E-04  0.110E-02    0.00       1.0  T
  12   -418.4284380 -0.363444E-04  0.679E-03    0.00       1.0  T
  13   -418.4284547 -0.167186E-04  0.270E-03    0.01       2.6  T
  14   -418.4284568 -0.210701E-05  0.137E-03    0.01       5.1  T
  15   -418.4284575 -0.675098E-06  0.793E-04    0.01       8.9  T
  16   -418.4284576 -0.115015E-06  0.395E-04    0.01      17.8  T
     SCC iter.                  ...        0 min,  2.997 sec
     gradient                   ...        0 min,  0.177 sec
 * total energy  :  -413.7918514 Eh     change       -0.4376337E-02 Eh
   gradient norm :     0.0191802 Eh/α   predicted    -0.3948609E-02 (  -9.77%)
   displ. norm   :     0.6798316 α      lambda       -0.3873440E-02
   maximum displ.:     0.2757204 α      in ANC's #57, #36, #39, ...

........................................................................
.............................. CYCLE   12 ..............................
........................................................................

 iter      E             dE          RMSdq      gap      omega  full diag
   1   -418.4279105 -0.418428E+03  0.102E-01    0.01       0.0  T
   2   -418.4076546  0.202559E-01  0.218E-01    0.02       1.0  T
   3   -418.4238366 -0.161820E-01  0.113E-01    0.02       1.0  T
   4   -418.2854612  0.138375E+00  0.490E-01    0.04       1.0  T
   5   -418.3922689 -0.106808E+00  0.246E-01    0.08       1.0  T
   6   -418.4254912 -0.332222E-01  0.834E-02    0.01       1.0  T
   7   -418.4218889  0.360229E-02  0.108E-01    0.01       1.0  T
   8   -418.4268374 -0.494854E-02  0.629E-02    0.02       1.0  T
   9   -418.4273663 -0.528840E-03  0.509E-02    0.01       1.0  T
  10   -418.4281720 -0.805693E-03  0.369E-02    0.01       1.0  T
  11   -418.4283719 -0.199964E-03  0.300E-02    0.01       1.0  T
  12   -418.4285437 -0.171782E-03  0.229E-02    0.01       1.0  T
  13   -418.4287202 -0.176509E-03  0.144E-02    0.01       1.0  T
  14   -418.4288182 -0.980044E-04  0.528E-03    0.01       1.3  T
  15   -418.4288318 -0.135996E-04  0.220E-03    0.01       3.2  T
  16   -418.4288331 -0.123683E-05  0.131E-03    0.01       5.4  T
  17   -418.4288337 -0.595929E-06  0.101E-03    0.01       6.9  T
  18   -418.4288340 -0.308650E-06  0.568E-04    0.01      12.4  T
  19   -418.4288341 -0.109990E-06  0.332E-04    0.01      21.2  T
     SCC iter.                  ...        0 min,  3.044 sec
     gradient                   ...        0 min,  0.190 sec
 * total energy  :  -413.7950309 Eh     change       -0.3179465E-02 Eh
   gradient norm :     0.0173545 Eh/α   predicted    -0.2831835E-02 ( -10.93%)
   displ. norm   :     0.6799992 α      lambda       -0.2978946E-02
   maximum displ.:     0.2792586 α      in ANC's #36, #57, #39, ...

........................................................................
.............................. CYCLE   13 ..............................
........................................................................

 iter      E             dE          RMSdq      gap      omega  full diag
   1   -418.4292332 -0.418429E+03  0.969E-02    0.01       0.0  T
   2   -418.4014838  0.277494E-01  0.247E-01    0.05       1.0  T
   3   -418.4180227 -0.165389E-01  0.138E-01    0.03       1.0  T
   4   -418.3484911  0.695315E-01  0.354E-01    0.02       1.0  T
   5   -418.4199560 -0.714648E-01  0.166E-01    0.01       1.0  T
   6   -418.4278114 -0.785544E-02  0.745E-02    0.02       1.0  T
   7   -418.4244809  0.333049E-02  0.968E-02    0.01       1.0  T
   8   -418.4273461 -0.286524E-02  0.672E-02    0.01       1.0  T
   9   -418.4291054 -0.175921E-02  0.448E-02    0.01       1.0  T
  10   -418.4295331 -0.427775E-03  0.329E-02    0.01       1.0  T
  11   -418.4297833 -0.250137E-03  0.235E-02    0.01       1.0  T
  12   -418.4299264 -0.143119E-03  0.133E-02    0.01       1.0  T
  13   -418.4299753 -0.489437E-04  0.720E-03    0.01       1.0  T
  14   -418.4299984 -0.231046E-04  0.332E-03    0.01       2.1  T
  15   -418.4300007 -0.228682E-05  0.176E-03    0.01       4.0  T
  16   -418.4300015 -0.725571E-06  0.934E-04    0.01       7.5  T
  17   -418.4300016 -0.158163E-06  0.521E-04    0.01      13.5  T
     SCC iter.                  ...        0 min,  3.472 sec
     gradient                   ...        0 min,  0.187 sec
 * total energy  :  -413.7974885 Eh     change       -0.2457631E-02 Eh
   gradient norm :     0.0154994 Eh/α   predicted    -0.2178204E-02 ( -11.37%)
   displ. norm   :     0.6769471 α      lambda       -0.2360817E-02
   maximum displ.:     0.2888919 α      in ANC's #36, #57, #9, ...

........................................................................
.............................. CYCLE   14 ..............................
........................................................................

 iter      E             dE          RMSdq      gap      omega  full diag
   1   -418.4306827 -0.418431E+03  0.910E-02    0.02       0.0  T
   2   -418.3813192  0.493635E-01  0.306E-01    0.08       1.0  T
   3   -418.4101710 -0.288518E-01  0.179E-01    0.04       1.0  T
   4   -418.4102437 -0.726671E-04  0.190E-01    0.04       1.0  T
   5   -418.3872908  0.229529E-01  0.283E-01    0.07       1.0  T
   6   -418.4305040 -0.432132E-01  0.558E-02    0.01       1.0  T
   7   -418.4310481 -0.544169E-03  0.265E-02    0.01       1.0  T
   8   -418.4310670 -0.188068E-04  0.260E-02    0.01       1.0  T
   9   -418.4311606 -0.936869E-04  0.236E-02    0.01       1.0  T
  10   -418.4313768 -0.216142E-03  0.905E-03    0.01       1.0  T
  11   -418.4313766  0.144811E-06  0.792E-03    0.01       1.0  T
  12   -418.4313907 -0.140214E-04  0.443E-03    0.01       1.6  T
  13   -418.4313985 -0.780720E-05  0.221E-03    0.01       3.2  T
  14   -418.4313995 -0.106942E-05  0.142E-03    0.01       4.9  T
  15   -418.4314003 -0.750552E-06  0.569E-04    0.01      12.4  T
  16   -418.4314004 -0.842227E-07  0.289E-04    0.01      24.4  T
     SCC iter.                  ...        0 min,  2.636 sec
     gradient                   ...        0 min,  0.178 sec
 * total energy  :  -413.7994372 Eh     change       -0.1948665E-02 Eh
   gradient norm :     0.0139866 Eh/α   predicted    -0.1721342E-02 ( -11.67%)
   displ. norm   :     0.6719790 α      lambda       -0.1920432E-02
   maximum displ.:     0.2837555 α      in ANC's #36, #57, #9, ...

........................................................................
.............................. CYCLE   15 ..............................
........................................................................

 iter      E             dE          RMSdq      gap      omega  full diag
   1   -418.4334263 -0.418433E+03  0.863E-02    0.02       0.0  T
   2   -418.3452085  0.882178E-01  0.390E-01    0.11       1.0  T
   3   -418.4138659 -0.686574E-01  0.177E-01    0.03       1.0  T
   4   -418.4207469 -0.688097E-02  0.154E-01    0.03       1.0  T
   5   -418.3907766  0.299703E-01  0.274E-01    0.05       1.0  T
   6   -418.4330134 -0.422369E-01  0.569E-02    0.01       1.0  T
   7   -418.4334338 -0.420359E-03  0.392E-02    0.01       1.0  T
   8   -418.4336263 -0.192558E-03  0.342E-02    0.02       1.0  T
   9   -418.4338432 -0.216920E-03  0.281E-02    0.01       1.0  T
  10   -418.4341245 -0.281306E-03  0.146E-02    0.01       1.0  T
  11   -418.4341862 -0.616216E-04  0.791E-03    0.01       1.0  T
  12   -418.4342040 -0.178558E-04  0.374E-03    0.01       1.9  T
  13   -418.4342097 -0.570132E-05  0.215E-03    0.01       3.3  T
  14   -418.4342102 -0.455040E-06  0.165E-03    0.01       4.3  T
  15   -418.4342108 -0.610841E-06  0.107E-03    0.01       6.6  T
  16   -418.4342112 -0.409036E-06  0.558E-04    0.01      12.6  T
  17   -418.4342113 -0.119031E-06  0.264E-04    0.01      26.6  T
     SCC iter.                  ...        0 min,  3.020 sec
     gradient                   ...        0 min,  0.180 sec
 * total energy  :  -413.8010213 Eh     change       -0.1584143E-02 Eh
   gradient norm :     0.0134643 Eh/α   predicted    -0.1393833E-02 ( -12.01%)
   displ. norm   :     0.6878140 α      lambda       -0.1676386E-02
   maximum displ.:     0.2776941 α      in ANC's #36, #9, #57, ...

........................................................................
.............................. CYCLE   16 ..............................
........................................................................

 iter      E             dE          RMSdq      gap      omega  full diag
   1   -418.4335204 -0.418434E+03  0.836E-02    0.02       0.0  T
   2   -418.3063616  0.127159E+00  0.460E-01    0.12       1.0  T
   3   -418.4185388 -0.112177E+00  0.158E-01    0.02       1.0  T
   4   -418.4195565 -0.101762E-02  0.160E-01    0.03       1.0  T
   5   -418.3956269  0.239295E-01  0.259E-01    0.05       1.0  T
   6   -418.4330231 -0.373962E-01  0.584E-02    0.01       1.0  T
   7   -418.4337526 -0.729508E-03  0.348E-02    0.01       1.0  T
   8   -418.4335814  0.171233E-03  0.388E-02    0.02       1.0  T
   9   -418.4340485 -0.467078E-03  0.264E-02    0.01       1.0  T
  10   -418.4342884 -0.239979E-03  0.134E-02    0.01       1.0  T
  11   -418.4343368 -0.483375E-04  0.817E-03    0.01       1.0  T
  12   -418.4343561 -0.193345E-04  0.356E-03    0.01       2.0  T
  13   -418.4343605 -0.439514E-05  0.198E-03    0.01       3.6  T
  14   -418.4343612 -0.648411E-06  0.130E-03    0.01       5.4  T
  15   -418.4343615 -0.329992E-06  0.838E-04    0.01       8.4  T
  16   -418.4343617 -0.217670E-06  0.504E-04    0.01      14.0  T
     SCC iter.                  ...        0 min,  3.121 sec
     gradient                   ...        0 min,  0.183 sec
 * total energy  :  -413.8023935 Eh     change       -0.1372163E-02 Eh
   gradient norm :     0.0148707 Eh/α   predicted    -0.1234735E-02 ( -10.02%)
   displ. norm   :     0.6961827 α      lambda       -0.1675738E-02
   maximum displ.:     0.2511486 α      in ANC's #36, #9, #5, ...

........................................................................
.............................. CYCLE   17 ..............................
........................................................................

 iter      E             dE          RMSdq      gap      omega  full diag
   1   -418.4385313 -0.418439E+03  0.830E-02    0.02       0.0  T
   2   -418.2788488  0.159682E+00  0.510E-01    0.11       1.0  T
   3   -418.4261178 -0.147269E+00  0.147E-01    0.02       1.0  T
   4   -418.4236614  0.245638E-02  0.165E-01    0.03       1.0  T
   5   -418.4014099  0.222515E-01  0.259E-01    0.05       1.0  T
   6   -418.4383548 -0.369449E-01  0.541E-02    0.01       1.0  T
   7   -418.4385843 -0.229520E-03  0.403E-02    0.01       1.0  T
   8   -418.4385521  0.321697E-04  0.399E-02    0.02       1.0  T
   9   -418.4391791 -0.626911E-03  0.250E-02    0.01       1.0  T
  10   -418.4393772 -0.198154E-03  0.137E-02    0.01       1.0  T
  11   -418.4394332 -0.559659E-04  0.895E-03    0.01       1.0  T
  12   -418.4394577 -0.245226E-04  0.370E-03    0.01       1.9  T
  13   -418.4394625 -0.483476E-05  0.210E-03    0.01       3.4  T
  14   -418.4394637 -0.113255E-05  0.111E-03    0.01       6.3  T
  15   -418.4394637 -0.516106E-07  0.800E-04    0.01       8.8  T
  16   -418.4394640 -0.237679E-06  0.535E-04    0.01      13.2  T
     SCC iter.                  ...        0 min,  3.064 sec
     gradient                   ...        0 min,  0.177 sec
 * total energy  :  -413.8037187 Eh     change       -0.1325207E-02 Eh
   gradient norm :     0.0156245 Eh/α   predicted    -0.1243986E-02 (  -6.13%)
   displ. norm   :     0.6913420 α      lambda       -0.1534280E-02
   maximum displ.:     0.2435686 α      in ANC's #9, #5, #36, ...

........................................................................
.............................. CYCLE   18 ..............................
........................................................................

 iter      E             dE          RMSdq      gap      omega  full diag
   1   -418.4386242 -0.418439E+03  0.783E-02    0.02       0.0  T
   2   -418.2917772  0.146847E+00  0.487E-01    0.11       1.0  T
   3   -418.4293361 -0.137559E+00  0.129E-01    0.02       1.0  T
   4   -418.4219778  0.735836E-02  0.174E-01    0.04       1.0  T
   5   -418.3970585  0.249192E-01  0.278E-01    0.07       1.0  T
   6   -418.4388599 -0.418014E-01  0.419E-02    0.01       1.0  T
   7   -418.4390155 -0.155623E-03  0.274E-02    0.01       1.0  T
   8   -418.4389574  0.581439E-04  0.314E-02    0.01       1.0  T
   9   -418.4392889 -0.331472E-03  0.161E-02    0.01       1.0  T
  10   -418.4393571 -0.682735E-04  0.111E-02    0.01       1.0  T
  11   -418.4393921 -0.349298E-04  0.686E-03    0.01       1.0  T
  12   -418.4394063 -0.142299E-04  0.275E-03    0.01       2.6  T
  13   -418.4394077 -0.141686E-05  0.189E-03    0.01       3.7  T
  14   -418.4394091 -0.137806E-05  0.805E-04    0.01       8.7  T
  15   -418.4394091 -0.130479E-07  0.605E-04    0.01      11.6  T
  16   -418.4394092 -0.122368E-06  0.413E-04    0.01      17.0  T
     SCC iter.                  ...        0 min,  2.734 sec
     gradient                   ...        0 min,  0.172 sec
 * total energy  :  -413.8050296 Eh     change       -0.1310843E-02 Eh
   gradient norm :     0.0145524 Eh/α   predicted    -0.1133811E-02 ( -13.51%)
   displ. norm   :     0.6911938 α      lambda       -0.1536722E-02
   maximum displ.:     0.2458397 α      in ANC's #9, #5, #6, ...

........................................................................
.............................. CYCLE   19 ..............................
........................................................................

 iter      E             dE          RMSdq      gap      omega  full diag
   1   -418.4411215 -0.418441E+03  0.761E-02    0.02       0.0  T
   2   -418.3444262  0.966953E-01  0.397E-01    0.10       1.0  T
   3   -418.4310592 -0.866330E-01  0.131E-01    0.03       1.0  T
   4   -418.4243411  0.671811E-02  0.177E-01    0.04       1.0  T
   5   -418.3905312  0.338099E-01  0.308E-01    0.09       1.0  T
   6   -418.4409449 -0.504138E-01  0.466E-02    0.01       1.0  T
   7   -418.4411786 -0.233643E-03  0.310E-02    0.01       1.0  T
   8   -418.4410355  0.143114E-03  0.345E-02    0.01       1.0  T
   9   -418.4415987 -0.563197E-03  0.165E-02    0.01       1.0  T
  10   -418.4416817 -0.830944E-04  0.874E-03    0.01       1.0  T
  11   -418.4417010 -0.192378E-04  0.589E-03    0.01       1.2  T
  12   -418.4417085 -0.752368E-05  0.315E-03    0.01       2.2  T
  13   -418.4417114 -0.284933E-05  0.185E-03    0.01       3.8  T
  14   -418.4417130 -0.166349E-05  0.654E-04    0.01      10.8  T
  15   -418.4417129  0.168303E-06  0.686E-04    0.01      10.3  T
  16   -418.4417131 -0.227317E-06  0.373E-04    0.01      18.9  T
     SCC iter.                  ...        0 min,  2.533 sec
     gradient                   ...        0 min,  0.184 sec
 * total energy  :  -413.8063307 Eh     change       -0.1301186E-02 Eh
   gradient norm :     0.0129150 Eh/α   predicted    -0.1135541E-02 ( -12.73%)
   displ. norm   :     0.7027197 α      lambda       -0.1377093E-02
   maximum displ.:     0.2662512 α      in ANC's #5, #9, #6, ...

........................................................................
.............................. CYCLE   20 ..............................
........................................................................

 iter      E             dE          RMSdq      gap      omega  full diag
   1   -418.4403986 -0.418440E+03  0.743E-02    0.02       0.0  T
   2   -418.3765282  0.638704E-01  0.333E-01    0.09       1.0  T
   3   -418.4282561 -0.517279E-01  0.142E-01    0.03       1.0  T
   4   -418.4265604  0.169579E-02  0.160E-01    0.04       1.0  T
   5   -418.3902765  0.362839E-01  0.306E-01    0.08       1.0  T
   6   -418.4401930 -0.499166E-01  0.434E-02    0.01       1.0  T
   7   -418.4404198 -0.226769E-03  0.307E-02    0.01       1.0  T
   8   -418.4404102  0.962674E-05  0.304E-02    0.01       1.0  T
   9   -418.4408672 -0.457076E-03  0.133E-02    0.01       1.0  T
  10   -418.4409146 -0.473593E-04  0.691E-03    0.01       1.0  T
  11   -418.4409264 -0.118236E-04  0.485E-03    0.01       1.5  T
  12   -418.4409306 -0.417275E-05  0.283E-03    0.01       2.5  T
  13   -418.4409328 -0.223286E-05  0.162E-03    0.01       4.4  T
  14   -418.4409341 -0.123487E-05  0.668E-04    0.01      10.5  T
  15   -418.4409339  0.132574E-06  0.635E-04    0.01      11.1  T
  16   -418.4409341 -0.212976E-06  0.307E-04    0.01      22.9  T
     SCC iter.                  ...        0 min,  2.565 sec
     gradient                   ...        0 min,  0.179 sec
 * total energy  :  -413.8074941 Eh     change       -0.1163371E-02 Eh
   gradient norm :     0.0122285 Eh/α   predicted    -0.1028569E-02 ( -11.59%)
   displ. norm   :     0.7021929 α      lambda       -0.1258147E-02
   maximum displ.:     0.2877555 α      in ANC's #5, #9, #6, ...
 * RMSD in coord.:     0.7300341 α      energy gain  -0.5519221E+00 Eh

generating ANC from model Hessian ...
Using Lindh-Hessian (1995)
 Shifting diagonal of input Hessian by    1.0103295741909423E-002
 Lowest  eigenvalues of input Hessian
    0.010000    0.010101    0.000000    0.000000    0.000000    0.000000
    0.000000    0.000000    0.010129    0.010187    0.010232    0.010244
    0.010281    0.010291    0.010378    0.010387    0.010447    0.010466
 Highest eigenvalues
    2.695076    2.696775    2.698259    2.701039    2.711844    2.712143


........................................................................
.............................. CYCLE   21 ..............................
........................................................................

 iter      E             dE          RMSdq      gap      omega  full diag
   1   -418.4430227 -0.418443E+03  0.702E-02    0.01       0.0  T
   2   -418.4261937  0.168290E-01  0.193E-01    0.03       1.0  T
   3   -418.4398969 -0.137031E-01  0.849E-02    0.03       1.0  T
   4   -418.3744379  0.654590E-01  0.330E-01    0.02       1.0  T
   5   -418.4354995 -0.610616E-01  0.130E-01    0.02       1.0  T
   6   -418.4412696 -0.577011E-02  0.650E-02    0.03       1.0  T
   7   -418.4382168  0.305281E-02  0.848E-02    0.01       1.0  T
   8   -418.4428581 -0.464135E-02  0.313E-02    0.01       1.0  T
   9   -418.4431521 -0.293988E-03  0.222E-02    0.01       1.0  T
  10   -418.4431996 -0.474913E-04  0.178E-02    0.01       1.0  T
  11   -418.4432891 -0.894854E-04  0.123E-02    0.01       1.0  T
  12   -418.4433060 -0.169496E-04  0.910E-03    0.01       1.0  T
  13   -418.4433362 -0.302000E-04  0.420E-03    0.01       1.7  T
  14   -418.4433411 -0.487609E-05  0.174E-03    0.01       4.0  T
  15   -418.4433417 -0.554799E-06  0.957E-04    0.01       7.4  T
  16   -418.4433419 -0.234144E-06  0.639E-04    0.01      11.0  T
     SCC iter.                  ...        0 min,  2.618 sec
     gradient                   ...        0 min,  0.184 sec
 * total energy  :  -413.8085707 Eh     change       -0.1076566E-02 Eh
   gradient norm :     0.0130215 Eh/α   predicted     0.0000000E+00 (-100.00%)
   displ. norm   :     0.2079064 α      lambda       -0.8391790E-03
   maximum displ.:     0.0663795 α      in ANC's #7, #8, #40, ...

........................................................................
.............................. CYCLE   22 ..............................
........................................................................

 iter      E             dE          RMSdq      gap      omega  full diag
   1   -418.4450039 -0.418445E+03  0.299E-02    0.01       0.0  T
   2   -418.4393441  0.565982E-02  0.907E-02    0.01       1.0  T
   3   -418.4431866 -0.384253E-02  0.554E-02    0.01       1.0  T
   4   -418.4413872  0.179941E-02  0.804E-02    0.01       1.0  T
   5   -418.4444774 -0.309022E-02  0.325E-02    0.02       1.0  T
   6   -418.4447410 -0.263602E-03  0.260E-02    0.01       1.0  T
   7   -418.4449534 -0.212363E-03  0.139E-02    0.01       1.0  T
   8   -418.4449584 -0.497862E-05  0.133E-02    0.01       1.0  T
   9   -418.4450321 -0.737634E-04  0.566E-03    0.01       1.2  T
  10   -418.4450465 -0.143802E-04  0.216E-03    0.01       3.3  T
  11   -418.4450480 -0.146539E-05  0.142E-03    0.01       5.0  T
  12   -418.4450486 -0.578085E-06  0.578E-04    0.01      12.2  T
  13   -418.4450487 -0.118230E-06  0.303E-04    0.01      23.2  T
     SCC iter.                  ...        0 min,  2.084 sec
     gradient                   ...        0 min,  0.177 sec
 * total energy  :  -413.8092972 Eh     change       -0.7265401E-03 Eh
   gradient norm :     0.0077232 Eh/α   predicted    -0.4377345E-03 ( -39.75%)
   displ. norm   :     0.6062794 α      lambda       -0.1745753E-02
   maximum displ.:     0.2001538 α      in ANC's #7, #8, #23, ...

........................................................................
.............................. CYCLE   23 ..............................
........................................................................

 iter      E             dE          RMSdq      gap      omega  full diag
   1   -418.4460125 -0.418446E+03  0.742E-02    0.01       0.0  T
   2   -418.4209941  0.250184E-01  0.193E-01    0.03       1.0  T
   3   -418.4354112 -0.144170E-01  0.134E-01    0.02       1.0  T
   4   -418.3871276  0.482836E-01  0.303E-01    0.05       1.0  T
   5   -418.4422744 -0.551468E-01  0.916E-02    0.04       1.0  T
   6   -418.4448947 -0.262032E-02  0.591E-02    0.01       1.0  T
   7   -418.4453670 -0.472318E-03  0.432E-02    0.02       1.0  T
   8   -418.4453411  0.258418E-04  0.418E-02    0.02       1.0  T
   9   -418.4458514 -0.510300E-03  0.295E-02    0.01       1.0  T
  10   -418.4461558 -0.304350E-03  0.168E-02    0.01       1.0  T
  11   -418.4462304 -0.745698E-04  0.113E-02    0.01       1.0  T
  12   -418.4462739 -0.435545E-04  0.542E-03    0.01       1.3  T
  13   -418.4462851 -0.111611E-04  0.255E-03    0.01       2.8  T
  14   -418.4462867 -0.160278E-05  0.131E-03    0.01       5.4  T
  15   -418.4462874 -0.708443E-06  0.736E-04    0.01       9.6  T
  16   -418.4462876 -0.189652E-06  0.338E-04    0.01      20.8  T
     SCC iter.                  ...        0 min,  2.587 sec
     gradient                   ...        0 min,  0.171 sec
 * total energy  :  -413.8106422 Eh     change       -0.1345023E-02 Eh
   gradient norm :     0.0085730 Eh/α   predicted    -0.1193897E-02 ( -11.24%)
   displ. norm   :     0.6272093 α      lambda       -0.1238751E-02
   maximum displ.:     0.2190069 α      in ANC's #7, #8, #23, ...

........................................................................
.............................. CYCLE   24 ..............................
........................................................................

 iter      E             dE          RMSdq      gap      omega  full diag
   1   -418.4457434 -0.418446E+03  0.672E-02    0.01       0.0  T
   2   -418.4254462  0.202972E-01  0.174E-01    0.03       1.0  T
   3   -418.4354380 -0.999184E-02  0.130E-01    0.02       1.0  T
   4   -418.4136451  0.217929E-01  0.225E-01    0.04       1.0  T
   5   -418.4430082 -0.293631E-01  0.790E-02    0.03       1.0  T
   6   -418.4444019 -0.139374E-02  0.577E-02    0.01       1.0  T
   7   -418.4454943 -0.109235E-02  0.312E-02    0.02       1.0  T
   8   -418.4453750  0.119265E-03  0.330E-02    0.01       1.0  T
   9   -418.4457411 -0.366106E-03  0.196E-02    0.01       1.0  T
  10   -418.4459086 -0.167534E-03  0.850E-03    0.01       1.0  T
  11   -418.4459268 -0.181451E-04  0.589E-03    0.01       1.2  T
  12   -418.4459381 -0.113169E-04  0.254E-03    0.01       2.8  T
  13   -418.4459407 -0.262518E-05  0.121E-03    0.01       5.8  T
  14   -418.4459409 -0.129714E-06  0.802E-04    0.01       8.8  T
  15   -418.4459410 -0.140754E-06  0.581E-04    0.01      12.1  T
     SCC iter.                  ...        0 min,  2.404 sec
     gradient                   ...        0 min,  0.179 sec
 * total energy  :  -413.8117091 Eh     change       -0.1066821E-02 Eh
   gradient norm :     0.0131025 Eh/α   predicted    -0.8630460E-03 ( -19.10%)
   displ. norm   :     0.7269067 α      lambda       -0.1453865E-02
   maximum displ.:     0.2626882 α      in ANC's #7, #8, #23, ...

........................................................................
.............................. CYCLE   25 ..............................
........................................................................

 iter      E             dE          RMSdq      gap      omega  full diag
   1   -418.4458875 -0.418446E+03  0.729E-02    0.01       0.0  T
   2   -418.4258276  0.200599E-01  0.175E-01    0.03       1.0  T
   3   -418.4310350 -0.520735E-02  0.152E-01    0.02       1.0  T
   4   -418.4121504  0.188846E-01  0.248E-01    0.05       1.0  T
   5   -418.4433092 -0.311588E-01  0.797E-02    0.03       1.0  T
   6   -418.4427312  0.577971E-03  0.774E-02    0.02       1.0  T
   7   -418.4456975 -0.296632E-02  0.302E-02    0.02       1.0  T
   8   -418.4458029 -0.105351E-03  0.215E-02    0.01       1.0  T
   9   -418.4458802 -0.773082E-04  0.207E-02    0.01       1.0  T
  10   -418.4460482 -0.167996E-03  0.787E-03    0.01       1.0  T
  11   -418.4460544 -0.625762E-05  0.703E-03    0.01       1.0  T
  12   -418.4460688 -0.143920E-04  0.350E-03    0.01       2.0  T
  13   -418.4460754 -0.653077E-05  0.131E-03    0.01       5.4  T
  14   -418.4460756 -0.258527E-06  0.730E-04    0.01       9.6  T
  15   -418.4460757 -0.793812E-07  0.504E-04    0.01      14.0  T
     SCC iter.                  ...        0 min,  2.393 sec
     gradient                   ...        0 min,  0.176 sec
 * total energy  :  -413.8130462 Eh     change       -0.1337107E-02 Eh
   gradient norm :     0.0127694 Eh/α   predicted    -0.1111040E-02 ( -16.91%)
   displ. norm   :     0.7925869 α      lambda       -0.1774523E-02
   maximum displ.:     0.2949919 α      in ANC's #7, #8, #23, ...

........................................................................
.............................. CYCLE   26 ..............................
........................................................................

 iter      E             dE          RMSdq      gap      omega  full diag
   1   -418.4476656 -0.418448E+03  0.784E-02    0.02       0.0  T
   2   -418.4343379  0.133278E-01  0.150E-01    0.03       1.0  T
   3   -418.4193359  0.150020E-01  0.205E-01    0.02       1.0  T
   4   -418.4189472  0.388644E-03  0.246E-01    0.05       1.0  T
   5   -418.4396671 -0.207198E-01  0.131E-01    0.05       1.0  T
   6   -418.4403341 -0.667010E-03  0.116E-01    0.03       1.0  T
   7   -418.4472549 -0.692085E-02  0.365E-02    0.02       1.0  T
   8   -418.4471542  0.100708E-03  0.388E-02    0.02       1.0  T
   9   -418.4477060 -0.551805E-03  0.175E-02    0.02       1.0  T
  10   -418.4477204 -0.143970E-04  0.143E-02    0.02       1.0  T
  11   -418.4477542 -0.337915E-04  0.103E-02    0.02       1.0  T
  12   -418.4477878 -0.335700E-04  0.551E-03    0.02       1.3  T
  13   -418.4478043 -0.164806E-04  0.202E-03    0.02       3.5  T
  14   -418.4478053 -0.107209E-05  0.895E-04    0.02       7.9  T
  15   -418.4478056 -0.242974E-06  0.454E-04    0.02      15.5  T
  16   -418.4478056 -0.870597E-08  0.377E-04    0.02      18.7  T
     SCC iter.                  ...        0 min,  2.775 sec
     gradient                   ...        0 min,  0.177 sec
 * total energy  :  -413.8146453 Eh     change       -0.1599106E-02 Eh
   gradient norm :     0.0099371 Eh/α   predicted    -0.1444647E-02 (  -9.66%)
   displ. norm   :     0.8515156 α      lambda       -0.1730443E-02
   maximum displ.:     0.3235576 α      in ANC's #7, #8, #3, ...

........................................................................
.............................. CYCLE   27 ..............................
........................................................................

 iter      E             dE          RMSdq      gap      omega  full diag
   1   -418.4480884 -0.418448E+03  0.845E-02    0.02       0.0  T
   2   -418.4382967  0.979168E-02  0.139E-01    0.02       1.0  T
   3   -418.4120799  0.262168E-01  0.238E-01    0.03       1.0  T
   4   -418.4149726 -0.289270E-02  0.262E-01    0.06       1.0  T
   5   -418.4383211 -0.233485E-01  0.143E-01    0.05       1.0  T
   6   -418.4401528 -0.183172E-02  0.117E-01    0.03       1.0  T
   7   -418.4473520 -0.719920E-02  0.426E-02    0.02       1.0  T
   8   -418.4473717 -0.196882E-04  0.446E-02    0.02       1.0  T
   9   -418.4480742 -0.702479E-03  0.217E-02    0.02       1.0  T
  10   -418.4481211 -0.468860E-04  0.161E-02    0.02       1.0  T
  11   -418.4481615 -0.403609E-04  0.120E-02    0.02       1.0  T
  12   -418.4482007 -0.392365E-04  0.682E-03    0.02       1.0  T
  13   -418.4482249 -0.242444E-04  0.278E-03    0.02       2.5  T
  14   -418.4482274 -0.246047E-05  0.116E-03    0.02       6.1  T
  15   -418.4482279 -0.481537E-06  0.590E-04    0.02      11.9  T
  16   -418.4482279  0.557355E-08  0.497E-04    0.02      14.2  T
     SCC iter.                  ...        0 min,  2.823 sec
     gradient                   ...        0 min,  0.183 sec
 * total energy  :  -413.8162549 Eh     change       -0.1609636E-02 Eh
   gradient norm :     0.0116267 Eh/α   predicted    -0.1492597E-02 (  -7.27%)
   displ. norm   :     0.8570256 α      lambda       -0.1771232E-02
   maximum displ.:     0.3383251 α      in ANC's #7, #8, #3, ...

........................................................................
.............................. CYCLE   28 ..............................
........................................................................

 iter      E             dE          RMSdq      gap      omega  full diag
   1   -418.4503128 -0.418450E+03  0.836E-02    0.02       0.0  T
   2   -418.4423767  0.793610E-02  0.135E-01    0.01       1.0  T
   3   -418.4236405  0.187362E-01  0.218E-01    0.05       1.0  T
   4   -418.4052660  0.183745E-01  0.293E-01    0.07       1.0  T
   5   -418.4446457 -0.393797E-01  0.111E-01    0.04       1.0  T
   6   -418.4447303 -0.846695E-04  0.972E-02    0.03       1.0  T
   7   -418.4491444 -0.441406E-02  0.464E-02    0.02       1.0  T
   8   -418.4497928 -0.648447E-03  0.383E-02    0.02       1.0  T
   9   -418.4503737 -0.580874E-03  0.170E-02    0.02       1.0  T
  10   -418.4504088 -0.351362E-04  0.118E-02    0.02       1.0  T
  11   -418.4504238 -0.149721E-04  0.862E-03    0.02       1.0  T
  12   -418.4504562 -0.324223E-04  0.445E-03    0.02       1.6  T
  13   -418.4504640 -0.775566E-05  0.242E-03    0.02       2.9  T
  14   -418.4504659 -0.187302E-05  0.107E-03    0.02       6.6  T
  15   -418.4504664 -0.545701E-06  0.419E-04    0.02      16.8  T
  16   -418.4504663  0.113456E-06  0.513E-04    0.02      13.7  T
     SCC iter.                  ...        0 min,  2.681 sec
     gradient                   ...        0 min,  0.178 sec
 * total energy  :  -413.8179062 Eh     change       -0.1651266E-02 Eh
   gradient norm :     0.0127106 Eh/α   predicted    -0.1536130E-02 (  -6.97%)
   displ. norm   :     0.8714058 α      lambda       -0.1795941E-02
   maximum displ.:     0.3573785 α      in ANC's #7, #8, #3, ...

........................................................................
.............................. CYCLE   29 ..............................
........................................................................

 iter      E             dE          RMSdq      gap      omega  full diag
   1   -418.4516396 -0.418452E+03  0.836E-02    0.02       0.0  T
   2   -418.4416197  0.100200E-01  0.148E-01    0.01       1.0  T
   3   -418.4275193  0.141004E-01  0.203E-01    0.04       1.0  T
   4   -418.4086432  0.188761E-01  0.286E-01    0.07       1.0  T
   5   -418.4438802 -0.352369E-01  0.124E-01    0.04       1.0  T
   6   -418.4439610 -0.808731E-04  0.117E-01    0.04       1.0  T
   7   -418.4510667 -0.710561E-02  0.376E-02    0.02       1.0  T
   8   -418.4511736 -0.106916E-03  0.371E-02    0.02       1.0  T
   9   -418.4517138 -0.540272E-03  0.174E-02    0.02       1.0  T
  10   -418.4517351 -0.212650E-04  0.134E-02    0.02       1.0  T
  11   -418.4517626 -0.275078E-04  0.874E-03    0.02       1.0  T
  12   -418.4518013 -0.387082E-04  0.419E-03    0.02       1.7  T
  13   -418.4518082 -0.690162E-05  0.132E-03    0.02       5.3  T
  14   -418.4518088 -0.570716E-06  0.836E-04    0.02       8.4  T
  15   -418.4518088  0.214020E-07  0.695E-04    0.02      10.1  T
     SCC iter.                  ...        0 min,  2.600 sec
     gradient                   ...        0 min,  0.182 sec
 * total energy  :  -413.8195879 Eh     change       -0.1681679E-02 Eh
   gradient norm :     0.0112033 Eh/α   predicted    -0.1579844E-02 (  -6.06%)
   displ. norm   :     0.8591598 α      lambda       -0.1799036E-02
   maximum displ.:     0.3757606 α      in ANC's #7, #8, #3, ...

........................................................................
.............................. CYCLE   30 ..............................
........................................................................

 iter      E             dE          RMSdq      gap      omega  full diag
   1   -418.4561897 -0.418456E+03  0.796E-02    0.03       0.0  T
   2   -418.4429823  0.132074E-01  0.161E-01    0.02       1.0  T
   3   -418.4353758  0.760649E-02  0.180E-01    0.04       1.0  T
   4   -418.4217511  0.136247E-01  0.257E-01    0.05       1.0  T
   5   -418.4449899 -0.232389E-01  0.148E-01    0.04       1.0  T
   6   -418.4533268 -0.833684E-02  0.802E-02    0.03       1.0  T
   7   -418.4557805 -0.245369E-02  0.336E-02    0.02       1.0  T
   8   -418.4556590  0.121423E-03  0.376E-02    0.03       1.0  T
   9   -418.4563066 -0.647583E-03  0.147E-02    0.03       1.0  T
  10   -418.4563089 -0.224578E-05  0.124E-02    0.03       1.0  T
  11   -418.4563526 -0.437690E-04  0.696E-03    0.03       1.0  T
  12   -418.4563676 -0.149625E-04  0.398E-03    0.03       1.8  T
  13   -418.4563733 -0.564923E-05  0.212E-03    0.03       3.3  T
  14   -418.4563747 -0.142785E-05  0.102E-03    0.03       6.9  T
  15   -418.4563751 -0.463384E-06  0.446E-04    0.03      15.8  T
  16   -418.4563751 -0.284194E-08  0.303E-04    0.03      23.3  T
     SCC iter.                  ...        0 min,  2.986 sec
     gradient                   ...        0 min,  0.182 sec
 * total energy  :  -413.8212147 Eh     change       -0.1626883E-02 Eh
   gradient norm :     0.0086768 Eh/α   predicted    -0.1563521E-02 (  -3.89%)
   displ. norm   :     0.9102931 α      lambda       -0.1718207E-02
   maximum displ.:     0.3950915 α      in ANC's #7, #8, #3, ...

........................................................................
.............................. CYCLE   31 ..............................
........................................................................

 iter      E             dE          RMSdq      gap      omega  full diag
   1   -418.4519881 -0.418452E+03  0.844E-02    0.03       0.0  T
   2   -418.4306697  0.213184E-01  0.188E-01    0.03       1.0  T
   3   -418.4314304 -0.760687E-03  0.174E-01    0.04       1.0  T
   4   -418.4163461  0.150843E-01  0.269E-01    0.05       1.0  T
   5   -418.4385488 -0.222027E-01  0.166E-01    0.06       1.0  T
   6   -418.4500018 -0.114529E-01  0.717E-02    0.03       1.0  T
   7   -418.4517046 -0.170281E-02  0.352E-02    0.03       1.0  T
   8   -418.4519042 -0.199606E-03  0.273E-02    0.03       1.0  T
   9   -418.4520922 -0.187999E-03  0.153E-02    0.03       1.0  T
  10   -418.4521214 -0.292531E-04  0.146E-02    0.03       1.0  T
  11   -418.4521746 -0.532127E-04  0.871E-03    0.03       1.0  T
  12   -418.4521959 -0.212644E-04  0.476E-03    0.03       1.5  T
  13   -418.4522058 -0.993305E-05  0.208E-03    0.03       3.4  T
  14   -418.4522069 -0.106723E-05  0.110E-03    0.03       6.4  T
  15   -418.4522074 -0.508081E-06  0.432E-04    0.03      16.3  T
  16   -418.4522074 -0.195059E-07  0.245E-04    0.03      28.7  T
     SCC iter.                  ...        0 min,  2.841 sec
     gradient                   ...        0 min,  0.183 sec
 * total energy  :  -413.8227713 Eh     change       -0.1556564E-02 Eh
   gradient norm :     0.0110422 Eh/α   predicted    -0.1571035E-02 (   0.93%)
   displ. norm   :     0.8367583 α      lambda       -0.1687232E-02
   maximum displ.:     0.4009363 α      in ANC's #7, #3, #8, ...

........................................................................
.............................. CYCLE   32 ..............................
........................................................................

 iter      E             dE          RMSdq      gap      omega  full diag
   1   -418.4574113 -0.418457E+03  0.735E-02    0.03       0.0  T
   2   -418.4394020  0.180093E-01  0.169E-01    0.03       1.0  T
   3   -418.4410224 -0.162037E-02  0.156E-01    0.05       1.0  T
   4   -418.4167949  0.242274E-01  0.276E-01    0.05       1.0  T
   5   -418.4512364 -0.344414E-01  0.116E-01    0.05       1.0  T
   6   -418.4536373 -0.240091E-02  0.889E-02    0.04       1.0  T
   7   -418.4574294 -0.379217E-02  0.235E-02    0.03       1.0  T
   8   -418.4572682  0.161289E-03  0.255E-02    0.03       1.0  T
   9   -418.4574289 -0.160702E-03  0.205E-02    0.03       1.0  T
  10   -418.4576157 -0.186857E-03  0.782E-03    0.03       1.0  T
  11   -418.4576146  0.111730E-05  0.748E-03    0.03       1.0  T
  12   -418.4576267 -0.121455E-04  0.442E-03    0.03       1.6  T
  13   -418.4576375 -0.107841E-04  0.168E-03    0.03       4.2  T
  14   -418.4576381 -0.561325E-06  0.930E-04    0.03       7.6  T
  15   -418.4576384 -0.320731E-06  0.476E-04    0.03      14.8  T
     SCC iter.                  ...        0 min,  2.604 sec
     gradient                   ...        0 min,  0.183 sec
 * total energy  :  -413.8242835 Eh     change       -0.1512205E-02 Eh
   gradient norm :     0.0103292 Eh/α   predicted    -0.1434293E-02 (  -5.15%)
   displ. norm   :     0.8784603 α      lambda       -0.1585463E-02
   maximum displ.:     0.4187022 α      in ANC's #7, #8, #3, ...

........................................................................
.............................. CYCLE   33 ..............................
........................................................................

 iter      E             dE          RMSdq      gap      omega  full diag
   1   -418.4577230 -0.418458E+03  0.759E-02    0.04       0.0  T
   2   -418.4457085  0.120145E-01  0.139E-01    0.02       1.0  T
   3   -418.4298540  0.158546E-01  0.199E-01    0.05       1.0  T
   4   -418.4297676  0.863829E-04  0.237E-01    0.05       1.0  T
   5   -418.4520828 -0.223152E-01  0.112E-01    0.05       1.0  T
   6   -418.4538972 -0.181447E-02  0.903E-02    0.04       1.0  T
   7   -418.4576046 -0.370736E-02  0.271E-02    0.03       1.0  T
   8   -418.4577729 -0.168259E-03  0.194E-02    0.03       1.0  T
   9   -418.4578380 -0.651297E-04  0.130E-02    0.03       1.0  T
  10   -418.4578276  0.104256E-04  0.158E-02    0.04       1.0  T
  11   -418.4578925 -0.649437E-04  0.871E-03    0.04       1.0  T
  12   -418.4579024 -0.984295E-05  0.611E-03    0.04       1.2  T
  13   -418.4579223 -0.199554E-04  0.214E-03    0.04       3.3  T
  14   -418.4579236 -0.129662E-05  0.101E-03    0.03       7.0  T
  15   -418.4579240 -0.366242E-06  0.443E-04    0.03      15.9  T
  16   -418.4579240 -0.302866E-07  0.300E-04    0.03      23.5  T
     SCC iter.                  ...        0 min,  2.869 sec
     gradient                   ...        0 min,  0.172 sec
 * total energy  :  -413.8257837 Eh     change       -0.1500146E-02 Eh
   gradient norm :     0.0093593 Eh/α   predicted    -0.1404485E-02 (  -6.38%)
   displ. norm   :     0.8537492 α      lambda       -0.1615883E-02
   maximum displ.:     0.4390311 α      in ANC's #7, #3, #8, ...

........................................................................
.............................. CYCLE   34 ..............................
........................................................................

 iter      E             dE          RMSdq      gap      omega  full diag
   1   -418.4640505 -0.418464E+03  0.726E-02    0.04       0.0  T
   2   -418.4600793  0.397123E-02  0.889E-02    0.02       1.0  T
   3   -418.4290161  0.310631E-01  0.230E-01    0.06       1.0  T
   4   -418.4475215 -0.185053E-01  0.166E-01    0.01       1.0  T
   5   -418.4572196 -0.969817E-02  0.114E-01    0.06       1.0  T
   6   -418.4636576 -0.643800E-02  0.392E-02    0.04       1.0  T
   7   -418.4625973  0.106034E-02  0.503E-02    0.03       1.0  T
   8   -418.4639419 -0.134454E-02  0.279E-02    0.04       1.0  T
   9   -418.4640592 -0.117361E-03  0.195E-02    0.03       1.0  T
  10   -418.4641579 -0.987273E-04  0.145E-02    0.04       1.0  T
  11   -418.4642397 -0.817216E-04  0.705E-03    0.04       1.0  T
  12   -418.4642461 -0.647706E-05  0.418E-03    0.04       1.7  T
  13   -418.4642519 -0.572773E-05  0.189E-03    0.04       3.7  T
  14   -418.4642528 -0.945452E-06  0.933E-04    0.04       7.5  T
  15   -418.4642530 -0.201259E-06  0.654E-04    0.04      10.8  T
     SCC iter.                  ...        0 min,  2.387 sec
     gradient                   ...        0 min,  0.183 sec
 * total energy  :  -413.8272711 Eh     change       -0.1487416E-02 Eh
   gradient norm :     0.0075826 Eh/α   predicted    -0.1396845E-02 (  -6.09%)
   displ. norm   :     0.8785700 α      lambda       -0.1527228E-02
   maximum displ.:     0.4565409 α      in ANC's #7, #3, #8, ...

........................................................................
.............................. CYCLE   35 ..............................
........................................................................

 iter      E             dE          RMSdq      gap      omega  full diag
   1   -418.4643204 -0.418464E+03  0.762E-02    0.04       0.0  T
   2   -418.4606575  0.366293E-02  0.918E-02    0.03       1.0  T
   3   -418.4346814  0.259761E-01  0.231E-01    0.08       1.0  T
   4   -418.4425589 -0.787751E-02  0.186E-01    0.01       1.0  T
   5   -418.4544908 -0.119319E-01  0.134E-01    0.07       1.0  T
   6   -418.4628035 -0.831273E-02  0.509E-02    0.03       1.0  T
   7   -418.4642910 -0.148742E-02  0.216E-02    0.04       1.0  T
   8   -418.4639679  0.323085E-03  0.322E-02    0.03       1.0  T
   9   -418.4643764 -0.408522E-03  0.170E-02    0.04       1.0  T
  10   -418.4644749 -0.985109E-04  0.728E-03    0.04       1.0  T
  11   -418.4644886 -0.136985E-04  0.442E-03    0.04       1.6  T
  12   -418.4644853  0.334334E-05  0.407E-03    0.04       1.7  T
  13   -418.4644947 -0.939989E-05  0.156E-03    0.04       4.5  T
  14   -418.4644954 -0.729610E-06  0.755E-04    0.04       9.3  T
  15   -418.4644956 -0.240127E-06  0.482E-04    0.04      14.6  T
     SCC iter.                  ...        0 min,  2.732 sec
     gradient                   ...        0 min,  0.187 sec
 * total energy  :  -413.8286874 Eh     change       -0.1416321E-02 Eh
   gradient norm :     0.0064231 Eh/α   predicted    -0.1353043E-02 (  -4.47%)
   displ. norm   :     0.8576662 α      lambda       -0.1424038E-02
   maximum displ.:     0.4694352 α      in ANC's #7, #3, #5, ...

........................................................................
.............................. CYCLE   36 ..............................
........................................................................

 iter      E             dE          RMSdq      gap      omega  full diag
   1   -418.4682014 -0.418468E+03  0.715E-02    0.04       0.0  T
   2   -418.4638142  0.438723E-02  0.101E-01    0.05       1.0  T
   3   -418.4617834  0.203076E-02  0.121E-01    0.04       1.0  T
   4   -418.4546953  0.708812E-02  0.160E-01    0.03       1.0  T
   5   -418.4636093 -0.891402E-02  0.932E-02    0.05       1.0  T
   6   -418.4625920  0.101739E-02  0.903E-02    0.02       1.0  T
   7   -418.4681387 -0.554671E-02  0.235E-02    0.04       1.0  T
   8   -418.4681560 -0.172876E-04  0.209E-02    0.04       1.0  T
   9   -418.4683632 -0.207237E-03  0.803E-03    0.04       1.0  T
  10   -418.4683841 -0.208799E-04  0.500E-03    0.04       1.4  T
  11   -418.4683911 -0.705022E-05  0.282E-03    0.04       2.5  T
  12   -418.4683909  0.254991E-06  0.236E-03    0.04       3.0  T
  13   -418.4683938 -0.291650E-05  0.101E-03    0.04       6.9  T
  14   -418.4683940 -0.210806E-06  0.590E-04    0.04      11.9  T
  15   -418.4683941 -0.147406E-06  0.321E-04    0.04      22.0  T
     SCC iter.                  ...        0 min,  2.407 sec
     gradient                   ...        0 min,  0.180 sec
 * total energy  :  -413.8300096 Eh     change       -0.1322187E-02 Eh
   gradient norm :     0.0074534 Eh/α   predicted    -0.1235782E-02 (  -6.53%)
   displ. norm   :     0.8443054 α      lambda       -0.1337817E-02
   maximum displ.:     0.4710539 α      in ANC's #7, #3, #5, ...

........................................................................
.............................. CYCLE   37 ..............................
........................................................................

 iter      E             dE          RMSdq      gap      omega  full diag
   1   -418.4695291 -0.418470E+03  0.702E-02    0.04       0.0  T
   2   -418.4637623  0.576675E-02  0.112E-01    0.05       1.0  T
[...]
                           124 O    0.766
   155   8 O    2.026 --   127 S    1.845
   156   8 O    2.164 --   127 S    1.044   157 C    0.975
   157   6 C    3.931 --   189 H    0.979   156 O    0.975   188 H    0.975
                           190 H    0.970
   158   8 O    2.203 --   126 S    0.960   159 C    0.959   151 S    0.147
   159   6 C    3.908 --   185 H    0.980   186 H    0.968   158 O    0.959
                           187 H    0.954
   160   8 O    2.009 --   126 S    1.821
   161   8 O    1.958 --   151 S    1.723
   162   8 O    2.179 --   151 S    1.076   163 C    0.967
   163   6 C    3.926 --   183 H    0.977   182 H    0.974   184 H    0.972
                           162 O    0.967
   164   8 O    1.996 --   153 S    1.810
   165   8 O    2.190 --   153 S    1.079   166 C    0.967
   166   6 C    3.925 --   175 H    0.979   173 H    0.973   174 H    0.972
                           165 O    0.967
   167   8 O    2.035 --   152 S    1.708    51 S    0.153
   168   8 O    2.157 --   152 S    1.071   169 C    0.957
   169   6 C    3.916 --   176 H    0.979   177 H    0.975   178 H    0.969
                           168 O    0.957
   170   8 O    2.057 --   125 S    1.867
   171   8 O    2.187 --   125 S    0.989   172 C    0.956    24 S    0.102
   172   6 C    3.908 --   179 H    0.978   180 H    0.971   181 H    0.963
                           171 O    0.956
   173   1 H    0.994 --   166 C    0.973
   174   1 H    0.996 --   166 C    0.972
   175   1 H    0.998 --   166 C    0.979
   176   1 H    0.995 --   169 C    0.979
   177   1 H    0.994 --   169 C    0.975
   178   1 H    0.992 --   169 C    0.969
   179   1 H    0.996 --   172 C    0.978
   180   1 H    0.994 --   172 C    0.971
   181   1 H    0.993 --   172 C    0.963
   182   1 H    0.994 --   163 C    0.974
   183   1 H    0.997 --   163 C    0.977
   184   1 H    0.996 --   163 C    0.972
   185   1 H    0.997 --   159 C    0.980
   186   1 H    0.993 --   159 C    0.968
   187   1 H    0.989 --   159 C    0.954
   188   1 H    0.995 --   157 C    0.975
   189   1 H    0.998 --   157 C    0.979
   190   1 H    0.995 --   157 C    0.970
   191   1 H    0.992 --   142 C    0.957
   192   1 H    0.989 --   144 C    0.950
   193   1 H    0.992 --   148 C    0.954
   194   1 H    0.993 --   132 C    0.959
   195   1 H    0.994 --   146 C    0.952
   196   1 H    0.993 --   128 C    0.959
   197   1 H    0.994 --   102 C    0.957
   198   1 H    0.995 --   120 C    0.958
   199   1 H    0.990 --   122 C    0.956
   200   1 H    0.991 --   106 C    0.957
   201   1 H    0.987 --   118 C    0.952
   202   1 H    0.991 --   116 C    0.960
 ---------------------------------------------------------------------------

Topologies differ in bond orders
Writing corrected topology to xtbtopo.mol

molecular dipole:
                 x           y           z       tot (Debye)
 q only:       -3.219      -1.764       6.543
   full:       -3.777      -0.563       6.962      20.184
molecular quadrupole (traceless):
                xx          xy          yy          xz          yz          zz
 q only:       10.216      24.759       6.980      13.432      19.274     -17.196
  q+dip:        0.809      40.757      -2.693       0.137      21.319       1.883
   full:       -3.945      46.688     -15.044     -13.270      20.558      18.989

           -------------------------------------------------
          |                Geometry Summary                 |
           -------------------------------------------------

      molecular mass/u    :     2147.8552923
   center of mass at/Å    :       -1.0485964       0.5358511       3.3047201
  moments of inertia/u·Å² :        0.4040757E+05   0.6527000E+05   0.8017738E+05
rotational constants/cm⁻¹ :        0.4171899E-03   0.2582754E-03   0.2102542E-03

 * 186 selected distances

     #   Z          #   Z                                           value/Å
     1   6 C        2   6 C                                       1.3969167
     2   6 C        3   6 C                                       1.4242749
     4   6 C        5   6 C                                       1.4175054
     1   6 C        6   6 C                                       1.3890004
     5   6 C        6   6 C                                       1.3606233
     3   6 C        7   6 C                                       1.4314522
     7   6 C        8   6 C                                       1.4150993
     8   6 C        9   6 C                                       1.4237614
     4   6 C       10   7 N                                       1.3253951
     9   6 C       10   7 N                                       1.3258309
    12   6 C       13   7 N                                       1.3245650
     8   6 C       14   6 C                                       1.4217733
    13   7 N       14   6 C                                       1.3296845
    14   6 C       15   6 C                                       1.4096817
    15   6 C       16   6 C                                       1.3821125
     9   6 C       17   6 C                                       1.4151856
    16   6 C       17   6 C                                       1.3800329
    11   6 C       18   6 C                                       1.4165287
    18   6 C       19   6 C                                       1.4024819
    19   6 C       20   6 C                                       1.3899695
    12   6 C       21   6 C                                       1.4209927
    20   6 C       21   6 C                                       1.3651269
     2   6 C       22   8 O                                       1.3338444
    18   6 C       23   8 O                                       1.3377942
    27   6 C       28   6 C                                       1.3934891
    28   6 C       29   6 C                                       1.4266259
    30   6 C       31   6 C                                       1.4167492
    27   6 C       32   6 C                                       1.3894998
    31   6 C       32   6 C                                       1.3581062
    33   6 C       34   6 C                                       1.4129976
    34   6 C       35   6 C                                       1.4242315
    30   6 C       36   7 N                                       1.3275444
    35   6 C       36   7 N                                       1.3209384
    38   6 C       39   7 N                                       1.3228578
    34   6 C       40   6 C                                       1.4255000
    39   7 N       40   6 C                                       1.3262869
    40   6 C       41   6 C                                       1.4081827
    41   6 C       42   6 C                                       1.3803221
    35   6 C       43   6 C                                       1.4162028
    42   6 C       43   6 C                                       1.3752024
    37   6 C       44   6 C                                       1.4174620
    44   6 C       45   6 C                                       1.4014419
    45   6 C       46   6 C                                       1.3807380
    38   6 C       47   6 C                                       1.4173551
    46   6 C       47   6 C                                       1.3570918
    28   6 C       48   8 O                                       1.3371172
    44   6 C       49   8 O                                       1.3330774
    22   8 O       53   5 B                                       1.4597571
    23   8 O       53   5 B                                       1.4628324
    48   8 O       53   5 B                                       1.4825955
    49   8 O       53   5 B                                       1.4670942
    26  16 S       54   8 O                                       1.4420505
    55   8 O       56   6 C                                       1.4156377
    57   8 O       58   6 C                                       1.4090768
    25  16 S       59   8 O                                       1.4470804
    50  16 S       60   8 O                                       1.4626939
    61   8 O       62   6 C                                       1.4126390
    52  16 S       63   8 O                                       1.4431993
    64   8 O       65   6 C                                       1.4105884
    51  16 S       66   8 O                                       1.4353870
    51  16 S       67   8 O                                       1.6316944 (max)
    67   8 O       68   6 C                                       1.4129398
    24  16 S       69   8 O                                       1.4458834
    70   8 O       71   6 C                                       1.4044694
    65   6 C       72   1 H                                       1.0883313
    65   6 C       73   1 H                                       1.0941622
    65   6 C       74   1 H                                       1.0936140
    68   6 C       75   1 H                                       1.0894625
    68   6 C       76   1 H                                       1.0934280
    68   6 C       77   1 H                                       1.0903733
    71   6 C       78   1 H                                       1.0901954
    71   6 C       79   1 H                                       1.0942661
    71   6 C       80   1 H                                       1.0942900
    62   6 C       81   1 H                                       1.0901868
    62   6 C       82   1 H                                       1.0920950
    62   6 C       83   1 H                                       1.0923791
    58   6 C       84   1 H                                       1.0908460
    58   6 C       85   1 H                                       1.0952191
    58   6 C       86   1 H                                       1.0915524
    56   6 C       87   1 H                                       1.0903110
    56   6 C       88   1 H                                       1.0883703
    56   6 C       89   1 H                                       1.0931390
    41   6 C       90   1 H                                       1.0805078
    43   6 C       91   1 H                                       1.0787301
    47   6 C       92   1 H                                       1.0767097
    31   6 C       93   1 H                                       1.0766213
    45   6 C       94   1 H                                       1.0738317 (min)
    27   6 C       95   1 H                                       1.0799040
     1   6 C       96   1 H                                       1.0776607
    19   6 C       97   1 H                                       1.0776045
    21   6 C       98   1 H                                       1.0803177
     5   6 C       99   1 H                                       1.0778375
    17   6 C      100   1 H                                       1.0783939
    15   6 C      101   1 H                                       1.0787512
   102   6 C      103   6 C                                       1.3917149
   103   6 C      104   6 C                                       1.4103662
   105   6 C      106   6 C                                       1.4170408
   102   6 C      107   6 C                                       1.3900495
   106   6 C      107   6 C                                       1.3652174
   108   6 C      109   6 C                                       1.4133135
   109   6 C      110   6 C                                       1.4266492
   105   6 C      111   7 N                                       1.3256249
   110   6 C      111   7 N                                       1.3275580
   113   6 C      114   7 N                                       1.3255313
   109   6 C      115   6 C                                       1.4232637
   114   7 N      115   6 C                                       1.3257855
   115   6 C      116   6 C                                       1.4166234
   116   6 C      117   6 C                                       1.3754370
   110   6 C      118   6 C                                       1.4093836
   117   6 C      118   6 C                                       1.3800879
   112   6 C      119   6 C                                       1.4246981
   119   6 C      120   6 C                                       1.4044492
   120   6 C      121   6 C                                       1.3870867
   113   6 C      122   6 C                                       1.4169906
   121   6 C      122   6 C                                       1.3639456
   103   6 C      123   8 O                                       1.3326141
   119   6 C      124   8 O                                       1.3335919
   128   6 C      129   6 C                                       1.3960809
   129   6 C      130   6 C                                       1.4181509
   131   6 C      132   6 C                                       1.4194332
   128   6 C      133   6 C                                       1.3857505
   132   6 C      133   6 C                                       1.3615654
   134   6 C      135   6 C                                       1.4192278
   135   6 C      136   6 C                                       1.4260109
   131   6 C      137   7 N                                       1.3242782
   136   6 C      137   7 N                                       1.3241431
   139   6 C      140   7 N                                       1.3250725
   135   6 C      141   6 C                                       1.4243686
   140   7 N      141   6 C                                       1.3236550
   141   6 C      142   6 C                                       1.4134991
   142   6 C      143   6 C                                       1.3764706
   136   6 C      144   6 C                                       1.4126249
   143   6 C      144   6 C                                       1.3798638
   138   6 C      145   6 C                                       1.4335459
   145   6 C      146   6 C                                       1.4052956
   146   6 C      147   6 C                                       1.3831744
   139   6 C      148   6 C                                       1.4201935
   147   6 C      148   6 C                                       1.3648077
   129   6 C      149   8 O                                       1.3305220
   145   6 C      150   8 O                                       1.3191916
   123   8 O      154   5 B                                       1.4673951
   124   8 O      154   5 B                                       1.4790161
   149   8 O      154   5 B                                       1.4465413
   150   8 O      154   5 B                                       1.4507226
   127  16 S      155   8 O                                       1.4437178
   156   8 O      157   6 C                                       1.4050966
   158   8 O      159   6 C                                       1.4148914
   126  16 S      160   8 O                                       1.4537632
   151  16 S      161   8 O                                       1.4614987
   162   8 O      163   6 C                                       1.4085500
   153  16 S      164   8 O                                       1.4551142
   165   8 O      166   6 C                                       1.4086063
   152  16 S      167   8 O                                       1.4637593
   168   8 O      169   6 C                                       1.4178595
   125  16 S      170   8 O                                       1.4451337
   171   8 O      172   6 C                                       1.4144344
   166   6 C      173   1 H                                       1.0883623
   166   6 C      174   1 H                                       1.0943044
Note: The following floating-point exceptions are signalling: IEEE_UNDERFLOW_FLAG
normal termination of xtb
   166   6 C      175   1 H                                       1.0936088
   169   6 C      176   1 H                                       1.0923473
   169   6 C      177   1 H                                       1.0923626
   169   6 C      178   1 H                                       1.0881789
   172   6 C      179   1 H                                       1.0903891
   172   6 C      180   1 H                                       1.0883218
   172   6 C      181   1 H                                       1.0936956
   163   6 C      182   1 H                                       1.0892269
   163   6 C      183   1 H                                       1.0939364
   163   6 C      184   1 H                                       1.0934414
   159   6 C      185   1 H                                       1.0929962
   159   6 C      186   1 H                                       1.0930120
   159   6 C      187   1 H                                       1.0895290
   157   6 C      188   1 H                                       1.0888530
   157   6 C      189   1 H                                       1.0946331
   157   6 C      190   1 H                                       1.0943607
   142   6 C      191   1 H                                       1.0800310
   144   6 C      192   1 H                                       1.0786028
   148   6 C      193   1 H                                       1.0771127
   132   6 C      194   1 H                                       1.0769793
   146   6 C      195   1 H                                       1.0763584
   128   6 C      196   1 H                                       1.0797464
   102   6 C      197   1 H                                       1.0785272
   120   6 C      198   1 H                                       1.0779453
   122   6 C      199   1 H                                       1.0776459
   106   6 C      200   1 H                                       1.0767070
   118   6 C      201   1 H                                       1.0800654
   116   6 C      202   1 H                                       1.0785886

 * 6 distinct bonds (by element types)

   Z      Z             #   av. dist./Å        max./Å        min./Å
   1 H    6 C          60     1.0863160     1.0952191     1.0738317
   6 C    6 C          69     1.4017406     1.4335459     1.3570918
   6 C    7 N          16     1.3252970     1.3296845     1.3209384
   5 B    8 O           8     1.4644943     1.4825955     1.4465413
   6 C    8 O          20     1.3796271     1.4178595     1.3191916
   8 O   16 S          13     1.4639212     1.6316944     1.4353870


optimized geometry written to: xtbopt.mol


           -------------------------------------------------
          | TOTAL ENERGY             -413.894766476163 Eh   |
          | GRADIENT NORM               0.000521253916 Eh/α |
          | HOMO-LUMO GAP               0.063151371922 eV   |
           -------------------------------------------------
########################################################################
[WARNING] Runtime exception occurred
-1- restart_readRestart: Number of electron missmatch in restart file.
########################################################################

------------------------------------------------------------------------
 * finished run on 2024/10/31 at 14:48:58.799     
------------------------------------------------------------------------
 total:
 * wall-time:     0 d,  0 h,  7 min,  8.828 sec
 *  cpu-time:     0 d,  0 h, 24 min, 55.108 sec
 * ratio c/w:     3.486 speedup
 SCF:
 * wall-time:     0 d,  0 h,  0 min,  5.782 sec
 *  cpu-time:     0 d,  0 h,  0 min, 21.914 sec
 * ratio c/w:     3.790 speedup
 ANC optimizer:
 * wall-time:     0 d,  0 h,  7 min,  2.977 sec
 *  cpu-time:     0 d,  0 h, 24 min, 33.086 sec
 * ratio c/w:     3.483 speedup

