      -----------------------------------------------------------      
     |                   =====================                   |     
     |                           x T B                           |     
     |                   =====================                   |     
     |                         S. Grimme                         |     
     |          Mulliken Center for Theoretical Chemistry        |     
     |                    University of Bonn                     |     
      -----------------------------------------------------------      

   * xtb version 6.6.1 (8d0f1dd) compiled by 'runner@Mac-1690902418499.local' on 2023-08-01

   xtb is free software: you can redistribute it and/or modify it under
   the terms of the GNU Lesser General Public License as published by
   the Free Software Foundation, either version 3 of the License, or
   (at your option) any later version.
   
   xtb is distributed in the hope that it will be useful,
   but WITHOUT ANY WARRANTY; without even the implied warranty of
   MERCHANTABILITY or FITNESS FOR A PARTICULAR PURPOSE.  See the
   GNU Lesser General Public License for more details.
   
   Cite this work as:
   * C. Bannwarth, E. Caldeweyher, S. Ehlert, A. Hansen, P. Pracht,
     J. Seibert, S. Spicher, S. Grimme, WIREs Comput. Mol. Sci., 2020, 11,
     e01493. DOI: 10.1002/wcms.1493
   
   for GFN2-xTB:
   * C. Bannwarth, S. Ehlert and S. Grimme., J. Chem. Theory Comput., 2019,
     15, 1652-1671. DOI: 10.1021/acs.jctc.8b01176
   for GFN1-xTB:
   * S. Grimme, C. Bannwarth, P. Shushkov, J. Chem. Theory Comput., 2017,
     13, 1989-2009. DOI: 10.1021/acs.jctc.7b00118
   for GFN0-xTB:
   * P. Pracht, E. Caldeweyher, S. Ehlert, S. Grimme, ChemRxiv, 2019, preprint.
     DOI: 10.26434/chemrxiv.8326202.v1
   for GFN-FF:
   * S. Spicher and S. Grimme, Angew. Chem. Int. Ed., 2020, 59, 15665-15673.
     DOI: 10.1002/anie.202004239
   
   for ALPB and GBSA implicit solvation:
   * S. Ehlert, M. Stahn, S. Spicher, S. Grimme, J. Chem. Theory Comput.,
     2021, 17, 4250-4261. DOI: 10.1021/acs.jctc.1c00471
   
   for DFT-D4:
   * E. Caldeweyher, C. Bannwarth and S. Grimme, J. Chem. Phys., 2017,
     147, 034112. DOI: 10.1063/1.4993215
   * E. Caldeweyher, S. Ehlert, A. Hansen, H. Neugebauer, S. Spicher,
     C. Bannwarth and S. Grimme, J. Chem. Phys., 2019, 150, 154122.
     DOI: 10.1063/1.5090222
   * E. Caldeweyher, J.-M. Mewes, S. Ehlert and S. Grimme, Phys. Chem. Chem. Phys.
     2020, 22, 8499-8512. DOI: 10.1039/D0CP00502A
   
   for sTDA-xTB:
   * S. Grimme and C. Bannwarth, J. Chem. Phys., 2016, 145, 054103.
     DOI: 10.1063/1.4959605
   
   in the mass-spec context:
   * V. Asgeirsson, C. Bauer and S. Grimme, Chem. Sci., 2017, 8, 4879.
     DOI: 10.1039/c7sc00601b
   * J. Koopman and S. Grimme, ACS Omega 2019, 4, 12, 15120-15133.
     DOI: 10.1021/acsomega.9b02011
   
   for metadynamics refer to:
   * S. Grimme, J. Chem. Theory Comput., 2019, 155, 2847-2862
     DOI: 10.1021/acs.jctc.9b00143
   
   for SPH calculations refer to:
   * S. Spicher and S. Grimme, J. Chem. Theory Comput., 2021, 17, 1701-1714
     DOI: 10.1021/acs.jctc.0c01306
   
   with help from (in alphabetical order)
   P. Atkinson, C. Bannwarth, F. Bohle, G. Brandenburg, E. Caldeweyher
   M. Checinski, S. Dohm, S. Ehlert, S. Ehrlich, I. Gerasimov, C. Hölzer
   A. Katbashev, J. Koopman, C. Lavigne, S. Lehtola, F. März, M. Müller,
   F. Musil, H. Neugebauer, J. Pisarek, C. Plett, P. Pracht, F. Pultar,
   J. Seibert, P. Shushkov, S. Spicher, M. Stahn, M. Steiner, T. Strunk,
   J. Stückrath, T. Rose, and J. Unsleber
   
 * started run on 2024/10/31 at 14:22:43.658     

           -------------------------------------------------
          |                Calculation Setup                |
           -------------------------------------------------

          program call               : xtb opt_radical_Base1SO2Me.mol --gfn2 --sp --chrg 1 --uhf 1
          coordinate file            : opt_radical_Base1SO2Me.mol
          omp threads                :                     8

   ID    Z sym.   atoms
    1    6 C      1-9, 11, 12, 14-21, 27-35, 37, 38, 40-47, 56, 58, 62, 65,
                  68, 71
    2    7 N      10, 13, 36, 39
    3    8 O      22, 23, 48, 49, 54, 55, 57, 59-61, 63, 64, 66, 67, 69, 70
    4   16 S      24-26, 50-52
    5    5 B      53
    6    1 H      72-101

           -------------------------------------------------
          |                 G F N 2 - x T B                 |
           -------------------------------------------------

        Reference                      10.1021/acs.jctc.8b01176
      * Hamiltonian:
        H0-scaling (s, p, d)           1.850000    2.230000    2.230000
        zeta-weighting                 0.500000
      * Dispersion:
        s8                             2.700000
        a1                             0.520000
        a2                             5.000000
        s9                             5.000000
      * Repulsion:
        kExp                           1.500000    1.000000
        rExp                           1.000000
      * Coulomb:
        alpha                          2.000000
        third order                    shell-resolved
        anisotropic                    true
        a3                             3.000000
        a5                             4.000000
        cn-shift                       1.200000
        cn-exp                         4.000000
        max-rad                        5.000000

q/qsh data taken from xtbrestart
CAMM data taken from xtbrestart

          ...................................................
          :                      SETUP                      :
          :.................................................:
          :  # basis functions                 350          :
          :  # atomic orbitals                 344          :
          :  # shells                          178          :
          :  # electrons                       360          :
          :  max. iterations                   250          :
          :  Hamiltonian                  GFN2-xTB          :
          :  restarted?                       true          :
          :  GBSA solvation                  false          :
          :  PC potential                    false          :
          :  electronic temp.          300.0000000     K    :
          :  accuracy                    1.0000000          :
          :  -> integral cutoff          0.2500000E+02      :
          :  -> integral neglect         0.1000000E-07      :
          :  -> SCF convergence          0.1000000E-05 Eh   :
          :  -> wf. convergence          0.1000000E-03 e    :
          :  Broyden damping             0.4000000          :
          ...................................................

 iter      E             dE          RMSdq      gap      omega  full diag
   1   -208.9648274 -0.208965E+03  0.702E-01    0.24       0.0  T
   2   -208.6282451  0.336582E+00  0.132E+00    0.11       1.0  T
   3   -208.5956241  0.326210E-01  0.119E+00    0.07       1.0  T
   4   -208.6913708 -0.957467E-01  0.954E-01    0.04       1.0  T
   5   -208.8946597 -0.203289E+00  0.584E-01    0.05       1.0  T
   6   -208.9272459 -0.325862E-01  0.560E-01    0.24       1.0  T
   7   -208.9687310 -0.414851E-01  0.343E-01    0.22       1.0  T
   8   -208.9758493 -0.711830E-02  0.228E-01    0.17       1.0  T
   9   -208.9751701  0.679211E-03  0.207E-01    0.18       1.0  T
  10   -208.9783768 -0.320673E-02  0.122E-01    0.15       1.0  T
  11   -208.9795995 -0.122268E-02  0.861E-02    0.14       1.0  T
  12   -208.9797279 -0.128409E-03  0.617E-02    0.14       1.0  T
  13   -208.9801142 -0.386234E-03  0.274E-02    0.12       1.0  T
  14   -208.9802309 -0.116775E-03  0.142E-02    0.12       1.0  T
  15   -208.9802519 -0.209591E-04  0.750E-03    0.12       1.3  T
  16   -208.9802541 -0.221848E-05  0.505E-03    0.12       2.0  T
  17   -208.9802527  0.141262E-05  0.472E-03    0.12       2.1  T
  18   -208.9802546 -0.188354E-05  0.352E-03    0.12       2.8  T
  19   -208.9802555 -0.962273E-06  0.233E-03    0.12       4.3  T
  20   -208.9802561 -0.514967E-06  0.175E-03    0.12       5.7  T
  21   -208.9802567 -0.630076E-06  0.919E-04    0.12      10.8  T
  22   -208.9802568 -0.110682E-06  0.429E-04    0.12      23.2  T

   *** convergence criteria satisfied after 22 iterations ***

         #    Occupation            Energy/Eh            Energy/eV
      -------------------------------------------------------------
         1        2.0000           -0.8708365             -23.6967
       ...           ...                  ...                  ...
       174        2.0000           -0.4865716             -13.2403
       175        2.0000           -0.4855628             -13.2128
       176        2.0000           -0.4847197             -13.1899
       177        1.9999           -0.4840334             -13.1712
       178        1.9966           -0.4805454             -13.0763
       179        1.9748           -0.4786417             -13.0245
       180        1.8170           -0.4766783             -12.9711 (HOMO)
       181        0.1824           -0.4723134             -12.8523 (LUMO)
       182        0.0293           -0.4705005             -12.8030
       183                         -0.4061366             -11.0515
       184                         -0.4035090             -10.9800
       185                         -0.3708408             -10.0911
       ...                                ...                  ...
       344                          0.9131302              24.8475
      -------------------------------------------------------------
                  HL-Gap            0.0043649 Eh            0.1188 eV
             Fermi-level           -0.4744975 Eh          -12.9117 eV

 SCC (total)                   0 d,  0 h,  0 min,  1.486 sec
 SCC setup                      ...        0 min,  0.000 sec (  0.020%)
 Dispersion                     ...        0 min,  0.001 sec (  0.070%)
 classical contributions        ...        0 min,  0.000 sec (  0.015%)
 integral evaluation            ...        0 min,  0.007 sec (  0.441%)
 iterations                     ...        0 min,  1.441 sec ( 96.963%)
 molecular gradient             ...        0 min,  0.032 sec (  2.139%)
 printout                       ...        0 min,  0.005 sec (  0.352%)

         :::::::::::::::::::::::::::::::::::::::::::::::::::::
         ::                     SUMMARY                     ::
         :::::::::::::::::::::::::::::::::::::::::::::::::::::
         :: total energy            -206.674377237823 Eh    ::
         :: gradient norm              0.036752433929 Eh/a0 ::
         :: HOMO-LUMO gap              0.118774545923 eV    ::
         ::.................................................::
         :: SCC energy              -208.980256794554 Eh    ::
         :: -> isotropic ES            0.492471960498 Eh    ::
         :: -> anisotropic ES         -0.024827489765 Eh    ::
         :: -> anisotropic XC          0.066543067967 Eh    ::
         :: -> dispersion             -0.177128860706 Eh    ::
         :: repulsion energy           2.303594895319 Eh    ::
         :: add. restraining           0.000000000000 Eh    ::
         :: total charge               1.000013602395 e     ::
         :::::::::::::::::::::::::::::::::::::::::::::::::::::

           -------------------------------------------------
          |                Property Printout                |
           -------------------------------------------------

    * Orbital Energies and Occupations

         #    Occupation            Energy/Eh            Energy/eV
      -------------------------------------------------------------
         1        2.0000           -0.8708365             -23.6967
       ...           ...                  ...                  ...
       168        2.0000           -0.5064317             -13.7807
       169        2.0000           -0.5040517             -13.7159
       170        2.0000           -0.5012962             -13.6410
       171        2.0000           -0.4958117             -13.4917
       172        2.0000           -0.4913582             -13.3705
       173        2.0000           -0.4880898             -13.2816
       174        2.0000           -0.4865716             -13.2403
       175        2.0000           -0.4855628             -13.2128
       176        2.0000           -0.4847197             -13.1899
       177        1.9999           -0.4840334             -13.1712
       178        1.9966           -0.4805454             -13.0763
       179        1.9748           -0.4786417             -13.0245
       180        1.8170           -0.4766783             -12.9711 (HOMO)
       181        0.1824           -0.4723134             -12.8523 (LUMO)
       182        0.0293           -0.4705005             -12.8030
       183                         -0.4061366             -11.0515
       184                         -0.4035090             -10.9800
       185                         -0.3708408             -10.0911
       186                         -0.3687230             -10.0335
       187                         -0.3672787              -9.9942
       188                         -0.3658963              -9.9565
       189                         -0.3499135              -9.5216
       190                         -0.3456426              -9.4054
       191                         -0.3309206              -9.0048
       ...                                ...                  ...
       344                          0.9131302              24.8475
      -------------------------------------------------------------
                  HL-Gap            0.0043649 Eh            0.1188 eV
             Fermi-level           -0.4744975 Eh          -12.9117 eV

     #   Z          covCN         q      C6AA      α(0)
     1   6 C        2.947    -0.043    29.060     8.842
     2   6 C        2.877     0.181    24.128     8.052
     3   6 C        2.976    -0.013    28.331     8.731
     4   6 C        2.970     0.102    25.737     8.321
     5   6 C        2.952    -0.028    28.708     8.788
     6   6 C        2.955    -0.055    29.354     8.887
     7   6 C        2.972     0.052    26.820     8.495
     8   6 C        2.997    -0.019    28.473     8.753
     9   6 C        2.964     0.100    25.775     8.327
    10   7 N        1.858    -0.185    25.814     7.531
    11   6 C        2.970    -0.012    28.317     8.729
    12   6 C        2.969     0.107    25.640     8.306
    13   7 N        1.865    -0.184    25.813     7.531
    14   6 C        2.963     0.102    25.746     8.323
    15   6 C        2.946    -0.010    28.255     8.718
    16   6 C        2.952    -0.051    29.274     8.874
    17   6 C        2.945    -0.000    28.037     8.684
    18   6 C        2.845     0.181    24.131     8.051
    19   6 C        2.931    -0.033    28.818     8.804
    20   6 C        2.953    -0.049    29.215     8.865
    21   6 C        2.993    -0.031    28.757     8.797
    22   8 O        1.636    -0.395    20.770     6.152
    23   8 O        1.635    -0.401    20.880     6.168
    24  16 S        2.843     0.753   114.042    17.974
    25  16 S        3.015     0.836   111.506    17.773
    26  16 S        2.845     0.738   114.522    18.011
    27   6 C        2.945    -0.037    28.918     8.820
    28   6 C        2.859     0.176    24.221     8.067
    29   6 C        2.969    -0.019    28.476     8.753
    30   6 C        2.967     0.100    25.772     8.327
    31   6 C        2.966    -0.044    29.080     8.845
    32   6 C        2.955    -0.053    29.327     8.882
    33   6 C        2.969     0.048    26.913     8.509
    34   6 C        2.996    -0.020    28.505     8.758
    35   6 C        2.963     0.103    25.725     8.319
    36   7 N        1.862    -0.199    26.147     7.579
    37   6 C        2.972    -0.013    28.329     8.730
    38   6 C        2.973     0.103    25.709     8.317
    39   7 N        1.861    -0.183    25.786     7.527
    40   6 C        2.964     0.099    25.801     8.332
    41   6 C        2.943    -0.002    28.071     8.690
    42   6 C        2.953    -0.052    29.285     8.876
    43   6 C        2.947    -0.012    28.318     8.728
    44   6 C        2.846     0.184    24.059     8.039
    45   6 C        2.946    -0.044    29.093     8.847
    46   6 C        2.954    -0.054    29.329     8.883
    47   6 C        2.955    -0.028    28.690     8.785
    48   8 O        1.638    -0.393    20.721     6.145
    49   8 O        1.638    -0.388    20.619     6.129
    50  16 S        3.130     0.775   113.353    17.919
    51  16 S        2.852     0.736   114.575    18.016
    52  16 S        2.846     0.730   114.789    18.032
    53   5 B        3.202     0.623    13.280     6.078
    54   8 O        0.860    -0.489    23.534     6.504
    55   8 O        1.706    -0.370    20.251     6.076
    56   6 C        3.739     0.040    19.979     6.378
    57   8 O        1.912    -0.406    20.926     6.178
    58   6 C        3.705     0.025    20.295     6.440
    59   8 O        0.860    -0.506    23.922     6.558
    60   8 O        0.963    -0.557    25.025     6.710
    61   8 O        1.706    -0.371    20.272     6.079
    62   6 C        3.718     0.037    20.068     6.399
    63   8 O        0.860    -0.490    23.554     6.507
    64   8 O        1.706    -0.371    20.272     6.079
    65   6 C        3.739     0.041    19.968     6.376
    66   8 O        0.860    -0.484    23.441     6.491
    67   8 O        1.706    -0.371    20.284     6.081
    68   6 C        3.747     0.037    20.007     6.380
    69   8 O        0.860    -0.492    23.600     6.513
    70   8 O        1.706    -0.382    20.489     6.111
    71   6 C        3.734     0.042    19.947     6.374
    72   1 H        0.925     0.075     2.033     2.230
    73   1 H        0.924     0.069     2.102     2.267
    74   1 H        0.924     0.034     2.527     2.486
    75   1 H        0.925     0.074     2.044     2.236
    76   1 H        0.924     0.070     2.088     2.260
    77   1 H        0.924     0.043     2.404     2.425
    78   1 H        0.925     0.065     2.143     2.289
    79   1 H        0.924     0.036     2.503     2.474
    80   1 H        0.924     0.069     2.100     2.266
    81   1 H        0.925     0.078     2.000     2.212
    82   1 H        0.924     0.045     2.384     2.415
    83   1 H        0.924     0.064     2.149     2.292
    84   1 H        0.924     0.066     2.125     2.280
    85   1 H        0.924     0.096     1.823     2.111
    86   1 H        0.924     0.057     2.231     2.336
    87   1 H        0.925     0.076     2.019     2.222
    88   1 H        0.924     0.035     2.514     2.479
    89   1 H        0.924     0.069     2.094     2.263
    90   1 H        0.926     0.118     1.632     1.998
    91   1 H        0.926     0.098     1.803     2.100
    92   1 H        0.926     0.113     1.670     2.021
    93   1 H        0.926     0.086     1.915     2.164
    94   1 H        0.926     0.087     1.904     2.158
    95   1 H        0.926     0.087     1.911     2.162
    96   1 H        0.926     0.077     2.012     2.218
    97   1 H        0.926     0.071     2.078     2.254
    98   1 H        0.926     0.098     1.801     2.099
    99   1 H        0.926     0.108     1.710     2.045
   100   1 H        0.926     0.119     1.617     1.989
   101   1 H        0.926     0.101     1.776     2.084

 Mol. C6AA /au·bohr⁶  :     185069.136776
 Mol. C8AA /au·bohr⁸  :    5107538.998955
 Mol. α(0) /au        :        676.484928


Wiberg/Mayer (AO) data.
largest (>0.10) Wiberg bond orders for each atom

 ---------------------------------------------------------------------------
     #   Z sym  total        # sym  WBO       # sym  WBO       # sym  WBO
 ---------------------------------------------------------------------------
     1   6 C    3.887 --     2 C    1.370     6 C    1.336    96 H    0.953
     2   6 C    3.940 --     1 C    1.370     3 C    1.268    22 O    1.107
     3   6 C    3.967 --     2 C    1.268     7 C    1.221     4 C    1.170
     4   6 C    3.971 --    10 N    1.397     5 C    1.208     3 C    1.170
     5   6 C    3.908 --     6 C    1.522     4 C    1.208    99 H    0.953
     6   6 C    3.945 --     5 C    1.522     1 C    1.336    24 S    0.884
     7   6 C    3.981 --     8 C    1.307     3 C    1.221    11 C    1.205
     8   6 C    3.981 --     7 C    1.307    14 C    1.197     9 C    1.196
     9   6 C    3.977 --    10 N    1.344    17 C    1.251     8 C    1.196
    10   7 N    3.007 --     4 C    1.397     9 C    1.344
    11   6 C    3.966 --    18 C    1.273     7 C    1.205    12 C    1.172
    12   6 C    3.969 --    13 N    1.393    21 C    1.211    11 C    1.172
    13   7 N    3.015 --    12 C    1.393    14 C    1.339
    14   6 C    3.977 --    13 N    1.339    15 C    1.256     8 C    1.197
    15   6 C    3.872 --    16 C    1.437    14 C    1.256   101 H    0.958
    16   6 C    3.956 --    17 C    1.437    15 C    1.437    26 S    0.882
    17   6 C    3.864 --    16 C    1.437     9 C    1.251   100 H    0.950
    18   6 C    3.936 --    19 C    1.342    11 C    1.273    23 O    1.127
    19   6 C    3.879 --    20 C    1.357    18 C    1.342    97 H    0.957
    20   6 C    3.921 --    21 C    1.507    19 C    1.357    25 S    0.869
    21   6 C    3.900 --    20 C    1.507    12 C    1.211    98 H    0.956
    22   8 O    2.138 --     2 C    1.107    53 B    0.783
    23   8 O    2.142 --    18 C    1.127    53 B    0.773
    24  16 S    3.890 --    69 O    1.864    70 O    1.033     6 C    0.884
    25  16 S    3.852 --    59 O    1.820    57 O    0.967    20 C    0.869
    26  16 S    3.917 --    54 O    1.868    55 O    1.056    16 C    0.882
    27   6 C    3.892 --    28 C    1.366    32 C    1.344    95 H    0.957
    28   6 C    3.936 --    27 C    1.366    29 C    1.258    48 O    1.115
    29   6 C    3.967 --    28 C    1.258    33 C    1.228    30 C    1.180
    30   6 C    3.973 --    36 N    1.376    31 C    1.228    29 C    1.180
    31   6 C    3.917 --    32 C    1.515    30 C    1.228    93 H    0.960
    32   6 C    3.938 --    31 C    1.515    27 C    1.344    50 S    0.881
    33   6 C    3.981 --    34 C    1.312    29 C    1.228    37 C    1.197
    34   6 C    3.981 --    33 C    1.312    35 C    1.192    40 C    1.192
    35   6 C    3.977 --    36 N    1.360    43 C    1.242    34 C    1.192
    36   7 N    2.989 --    30 C    1.376    35 C    1.360
    37   6 C    3.962 --    44 C    1.269    33 C    1.197    38 C    1.159
    38   6 C    3.970 --    39 N    1.407    47 C    1.204    37 C    1.159
    39   7 N    3.024 --    38 C    1.407    40 C    1.334
    40   6 C    3.978 --    39 N    1.334    41 C    1.264    34 C    1.192
    41   6 C    3.852 --    42 C    1.420    40 C    1.264    90 H    0.951
    42   6 C    3.958 --    43 C    1.449    41 C    1.420    52 S    0.888
    43   6 C    3.856 --    42 C    1.449    35 C    1.242    91 H    0.958
    44   6 C    3.922 --    45 C    1.356    37 C    1.269    49 O    1.124
    45   6 C    3.871 --    44 C    1.356    46 C    1.344    94 H    0.946
    46   6 C    3.941 --    47 C    1.517    45 C    1.344    51 S    0.876
    47   6 C    3.901 --    46 C    1.517    38 C    1.204    92 H    0.950
    48   8 O    2.147 --    28 C    1.115    53 B    0.791
    49   8 O    2.174 --    44 C    1.124    53 B    0.803
    50  16 S    3.922 --    60 O    1.713    61 O    1.075    32 C    0.881
                            57 O    0.128
    51  16 S    3.914 --    66 O    1.853    67 O    1.065    46 C    0.876
    52  16 S    3.923 --    63 O    1.868    64 O    1.057    42 C    0.888
    53   5 B    3.307 --    49 O    0.803    48 O    0.791    22 O    0.783
                            23 O    0.773
    54   8 O    2.054 --    26 S    1.868
    55   8 O    2.180 --    26 S    1.056    56 C    0.973
    56   6 C    3.926 --    88 H    0.978    55 O    0.973    87 H    0.971
                            89 H    0.969
    57   8 O    2.189 --    25 S    0.967    58 C    0.960    50 S    0.128
    58   6 C    3.908 --    84 H    0.976    86 H    0.973    57 O    0.960
                            85 H    0.955
    59   8 O    2.005 --    25 S    1.820
    60   8 O    1.955 --    50 S    1.713
    61   8 O    2.178 --    50 S    1.075    62 C    0.968
    62   6 C    3.922 --    82 H    0.976    81 H    0.972    83 H    0.972
                            61 O    0.968
Note: The following floating-point exceptions are signalling: IEEE_UNDERFLOW_FLAG
normal termination of xtb
    63   8 O    2.054 --    52 S    1.868
    64   8 O    2.180 --    52 S    1.057    65 C    0.972
    65   6 C    3.927 --    74 H    0.979    64 O    0.972    72 H    0.972
                            73 H    0.969
    66   8 O    2.036 --    51 S    1.853
    67   8 O    2.179 --    51 S    1.065    68 C    0.967
    68   6 C    3.923 --    77 H    0.978    75 H    0.973    76 H    0.970
                            67 O    0.967
    69   8 O    2.042 --    24 S    1.864
    70   8 O    2.163 --    24 S    1.033    71 C    0.976
    71   6 C    3.930 --    79 H    0.977    70 O    0.976    78 H    0.972
                            80 H    0.969
    72   1 H    0.994 --    65 C    0.972
    73   1 H    0.995 --    65 C    0.969
    74   1 H    0.999 --    65 C    0.979
    75   1 H    0.994 --    68 C    0.973
    76   1 H    0.995 --    68 C    0.970
    77   1 H    0.997 --    68 C    0.978
    78   1 H    0.995 --    71 C    0.972
    79   1 H    0.998 --    71 C    0.977
    80   1 H    0.995 --    71 C    0.969
    81   1 H    0.993 --    62 C    0.972
    82   1 H    0.996 --    62 C    0.976
    83   1 H    0.995 --    62 C    0.972
    84   1 H    0.994 --    58 C    0.976
    85   1 H    0.990 --    58 C    0.955
    86   1 H    0.994 --    58 C    0.973
    87   1 H    0.994 --    56 C    0.971
    88   1 H    0.998 --    56 C    0.978
    89   1 H    0.995 --    56 C    0.969
    90   1 H    0.985 --    41 C    0.951
    91   1 H    0.989 --    43 C    0.958
    92   1 H    0.986 --    47 C    0.950
    93   1 H    0.991 --    31 C    0.960
    94   1 H    0.990 --    45 C    0.946
    95   1 H    0.991 --    27 C    0.957
    96   1 H    0.993 --     1 C    0.953
    97   1 H    0.993 --    19 C    0.957
    98   1 H    0.988 --    21 C    0.956
    99   1 H    0.987 --     5 C    0.953
   100   1 H    0.985 --    17 C    0.950
   101   1 H    0.989 --    15 C    0.958
 ---------------------------------------------------------------------------

Topologies differ in bond orders
Writing corrected topology to xtbtopo.mol

molecular dipole:
                 x           y           z       tot (Debye)
 q only:       -1.375      -1.444       0.868
   full:       -1.828      -1.019       1.057       5.959
molecular quadrupole (traceless):
                xx          xy          yy          xz          yz          zz
 q only:       47.215      26.993      -9.676      30.035      22.243     -37.539
  q+dip:       45.890      35.537     -13.142      33.501      12.937     -32.748
   full:       42.829      37.989     -20.989      28.463      13.451     -21.840


           -------------------------------------------------
          | TOTAL ENERGY             -206.674377237823 Eh   |
          | GRADIENT NORM               0.036752433929 Eh/α |
          | HOMO-LUMO GAP               0.118774545923 eV   |
           -------------------------------------------------
########################################################################
[WARNING] Runtime exception occurred
-1- restart_readRestart: Number of electron missmatch in restart file.
########################################################################

------------------------------------------------------------------------
 * finished run on 2024/10/31 at 14:22:45.161     
------------------------------------------------------------------------
 total:
 * wall-time:     0 d,  0 h,  0 min,  1.501 sec
 *  cpu-time:     0 d,  0 h,  0 min,  5.142 sec
 * ratio c/w:     3.425 speedup
 SCF:
 * wall-time:     0 d,  0 h,  0 min,  1.487 sec
 *  cpu-time:     0 d,  0 h,  0 min,  5.111 sec
 * ratio c/w:     3.438 speedup

