      -----------------------------------------------------------      
     |                   =====================                   |     
     |                           x T B                           |     
     |                   =====================                   |     
     |                         S. Grimme                         |     
     |          Mulliken Center for Theoretical Chemistry        |     
     |                    University of Bonn                     |     
      -----------------------------------------------------------      

   * xtb version 6.6.1 (8d0f1dd) compiled by 'runner@Mac-1690902418499.local' on 2023-08-01

   xtb is free software: you can redistribute it and/or modify it under
   the terms of the GNU Lesser General Public License as published by
   the Free Software Foundation, either version 3 of the License, or
   (at your option) any later version.
   
   xtb is distributed in the hope that it will be useful,
   but WITHOUT ANY WARRANTY; without even the implied warranty of
   MERCHANTABILITY or FITNESS FOR A PARTICULAR PURPOSE.  See the
   GNU Lesser General Public License for more details.
   
   Cite this work as:
   * C. Bannwarth, E. Caldeweyher, S. Ehlert, A. Hansen, P. Pracht,
     J. Seibert, S. Spicher, S. Grimme, WIREs Comput. Mol. Sci., 2020, 11,
     e01493. DOI: 10.1002/wcms.1493
   
   for GFN2-xTB:
   * C. Bannwarth, S. Ehlert and S. Grimme., J. Chem. Theory Comput., 2019,
     15, 1652-1671. DOI: 10.1021/acs.jctc.8b01176
   for GFN1-xTB:
   * S. Grimme, C. Bannwarth, P. Shushkov, J. Chem. Theory Comput., 2017,
     13, 1989-2009. DOI: 10.1021/acs.jctc.7b00118
   for GFN0-xTB:
   * P. Pracht, E. Caldeweyher, S. Ehlert, S. Grimme, ChemRxiv, 2019, preprint.
     DOI: 10.26434/chemrxiv.8326202.v1
   for GFN-FF:
   * S. Spicher and S. Grimme, Angew. Chem. Int. Ed., 2020, 59, 15665-15673.
     DOI: 10.1002/anie.202004239
   
   for ALPB and GBSA implicit solvation:
   * S. Ehlert, M. Stahn, S. Spicher, S. Grimme, J. Chem. Theory Comput.,
     2021, 17, 4250-4261. DOI: 10.1021/acs.jctc.1c00471
   
   for DFT-D4:
   * E. Caldeweyher, C. Bannwarth and S. Grimme, J. Chem. Phys., 2017,
     147, 034112. DOI: 10.1063/1.4993215
   * E. Caldeweyher, S. Ehlert, A. Hansen, H. Neugebauer, S. Spicher,
     C. Bannwarth and S. Grimme, J. Chem. Phys., 2019, 150, 154122.
     DOI: 10.1063/1.5090222
   * E. Caldeweyher, J.-M. Mewes, S. Ehlert and S. Grimme, Phys. Chem. Chem. Phys.
     2020, 22, 8499-8512. DOI: 10.1039/D0CP00502A
   
   for sTDA-xTB:
   * S. Grimme and C. Bannwarth, J. Chem. Phys., 2016, 145, 054103.
     DOI: 10.1063/1.4959605
   
   in the mass-spec context:
   * V. Asgeirsson, C. Bauer and S. Grimme, Chem. Sci., 2017, 8, 4879.
     DOI: 10.1039/c7sc00601b
   * J. Koopman and S. Grimme, ACS Omega 2019, 4, 12, 15120-15133.
     DOI: 10.1021/acsomega.9b02011
   
   for metadynamics refer to:
   * S. Grimme, J. Chem. Theory Comput., 2019, 155, 2847-2862
     DOI: 10.1021/acs.jctc.9b00143
   
   for SPH calculations refer to:
   * S. Spicher and S. Grimme, J. Chem. Theory Comput., 2021, 17, 1701-1714
     DOI: 10.1021/acs.jctc.0c01306
   
   with help from (in alphabetical order)
   P. Atkinson, C. Bannwarth, F. Bohle, G. Brandenburg, E. Caldeweyher
   M. Checinski, S. Dohm, S. Ehlert, S. Ehrlich, I. Gerasimov, C. Hölzer
   A. Katbashev, J. Koopman, C. Lavigne, S. Lehtola, F. März, M. Müller,
   F. Musil, H. Neugebauer, J. Pisarek, C. Plett, P. Pracht, F. Pultar,
   J. Seibert, P. Shushkov, S. Spicher, M. Stahn, M. Steiner, T. Strunk,
   J. Stückrath, T. Rose, and J. Unsleber
   
 * started run on 2024/10/31 at 14:22:36.200     

           -------------------------------------------------
          |                Calculation Setup                |
           -------------------------------------------------

          program call               : xtb opt_radical_Base1SO2Me.mol --gfn2 --sp --chrg 0 --uhf 1
          coordinate file            : opt_radical_Base1SO2Me.mol
          omp threads                :                     8

   ID    Z sym.   atoms
    1    6 C      1-9, 11, 12, 14-21, 27-35, 37, 38, 40-47, 56, 58, 62, 65,
                  68, 71
    2    7 N      10, 13, 36, 39
    3    8 O      22, 23, 48, 49, 54, 55, 57, 59-61, 63, 64, 66, 67, 69, 70
    4   16 S      24-26, 50-52
    5    5 B      53
    6    1 H      72-101

           -------------------------------------------------
          |                 G F N 2 - x T B                 |
           -------------------------------------------------

        Reference                      10.1021/acs.jctc.8b01176
      * Hamiltonian:
        H0-scaling (s, p, d)           1.850000    2.230000    2.230000
        zeta-weighting                 0.500000
      * Dispersion:
        s8                             2.700000
        a1                             0.520000
        a2                             5.000000
        s9                             5.000000
      * Repulsion:
        kExp                           1.500000    1.000000
        rExp                           1.000000
      * Coulomb:
        alpha                          2.000000
        third order                    shell-resolved
        anisotropic                    true
        a3                             3.000000
        a5                             4.000000
        cn-shift                       1.200000
        cn-exp                         4.000000
        max-rad                        5.000000

q/qsh data taken from xtbrestart
CAMM data taken from xtbrestart

          ...................................................
          :                      SETUP                      :
          :.................................................:
          :  # basis functions                 350          :
          :  # atomic orbitals                 344          :
          :  # shells                          178          :
          :  # electrons                       361          :
          :  max. iterations                   250          :
          :  Hamiltonian                  GFN2-xTB          :
          :  restarted?                       true          :
          :  GBSA solvation                  false          :
          :  PC potential                    false          :
          :  electronic temp.          300.0000000     K    :
          :  accuracy                    1.0000000          :
          :  -> integral cutoff          0.2500000E+02      :
          :  -> integral neglect         0.1000000E-07      :
          :  -> SCF convergence          0.1000000E-05 Eh   :
          :  -> wf. convergence          0.1000000E-03 e    :
          :  Broyden damping             0.4000000          :
          ...................................................

 iter      E             dE          RMSdq      gap      omega  full diag
   1   -209.3960553 -0.209396E+03  0.665E-01    0.05       0.0  T
   2   -209.3361655  0.598899E-01  0.627E-01    0.27       1.0  T
   3   -209.0318961  0.304269E+00  0.114E+00    0.36       1.0  T
   4   -209.3961507 -0.364255E+00  0.300E-01    0.06       1.0  T
   5   -209.4039331 -0.778235E-02  0.178E-01    0.05       1.0  T
   6   -209.3997751  0.415797E-02  0.176E-01    0.06       1.0  T
   7   -209.4024418 -0.266665E-02  0.154E-01    0.07       1.0  T
   8   -209.4049598 -0.251806E-02  0.101E-01    0.05       1.0  T
   9   -209.4063578 -0.139803E-02  0.317E-02    0.05       1.0  T
  10   -209.4063944 -0.365210E-04  0.210E-02    0.05       1.0  T
  11   -209.4064497 -0.552936E-04  0.118E-02    0.05       1.0  T
  12   -209.4064690 -0.192962E-04  0.442E-03    0.05       2.3  T
  13   -209.4064664  0.253334E-05  0.414E-03    0.05       2.4  T
  14   -209.4064693 -0.288101E-05  0.151E-03    0.05       6.6  T
  15   -209.4064695 -0.244657E-06  0.111E-03    0.05       9.0  T
  16   -209.4064698 -0.204947E-06  0.515E-04    0.05      19.3  T
  17   -209.4064698 -0.546748E-07  0.174E-04    0.05      57.0  T

   *** convergence criteria satisfied after 17 iterations ***

         #    Occupation            Energy/Eh            Energy/eV
      -------------------------------------------------------------
         1        2.0000           -0.7893757             -21.4800
       ...           ...                  ...                  ...
       175        2.0000           -0.3983368             -10.8393
       176        2.0000           -0.3971847             -10.8079
       177        2.0000           -0.3931909             -10.6993
       178        1.9999           -0.3910041             -10.6398
       179        1.9993           -0.3891417             -10.5891
       180        1.9892           -0.3865052             -10.5173
       181        0.7467           -0.3778599             -10.2821 (HOMO)
       182        0.2649           -0.3759075             -10.2290 (LUMO)
       183                         -0.3123854              -8.5004
       184                         -0.3097316              -8.4282
       185                         -0.2793601              -7.6018
       186                         -0.2763955              -7.5211
       ...                                ...                  ...
       344                          0.9910438              26.9677
      -------------------------------------------------------------
                  HL-Gap            0.0019524 Eh            0.0531 eV
             Fermi-level           -0.3795454 Eh          -10.3280 eV

 SCC (total)                   0 d,  0 h,  0 min,  0.921 sec
 SCC setup                      ...        0 min,  0.001 sec (  0.114%)
 Dispersion                     ...        0 min,  0.002 sec (  0.165%)
 classical contributions        ...        0 min,  0.000 sec (  0.043%)
 integral evaluation            ...        0 min,  0.008 sec (  0.826%)
 iterations                     ...        0 min,  0.873 sec ( 94.711%)
 molecular gradient             ...        0 min,  0.033 sec (  3.553%)
 printout                       ...        0 min,  0.005 sec (  0.587%)

         :::::::::::::::::::::::::::::::::::::::::::::::::::::
         ::                     SUMMARY                     ::
         :::::::::::::::::::::::::::::::::::::::::::::::::::::
         :: total energy            -207.100590248092 Eh    ::
         :: gradient norm              0.000465604684 Eh/a0 ::
         :: HOMO-LUMO gap              0.053128130598 eV    ::
         ::.................................................::
         :: SCC energy              -209.406469804822 Eh    ::
         :: -> isotropic ES            0.468502399964 Eh    ::
         :: -> anisotropic ES         -0.024230634426 Eh    ::
         :: -> anisotropic XC          0.061796893510 Eh    ::
         :: -> dispersion             -0.179099253093 Eh    ::
         :: repulsion energy           2.303594895319 Eh    ::
         :: add. restraining           0.000000000000 Eh    ::
         :: total charge               0.000010252203 e     ::
         :::::::::::::::::::::::::::::::::::::::::::::::::::::

           -------------------------------------------------
          |                Property Printout                |
           -------------------------------------------------

    * Orbital Energies and Occupations

         #    Occupation            Energy/Eh            Energy/eV
      -------------------------------------------------------------
         1        2.0000           -0.7893757             -21.4800
       ...           ...                  ...                  ...
       169        2.0000           -0.4144759             -11.2785
       170        2.0000           -0.4091393             -11.1332
       171        2.0000           -0.4053876             -11.0312
       172        2.0000           -0.4039449             -10.9919
       173        2.0000           -0.4028442             -10.9619
       174        2.0000           -0.4007695             -10.9055
       175        2.0000           -0.3983368             -10.8393
       176        2.0000           -0.3971847             -10.8079
       177        2.0000           -0.3931909             -10.6993
       178        1.9999           -0.3910041             -10.6398
       179        1.9993           -0.3891417             -10.5891
       180        1.9892           -0.3865052             -10.5173
       181        0.7467           -0.3778599             -10.2821 (HOMO)
       182        0.2649           -0.3759075             -10.2290 (LUMO)
       183                         -0.3123854              -8.5004
       184                         -0.3097316              -8.4282
       185                         -0.2793601              -7.6018
       186                         -0.2763955              -7.5211
       187                         -0.2754921              -7.4965
       188                         -0.2724283              -7.4132
       189                         -0.2569632              -6.9923
       190                         -0.2529939              -6.8843
       191                         -0.2412229              -6.5640
       192                         -0.2397161              -6.5230
       ...                                ...                  ...
       344                          0.9910438              26.9677
      -------------------------------------------------------------
                  HL-Gap            0.0019524 Eh            0.0531 eV
             Fermi-level           -0.3795454 Eh          -10.3280 eV

     #   Z          covCN         q      C6AA      α(0)
     1   6 C        2.947    -0.052    29.291     8.877
     2   6 C        2.877     0.177    24.196     8.064
     3   6 C        2.976    -0.020    28.494     8.756
     4   6 C        2.970     0.097    25.836     8.337
     5   6 C        2.952    -0.038    28.946     8.824
     6   6 C        2.955    -0.057    29.406     8.894
     7   6 C        2.972     0.048    26.922     8.511
     8   6 C        2.997    -0.024    28.588     8.771
     9   6 C        2.964     0.096    25.871     8.343
    10   7 N        1.858    -0.216    26.548     7.637
    11   6 C        2.970    -0.020    28.497     8.756
    12   6 C        2.969     0.102    25.735     8.321
    13   7 N        1.865    -0.214    26.491     7.629
    14   6 C        2.963     0.097    25.846     8.339
    15   6 C        2.946    -0.027    28.667     8.781
    16   6 C        2.952    -0.054    29.344     8.885
    17   6 C        2.945    -0.017    28.438     8.746
    18   6 C        2.845     0.177    24.192     8.061
    19   6 C        2.931    -0.038    28.942     8.823
    20   6 C        2.953    -0.050    29.236     8.869
    21   6 C        2.993    -0.038    28.942     8.825
    22   8 O        1.636    -0.406    20.970     6.181
    23   8 O        1.635    -0.410    21.049     6.193
    24  16 S        2.843     0.716   115.206    18.065
    25  16 S        3.015     0.778   113.279    17.913
    26  16 S        2.845     0.695   115.881    18.118
    27   6 C        2.945    -0.043    29.071     8.843
    28   6 C        2.859     0.173    24.277     8.076
    29   6 C        2.969    -0.025    28.628     8.776
    30   6 C        2.967     0.097    25.846     8.339
    31   6 C        2.966    -0.051    29.251     8.871
    32   6 C        2.955    -0.054    29.341     8.884
    33   6 C        2.969     0.044    27.007     8.524
    34   6 C        2.996    -0.025    28.606     8.774
    35   6 C        2.963     0.098    25.819     8.335
    36   7 N        1.862    -0.227    26.805     7.674
    37   6 C        2.972    -0.020    28.514     8.759
    38   6 C        2.973     0.098    25.816     8.334
    39   7 N        1.861    -0.213    26.486     7.628
    40   6 C        2.964     0.095    25.893     8.346
    41   6 C        2.943    -0.019    28.494     8.755
    42   6 C        2.953    -0.054    29.347     8.885
    43   6 C        2.947    -0.030    28.746     8.794
    44   6 C        2.846     0.181    24.124     8.050
    45   6 C        2.946    -0.054    29.347     8.885
    46   6 C        2.954    -0.056    29.382     8.891
    47   6 C        2.955    -0.038    28.940     8.824
    48   8 O        1.638    -0.403    20.922     6.174
    49   8 O        1.638    -0.396    20.786     6.154
    50  16 S        3.130     0.730   114.781    18.032
    51  16 S        2.852     0.688   116.102    18.135
    52  16 S        2.846     0.690   116.028    18.129
    53   5 B        3.202     0.626    13.244     6.069
    54   8 O        0.860    -0.495    23.683     6.525
    55   8 O        1.706    -0.373    20.323     6.087
    56   6 C        3.739     0.045    19.889     6.364
    57   8 O        1.912    -0.401    20.829     6.164
    58   6 C        3.705     0.032    20.176     6.422
    59   8 O        0.860    -0.522    24.279     6.606
    60   8 O        0.963    -0.559    25.059     6.714
    61   8 O        1.706    -0.378    20.401     6.098
    62   6 C        3.718     0.042    19.978     6.385
    63   8 O        0.860    -0.496    23.687     6.525
    64   8 O        1.706    -0.373    20.321     6.086
    65   6 C        3.739     0.046    19.885     6.363
    66   8 O        0.860    -0.498    23.732     6.531
    67   8 O        1.706    -0.371    20.283     6.081
    68   6 C        3.747     0.044    19.900     6.363
    69   8 O        0.860    -0.503    23.841     6.547
    70   8 O        1.706    -0.380    20.450     6.106
    71   6 C        3.734     0.048    19.852     6.359
    72   1 H        0.925     0.063     2.165     2.301
    73   1 H        0.924     0.064     2.153     2.295
    74   1 H        0.924     0.035     2.512     2.478
    75   1 H        0.925     0.063     2.161     2.299
    76   1 H        0.924     0.062     2.172     2.305
    77   1 H        0.924     0.042     2.417     2.431
    78   1 H        0.925     0.055     2.253     2.348
    79   1 H        0.924     0.036     2.498     2.472
    80   1 H        0.924     0.062     2.179     2.308
    81   1 H        0.925     0.064     2.155     2.296
    82   1 H        0.924     0.041     2.436     2.441
    83   1 H        0.924     0.062     2.181     2.310
    84   1 H        0.924     0.055     2.264     2.353
    85   1 H        0.924     0.088     1.894     2.152
    86   1 H        0.924     0.053     2.279     2.361
    87   1 H        0.925     0.063     2.159     2.298
    88   1 H        0.924     0.035     2.511     2.478
    89   1 H        0.924     0.064     2.150     2.293
    90   1 H        0.926     0.096     1.821     2.110
    91   1 H        0.926     0.076     2.017     2.221
    92   1 H        0.926     0.095     1.834     2.118
    93   1 H        0.926     0.070     2.083     2.257
    94   1 H        0.926     0.076     2.022     2.224
    95   1 H        0.926     0.075     2.031     2.229
    96   1 H        0.926     0.065     2.145     2.290
    97   1 H        0.926     0.062     2.171     2.304
    98   1 H        0.926     0.081     1.968     2.194
    99   1 H        0.926     0.091     1.870     2.138
   100   1 H        0.926     0.098     1.802     2.099
   101   1 H        0.926     0.079     1.986     2.204

 Mol. C6AA /au·bohr⁶  :     187203.810956
 Mol. C8AA /au·bohr⁸  :    5159283.673772
 Mol. α(0) /au        :        680.390372


Wiberg/Mayer (AO) data.
largest (>0.10) Wiberg bond orders for each atom

 ---------------------------------------------------------------------------
     #   Z sym  total        # sym  WBO       # sym  WBO       # sym  WBO
 ---------------------------------------------------------------------------
     1   6 C    3.901 --     2 C    1.382     6 C    1.335    96 H    0.955
     2   6 C    3.943 --     1 C    1.382     3 C    1.262    22 O    1.103
     3   6 C    3.956 --     2 C    1.262     7 C    1.222     4 C    1.178
     4   6 C    3.971 --    10 N    1.382     5 C    1.218     3 C    1.178
     5   6 C    3.919 --     6 C    1.524     4 C    1.218    99 H    0.956
     6   6 C    3.960 --     5 C    1.524     1 C    1.335    24 S    0.899
     7   6 C    3.982 --     8 C    1.308     3 C    1.222    11 C    1.205
     8   6 C    3.983 --     7 C    1.308     9 C    1.197    14 C    1.197
     9   6 C    3.979 --    10 N    1.342    17 C    1.254     8 C    1.197
    10   7 N    2.977 --     4 C    1.382     9 C    1.342
    11   6 C    3.957 --    18 C    1.273     7 C    1.205    12 C    1.177
    12   6 C    3.970 --    13 N    1.384    21 C    1.220    11 C    1.177
    13   7 N    2.980 --    12 C    1.384    14 C    1.334
    14   6 C    3.980 --    13 N    1.334    15 C    1.264     8 C    1.197
    15   6 C    3.851 --    16 C    1.430    14 C    1.264   101 H    0.962
    16   6 C    3.963 --    17 C    1.440    15 C    1.430    26 S    0.895
    17   6 C    3.846 --    16 C    1.440     9 C    1.254   100 H    0.955
    18   6 C    3.938 --    19 C    1.346    11 C    1.273    23 O    1.123
    19   6 C    3.883 --    20 C    1.358    18 C    1.346    97 H    0.958
    20   6 C    3.959 --    21 C    1.506    19 C    1.358    25 S    0.901
    21   6 C    3.903 --    20 C    1.506    12 C    1.220    98 H    0.959
    22   8 O    2.129 --     2 C    1.103    53 B    0.782
    23   8 O    2.138 --    18 C    1.123    53 B    0.772
    24  16 S    3.900 --    69 O    1.857    70 O    1.031     6 C    0.899
    25  16 S    3.889 --    59 O    1.827    57 O    0.964    20 C    0.901
    26  16 S    3.915 --    54 O    1.861    55 O    1.049    16 C    0.895
    27   6 C    3.902 --    28 C    1.374    32 C    1.345    95 H    0.960
    28   6 C    3.938 --    27 C    1.374    29 C    1.256    48 O    1.111
    29   6 C    3.959 --    28 C    1.256    33 C    1.227    30 C    1.186
    30   6 C    3.973 --    36 N    1.366    31 C    1.236    29 C    1.186
    31   6 C    3.923 --    32 C    1.513    30 C    1.236    93 H    0.963
    32   6 C    3.960 --    31 C    1.513    27 C    1.345    50 S    0.902
    33   6 C    3.982 --    34 C    1.314    29 C    1.227    37 C    1.199
    34   6 C    3.982 --    33 C    1.314    35 C    1.193    40 C    1.192
    35   6 C    3.978 --    36 N    1.355    43 C    1.248    34 C    1.193
    36   7 N    2.966 --    30 C    1.366    35 C    1.355
    37   6 C    3.951 --    44 C    1.265    33 C    1.199    38 C    1.167
    38   6 C    3.970 --    39 N    1.393    47 C    1.215    37 C    1.167
    39   7 N    2.995 --    38 C    1.393    40 C    1.333
    40   6 C    3.979 --    39 N    1.333    41 C    1.266    34 C    1.192
    41   6 C    3.845 --    42 C    1.424    40 C    1.266    90 H    0.956
    42   6 C    3.964 --    43 C    1.444    41 C    1.424    52 S    0.896
    43   6 C    3.848 --    42 C    1.444    35 C    1.248    91 H    0.962
    44   6 C    3.926 --    45 C    1.366    37 C    1.265    49 O    1.120
    45   6 C    3.885 --    44 C    1.366    46 C    1.343    94 H    0.949
    46   6 C    3.961 --    47 C    1.517    45 C    1.343    51 S    0.897
    47   6 C    3.909 --    46 C    1.517    38 C    1.215    92 H    0.955
    48   8 O    2.139 --    28 C    1.111    53 B    0.790
    49   8 O    2.171 --    44 C    1.120    53 B    0.803
    50  16 S    3.946 --    60 O    1.726    61 O    1.064    32 C    0.902
                            57 O    0.131
    51  16 S    3.926 --    66 O    1.853    67 O    1.059    46 C    0.897
    52  16 S    3.917 --    63 O    1.860    64 O    1.049    42 C    0.896
    53   5 B    3.303 --    49 O    0.803    48 O    0.790    22 O    0.782
                            23 O    0.772
    54   8 O    2.045 --    26 S    1.861
    55   8 O    2.172 --    26 S    1.049    56 C    0.976
    56   6 C    3.932 --    88 H    0.979    55 O    0.976    87 H    0.974
                            89 H    0.970
    57   8 O    2.199 --    58 C    0.965    25 S    0.964    50 S    0.131
    58   6 C    3.918 --    84 H    0.978    86 H    0.975    57 O    0.965
                            85 H    0.956
    59   8 O    2.020 --    25 S    1.827
    60   8 O    1.972 --    50 S    1.726
    61   8 O    2.172 --    50 S    1.064    62 C    0.973
    62   6 C    3.931 --    82 H    0.978    81 H    0.975    61 O    0.973
                            83 H    0.972
    63   8 O    2.045 --    52 S    1.860
    64   8 O    2.172 --    52 S    1.049    65 C    0.976
    65   6 C    3.933 --    74 H    0.979    64 O    0.976    72 H    0.974
                            73 H    0.970
    66   8 O    2.036 --    51 S    1.853
    67   8 O    2.178 --    51 S    1.059    68 C    0.972
    68   6 C    3.931 --    77 H    0.978    75 H    0.975    67 O    0.972
Note: The following floating-point exceptions are signalling: IEEE_UNDERFLOW_FLAG
normal termination of xtb
                            76 H    0.971
    69   8 O    2.038 --    24 S    1.857
    70   8 O    2.163 --    24 S    1.031    71 C    0.979
    71   6 C    3.936 --    70 O    0.979    79 H    0.978    78 H    0.974
                            80 H    0.970
    72   1 H    0.996 --    65 C    0.974
    73   1 H    0.996 --    65 C    0.970
    74   1 H    0.999 --    65 C    0.979
    75   1 H    0.996 --    68 C    0.975
    76   1 H    0.996 --    68 C    0.971
    77   1 H    0.998 --    68 C    0.978
    78   1 H    0.996 --    71 C    0.974
    79   1 H    0.998 --    71 C    0.978
    80   1 H    0.996 --    71 C    0.970
    81   1 H    0.995 --    62 C    0.975
    82   1 H    0.998 --    62 C    0.978
    83   1 H    0.996 --    62 C    0.972
    84   1 H    0.997 --    58 C    0.978
    85   1 H    0.992 --    58 C    0.956
    86   1 H    0.997 --    58 C    0.975
    87   1 H    0.996 --    56 C    0.974
    88   1 H    0.999 --    56 C    0.979
    89   1 H    0.996 --    56 C    0.970
    90   1 H    0.990 --    41 C    0.956
    91   1 H    0.993 --    43 C    0.962
    92   1 H    0.990 --    47 C    0.955
    93   1 H    0.994 --    31 C    0.963
    94   1 H    0.993 --    45 C    0.949
    95   1 H    0.994 --    27 C    0.960
    96   1 H    0.995 --     1 C    0.955
    97   1 H    0.995 --    19 C    0.958
    98   1 H    0.993 --    21 C    0.959
    99   1 H    0.991 --     5 C    0.956
   100   1 H    0.990 --    17 C    0.955
   101   1 H    0.993 --    15 C    0.962
 ---------------------------------------------------------------------------

Topologies differ in bond orders
Writing corrected topology to xtbtopo.mol

molecular dipole:
                 x           y           z       tot (Debye)
 q only:        0.248      -2.325       0.426
   full:       -0.235      -1.828       0.545       4.884
molecular quadrupole (traceless):
                xx          xy          yy          xz          yz          zz
 q only:       -7.398      18.818      -8.697       3.332      17.431      16.095
  q+dip:       -8.350      27.976     -13.245       7.386       7.944      21.595
   full:      -11.202      30.459     -20.965       2.494       8.400      32.167


           -------------------------------------------------
          | TOTAL ENERGY             -207.100590248092 Eh   |
          | GRADIENT NORM               0.000465604684 Eh/α |
          | HOMO-LUMO GAP               0.053128130598 eV   |
           -------------------------------------------------
########################################################################
[WARNING] Runtime exception occurred
-2- restart_readRestart: Multiplicity missmatch in restart file.
-1- restart_readRestart: Number of electron missmatch in restart file.
########################################################################

------------------------------------------------------------------------
 * finished run on 2024/10/31 at 14:22:37.162     
------------------------------------------------------------------------
 total:
 * wall-time:     0 d,  0 h,  0 min,  0.961 sec
 *  cpu-time:     0 d,  0 h,  0 min,  2.713 sec
 * ratio c/w:     2.824 speedup
 SCF:
 * wall-time:     0 d,  0 h,  0 min,  0.922 sec
 *  cpu-time:     0 d,  0 h,  0 min,  2.679 sec
 * ratio c/w:     2.905 speedup

