Optimization of monomers started
Stacking dimer
Calculating transfer integral
                   =====================                   |     
     |                           x T B                           |     
     |                   =====================                   |     
     |                         S. Grimme                         |     
     |          Mulliken Center for Theoretical Chemistry        |     
     |                    University of Bonn                     |     
      -----------------------------------------------------------      

   * xtb version 6.7.1 (edcfbbe) compiled by 'runner@Mac-1732539442253.local' on 2024-11-25

   xtb is free software: you can redistribute it and/or modify it under
   the terms of the GNU Lesser General Public License as published by
   the Free Software Foundation, either version 3 of the License, or
   (at your option) any later version.
   
   xtb is distributed in the hope that it will be useful,
   but WITHOUT ANY WARRANTY; without even the implied warranty of
   MERCHANTABILITY or FITNESS FOR A PARTICULAR PURPOSE.  See the
   GNU Lesser General Public License for more details.
   
   Cite this work as:
   * C. Bannwarth, E. Caldeweyher, S. Ehlert, A. Hansen, P. Pracht,
     J. Seibert, S. Spicher, S. Grimme, WIREs Comput. Mol. Sci., 2020, 11,
     e01493. DOI: 10.1002/wcms.1493
   
   for GFN2-xTB:
   * C. Bannwarth, S. Ehlert and S. Grimme., J. Chem. Theory Comput., 2019,
     15, 1652-1671. DOI: 10.1021/acs.jctc.8b01176
   for GFN1-xTB:
   * S. Grimme, C. Bannwarth, P. Shushkov, J. Chem. Theory Comput., 2017,
     13, 1989-2009. DOI: 10.1021/acs.jctc.7b00118
   for GFN0-xTB:
   * P. Pracht, E. Caldeweyher, S. Ehlert, S. Grimme, ChemRxiv, 2019, preprint.
     DOI: 10.26434/chemrxiv.8326202.v1
   for GFN-FF:
   * S. Spicher and S. Grimme, Angew. Chem. Int. Ed., 2020, 59, 15665-15673.
     DOI: 10.1002/anie.202004239
   
   for ALPB and GBSA implicit solvation:
   * S. Ehlert, M. Stahn, S. Spicher, S. Grimme, J. Chem. Theory Comput.,
     2021, 17, 4250-4261. DOI: 10.1021/acs.jctc.1c00471
   
   for ddCOSMO and CPCM-X implicit solvation:
   * M. Stahn, S. Ehlert, S. Grimme, J. Phys. Chem. A,
     2023, XX, XXXX-XXXX. DOI: 10.1021/acs.jpca.3c04382
   
   for DFT-D4:
   * E. Caldeweyher, C. Bannwarth and S. Grimme, J. Chem. Phys., 2017,
     147, 034112. DOI: 10.1063/1.4993215
   * E. Caldeweyher, S. Ehlert, A. Hansen, H. Neugebauer, S. Spicher,
     C. Bannwarth and S. Grimme, J. Chem. Phys., 2019, 150, 154122.
     DOI: 10.1063/1.5090222
   * E. Caldeweyher, J.-M. Mewes, S. Ehlert and S. Grimme, Phys. Chem. Chem. Phys.
     2020, 22, 8499-8512. DOI: 10.1039/D0CP00502A
   
   for sTDA-xTB:
   * S. Grimme and C. Bannwarth, J. Chem. Phys., 2016, 145, 054103.
     DOI: 10.1063/1.4959605
   
   in the mass-spec context:
   * V. Asgeirsson, C. Bauer and S. Grimme, Chem. Sci., 2017, 8, 4879.
     DOI: 10.1039/c7sc00601b
   * J. Koopman and S. Grimme, ACS Omega 2019, 4, 12, 15120-15133.
     DOI: 10.1021/acsomega.9b02011
   
   for metadynamics refer to:
   * S. Grimme, J. Chem. Theory Comput., 2019, 155, 2847-2862
     DOI: 10.1021/acs.jctc.9b00143
   
   for SPH calculations refer to:
   * S. Spicher and S. Grimme, J. Chem. Theory Comput., 2021, 17, 1701-1714
     DOI: 10.1021/acs.jctc.0c01306
   
   for ONIOM refer to:
   * C. Plett, A. Katbashev, S. Ehlert, S. Grimme, M. Bursch,
     Phys. Chem. Chem. Phys., 2023, 25, 17860-17868. DOI: 10.1039/D3CP02178E
   
   for DIPRO refer to:
   * J. Kohn, N. Gildemeister, S. Grimme, D. Fazzi, A. Hansen,
     J. Chem. Phys., 2023, just accepted.
   
   for PTB refer to:
   * S. Grimme, M. Mueller, A. Hansen, J. Chem. Phys., 2023, 158, 124111.
     DOI: 10.1063/5.0137838
   
   with help from (in alphabetical order)
   P. Atkinson, C. Bannwarth, F. Bohle, G. Brandenburg, E. Caldeweyher
   M. Checinski, S. Dohm, S. Ehlert, S. Ehrlich, I. Gerasimov, C. Hölzer
   A. Katbashev, J. Kohn, J. Koopman, C. Lavigne, S. Lehtola, F. März, M. Müller,
   F. Musil, H. Neugebauer, J. Pisarek, C. Plett, P. Pracht, F. Pultar,
   J. Seibert, P. Shushkov, S. Spicher, M. Stahn, M. Steiner, T. Strunk,
   J. Stückrath, T. Rose, and J. Unsleber
   
 * started run on 2024/12/13 at 12:21:21.456     
   ID    Z sym.   atoms
    1    6 C      1-9, 11, 12, 14-21, 27-35, 37, 38, 40-47, 56, 58, 62, 65,
                  68, 71
    2    7 N      10, 13, 36, 39
    3    8 O      22, 23, 48, 49, 54, 55, 57, 59-61, 63, 64, 66, 67, 69, 70
    4   16 S      24-26, 50-52
    5    5 B      53
    6    1 H      72-101

           -------------------------------------------------
          |                Calculation Setup                |
           -------------------------------------------------

          program call               : xtb Base1SO2Me.mol --opt --gfn 2 --chrg 0 --uhf 1 --tight
          coordinate file            : Base1SO2Me.mol
          omp threads                :                     8


molecular fragmentation (1/2 indicates fragments):
111111111111111111111111112222222222222222222222222211111112222222221112
22222111222111111222222112211
# atoms in fragment 1/2:    49    52
 fragment masses (1/2) :      540.35      533.57
CMA distance (Bohr)    :  15.103
constraining FC (au)   :  0.0500
########################################################################
[WARNING] Please study the warnings concerning your input carefully
-1- prog_main_parseArguments: Unknown option '--tight' provided
########################################################################

           -------------------------------------------------
          |                 G F N 2 - x T B                 |
           -------------------------------------------------

        Reference                      10.1021/acs.jctc.8b01176
      * Hamiltonian:
        H0-scaling (s, p, d)           1.850000    2.230000    2.230000
        zeta-weighting                 0.500000
      * Dispersion:
        s8                             2.700000
        a1                             0.520000
        a2                             5.000000
        s9                             5.000000
      * Repulsion:
        kExp                           1.500000    1.000000
        rExp                           1.000000
      * Coulomb:
        alpha                          2.000000
        third order                    shell-resolved
        anisotropic                    true
        a3                             3.000000
        a5                             4.000000
        cn-shift                       1.200000
        cn-exp                         4.000000
        max-rad                        5.000000


          ...................................................
          :                      SETUP                      :
          :.................................................:
          :  # basis functions                 350          :
          :  # atomic orbitals                 344          :
          :  # shells                          178          :
          :  # electrons                       361          :
          :  max. iterations                   250          :
          :  Hamiltonian                  GFN2-xTB          :
          :  restarted?                      false          :
          :  GBSA solvation                  false          :
          :  PC potential                    false          :
          :  electronic temp.          300.0000000     K    :
          :  accuracy                    1.0000000          :
          :  -> integral cutoff          0.2500000E+02      :
          :  -> integral neglect         0.1000000E-07      :
          :  -> SCF convergence          0.1000000E-05 Eh   :
          :  -> wf. convergence          0.1000000E-03 e    :
          :  Broyden damping             0.4000000          :
          :  net charge                          0          :
          :  unpaired electrons                  1          :
          ...................................................

 iter      E             dE          RMSdq      gap      omega  full diag
   1   -205.2108498 -0.205211E+03  0.641E+00    0.03       0.0  T
   2   -199.7769500  0.543390E+01  0.857E+00    0.02       1.0  T
   3   -205.0742235 -0.529727E+01  0.427E+00    0.16       1.0  T
   4   -197.5874390  0.748678E+01  0.597E+00    0.01       1.0  T
   5   -193.3992034  0.418824E+01  0.593E+00    0.04       1.0  T
   6   -204.1766515 -0.107774E+02  0.401E+00    0.22       1.0  T
   7   -206.1427808 -0.196613E+01  0.201E+00    0.18       1.0  T
   8   -206.2059315 -0.631506E-01  0.180E+00    0.09       1.0  T
   9   -206.2137842 -0.785275E-02  0.178E+00    0.10       1.0  T
  10   -206.2135010  0.283152E-03  0.139E+00    0.15       1.0  T
  11   -206.3838866 -0.170386E+00  0.111E+00    0.11       1.0  T
  12   -206.3411929  0.426937E-01  0.125E+00    0.07       1.0  T
  13   -206.3598163 -0.186234E-01  0.102E+00    0.07       1.0  T
  14   -206.4781925 -0.118376E+00  0.839E-01    0.10       1.0  T
  15   -206.5033536 -0.251611E-01  0.588E-01    0.06       1.0  T
  16   -206.5233858 -0.200322E-01  0.534E-01    0.03       1.0  T
  17   -206.4905539  0.328319E-01  0.695E-01    0.05       1.0  T
  18   -206.5094524 -0.188984E-01  0.562E-01    0.01       1.0  T
  19   -206.3997303  0.109722E+00  0.849E-01    0.10       1.0  T
  20   -206.4362496 -0.365193E-01  0.700E-01    0.09       1.0  T
  21   -206.4378548 -0.160520E-02  0.859E-01    0.05       1.0  T
  22   -206.5116826 -0.738278E-01  0.518E-01    0.03       1.0  T
  23   -206.5011391  0.105435E-01  0.558E-01    0.03       1.0  T
  24   -206.5256838 -0.245447E-01  0.354E-01    0.02       1.0  T
  25   -206.5276017 -0.191790E-02  0.262E-01    0.03       1.0  T
  26   -206.5310451 -0.344340E-02  0.230E-01    0.03       1.0  T
  27   -206.5402386 -0.919346E-02  0.116E-01    0.01       1.0  T
  28   -206.5413517 -0.111313E-02  0.728E-02    0.01       1.0  T
  29   -206.5413436  0.806590E-05  0.539E-02    0.01       1.0  T
  30   -206.5418403 -0.496693E-03  0.263E-02    0.01       1.0  T
  31   -206.5418642 -0.239284E-04  0.236E-02    0.01       1.0  T
  32   -206.5419147 -0.504212E-04  0.675E-03    0.01       1.5  T
  33   -206.5419073  0.738898E-05  0.749E-03    0.01       1.3  T
  34   -206.5419178 -0.105525E-04  0.294E-03    0.01       3.4  T
  35   -206.5419186 -0.796908E-06  0.208E-03    0.01       4.8  T
  36   -206.5419184  0.233453E-06  0.221E-03    0.01       4.5  T
  37   -206.5419193 -0.949953E-06  0.892E-04    0.01      11.2  T
  38   -206.5419194 -0.429572E-07  0.623E-04    0.01      16.0  T

   *** convergence criteria satisfied after 38 iterations ***

         #    Occupation            Energy/Eh            Energy/eV
      -------------------------------------------------------------
         1        2.0000           -0.8144571             -22.1625
       ...           ...                  ...                  ...
       175        1.9973           -0.3356848              -9.1344
       176        1.9962           -0.3353863              -9.1263
       177        1.9058           -0.3322696              -9.0415
       178        1.8801           -0.3320234              -9.0348
       179        1.7286           -0.3311456              -9.0109
       180        1.5919           -0.3306586              -8.9977
       181        1.0221           -0.3293117              -8.9610 (HOMO)
       182        0.8780           -0.3290116              -8.9529 (LUMO)
       183                         -0.2904269              -7.9029
       184                         -0.2894061              -7.8751
       185                         -0.2883800              -7.8472
       186                         -0.2858460              -7.7783
       ...                                ...                  ...
       344                          1.3033251              35.4653
      -------------------------------------------------------------
                  HL-Gap            0.0003001 Eh            0.0082 eV
             Fermi-level           -0.3292658 Eh           -8.9598 eV

 SCC (total)                   0 d,  0 h,  0 min,  2.996 sec
 SCC setup                      ...        0 min,  0.001 sec (  0.037%)
 Dispersion                     ...        0 min,  0.002 sec (  0.069%)
 classical contributions        ...        0 min,  0.001 sec (  0.024%)
 integral evaluation            ...        0 min,  0.012 sec (  0.384%)
 iterations                     ...        0 min,  2.937 sec ( 98.012%)
 molecular gradient             ...        0 min,  0.035 sec (  1.172%)
 printout                       ...        0 min,  0.009 sec (  0.300%)

         :::::::::::::::::::::::::::::::::::::::::::::::::::::
         ::                     SUMMARY                     ::
         :::::::::::::::::::::::::::::::::::::::::::::::::::::
         :: total energy            -204.903894859726 Eh    ::
         :: gradient norm              0.661156897954 Eh/a0 ::
         :: HOMO-LUMO gap              0.008167036584 eV    ::
         ::.................................................::
         :: SCC energy              -206.540812823889 Eh    ::
         :: -> isotropic ES            0.450386109384 Eh    ::
         :: -> anisotropic ES          0.034414365829 Eh    ::
         :: -> anisotropic XC          0.079429195780 Eh    ::
         :: -> dispersion             -0.162157747782 Eh    ::
         :: repulsion energy           1.636917964163 Eh    ::
         :: add. restraining           0.000000000000 Eh    ::
         :: total charge               0.000000000001 e     ::
         :::::::::::::::::::::::::::::::::::::::::::::::::::::

      ----------------------------------------------------------- 
     |                   =====================                   |
     |                        A N C O P T                        |
     |                   =====================                   |
     |               Approximate Normal Coordinate               |
     |                Rational Function Optimizer                |
      ----------------------------------------------------------- 
      ----------------------------------------------------------- 
     |                   =====================                   |
     |                        A N C O P T                        |
     |                   =====================                   |
     |               Approximate Normal Coordinate               |
     |                Rational Function Optimizer                |
      ----------------------------------------------------------- 

          ...................................................
          :                      SETUP                      :
          :.................................................:
          :   optimization level            normal          :
          :   max. optcycles                   303          :
          :   ANC micro-cycles                  20          :
          :   degrees of freedom               297          :
          :.................................................:
          :   RF solver                   davidson          :
          :   write xtbopt.log                true          :
          :   linear?                        false          :
          :   energy convergence         0.5000000E-05 Eh   :
          :   grad. convergence          0.1000000E-02 Eh/α :
          :   maxmium RF displ.          1.0000000          :
          :   Hlow (freq-cutoff)         0.1000000E-01      :
          :   Hmax (freq-cutoff)         5.0000000          :
          :   S6 in model hess.         20.0000000          :
          ...................................................

generating ANC from exact Hessian ...
Using Lindh-Hessian (1995)
 Shifting diagonal of input Hessian by    1.0411913911083624E-002
 Lowest  eigenvalues of input Hessian
    0.010000    0.010369    0.000000    0.000000    0.000000    0.000000
    0.000000    0.000000    0.010434    0.010461    0.010523    0.010567
    0.010608    0.010657    0.010716    0.010790    0.010821    0.010869
 Highest eigenvalues
    3.661942    3.671357    3.671711    3.671719    3.682515    3.682863


........................................................................
.............................. CYCLE    1 ..............................
........................................................................

 iter      E             dE          RMSdq      gap      omega  full diag
   1   -206.5419195 -0.206542E+03  0.204E-04    0.01       0.0  T
   2   -206.5419191  0.369527E-06  0.183E-03    0.01       5.4  T
   3   -206.5419194 -0.317101E-06  0.641E-04    0.01      15.5  T
   4   -206.5419194 -0.190261E-07  0.424E-04    0.01      23.4  T
     SCC iter.                  ...        0 min,  0.412 sec
     gradient                   ...        0 min,  0.040 sec
 * total energy  :  -204.9038949 Eh     change       -0.4003050E-07 Eh
   gradient norm :     0.6611542 Eh/α   predicted     0.0000000E+00 (-100.00%)
   displ. norm   :     0.7846674 α      lambda       -0.4662568E+00
   maximum displ.:     0.1948022 α      in ANC's #142, #117, #144, ...

........................................................................
.............................. CYCLE    2 ..............................
........................................................................

 iter      E             dE          RMSdq      gap      omega  full diag
   1   -206.7639235 -0.206764E+03  0.211E+00    0.04       0.0  T
   2   -206.2057127  0.558211E+00  0.268E+00    0.16       1.0  T
   3   -206.6552722 -0.449559E+00  0.143E+00    0.14       1.0  T
   4   -206.5285796  0.126693E+00  0.166E+00    0.09       1.0  T
   5   -206.7340249 -0.205445E+00  0.156E+00    0.09       1.0  T
   6   -206.8864821 -0.152457E+00  0.977E-01    0.01       1.0  T
   7   -206.8593967  0.270854E-01  0.107E+00    0.02       1.0  T
   8   -206.8712032 -0.118065E-01  0.883E-01    0.02       1.0  T
   9   -206.8664902  0.471308E-02  0.980E-01    0.03       1.0  T
  10   -206.8759601 -0.946993E-02  0.650E-01    0.10       1.0  T
  11   -206.9294343 -0.534742E-01  0.611E-01    0.07       1.0  T
  12   -206.9569636 -0.275293E-01  0.378E-01    0.02       1.0  T
  13   -206.9129414  0.440222E-01  0.626E-01    0.05       1.0  T
  14   -206.9544940 -0.415527E-01  0.335E-01    0.03       1.0  T
  15   -206.9629071 -0.841306E-02  0.183E-01    0.02       1.0  T
  16   -206.9652381 -0.233100E-02  0.132E-01    0.01       1.0  T
  17   -206.9677300 -0.249188E-02  0.341E-02    0.01       1.0  T
  18   -206.9676999  0.300513E-04  0.319E-02    0.01       1.0  T
  19   -206.9675828  0.117113E-03  0.461E-02    0.01       1.0  T
  20   -206.9678057 -0.222920E-03  0.149E-02    0.01       1.0  T
  21   -206.9678191 -0.134073E-04  0.999E-03    0.01       1.0  T
  22   -206.9677825  0.366381E-04  0.176E-02    0.01       1.0  T
  23   -206.9678276 -0.451351E-04  0.805E-03    0.01       1.2  T
  24   -206.9678353 -0.763515E-05  0.384E-03    0.01       2.6  T
  25   -206.9678379 -0.258057E-05  0.184E-03    0.01       5.4  T
  26   -206.9678380 -0.156871E-06  0.113E-03    0.01       8.8  T
  27   -206.9678381 -0.125060E-06  0.404E-04    0.01      24.6  T
  28   -206.9678381  0.490752E-08  0.288E-04    0.01      34.6  T
     SCC iter.                  ...        0 min,  3.808 sec
     gradient                   ...        0 min,  0.043 sec
 * total energy  :  -205.3540306 Eh     change       -0.4501357E+00 Eh
   gradient norm :     0.6047433 Eh/α   predicted    -0.3766817E+00 ( -16.32%)
   displ. norm   :     0.9737608 α      lambda       -0.5810791E+00
   maximum displ.:     0.2638928 α      in ANC's #180, #142, #183, ...

........................................................................
.............................. CYCLE    3 ..............................
........................................................................

 iter      E             dE          RMSdq      gap      omega  full diag
   1   -207.2723909 -0.207272E+03  0.178E+00    0.04       0.0  T
   2   -206.7765114  0.495880E+00  0.255E+00    0.12       1.0  T
   3   -207.2088206 -0.432309E+00  0.182E+00    0.03       1.0  T
   4   -207.2335505 -0.247299E-01  0.119E+00    0.12       1.0  T
   5   -207.0506439  0.182907E+00  0.135E+00    0.22       1.0  T
   6   -207.3046021 -0.253958E+00  0.104E+00    0.10       1.0  T
   7   -207.4339405 -0.129338E+00  0.647E-01    0.08       1.0  T
   8   -207.3615822  0.723583E-01  0.971E-01    0.02       1.0  T
   9   -207.4441796 -0.825974E-01  0.678E-01    0.02       1.0  T
  10   -207.4351822  0.899734E-02  0.638E-01    0.01       1.0  T
  11   -207.4591928 -0.240106E-01  0.465E-01    0.04       1.0  T
  12   -207.4730800 -0.138872E-01  0.312E-01    0.02       1.0  T
  13   -207.4729225  0.157506E-03  0.258E-01    0.04       1.0  T
  14   -207.4799552 -0.703268E-02  0.175E-01    0.01       1.0  T
  15   -207.4805649 -0.609694E-03  0.144E-01    0.01       1.0  T
  16   -207.4814801 -0.915258E-03  0.998E-02    0.01       1.0  T
  17   -207.4823281 -0.847968E-03  0.663E-02    0.01       1.0  T
  18   -207.4824881 -0.159996E-03  0.513E-02    0.01       1.0  T
  19   -207.4824601  0.279913E-04  0.460E-02    0.01       1.0  T
  20   -207.4826007 -0.140566E-03  0.352E-02    0.01       1.0  T
  21   -207.4827173 -0.116626E-03  0.241E-02    0.01       1.0  T
  22   -207.4827935 -0.761579E-04  0.953E-03    0.01       1.0  T
  23   -207.4828039 -0.104352E-04  0.512E-03    0.01       1.9  T
  24   -207.4828060 -0.211219E-05  0.299E-03    0.01       3.3  T
  25   -207.4828060  0.360217E-08  0.255E-03    0.01       3.9  T
  26   -207.4828066 -0.610099E-06  0.106E-03    0.01       9.4  T
  27   -207.4828067 -0.903422E-07  0.458E-04    0.01      21.7  T
  28   -207.4828067 -0.776470E-08  0.210E-04    0.01      47.5  T
     SCC iter.                  ...        0 min,  2.725 sec
     gradient                   ...        0 min,  0.037 sec
 * total energy  :  -205.8897386 Eh     change       -0.5357080E+00 Eh
   gradient norm :     0.5195242 Eh/α   predicted    -0.5660322E+00 (   5.66%)
   displ. norm   :     0.9092032 α      lambda       -0.4501522E+00
   maximum displ.:     0.2369129 α      in ANC's #180, #142, #183, ...

........................................................................
.............................. CYCLE    4 ..............................
........................................................................

 iter      E             dE          RMSdq      gap      omega  full diag
   1   -207.8443000 -0.207844E+03  0.828E-01    0.03       0.0  T
   2   -207.4341761  0.410124E+00  0.198E+00    0.15       1.0  T
   3   -207.7969419 -0.362766E+00  0.103E+00    0.04       1.0  T
   4   -207.7397160  0.572259E-01  0.803E-01    0.26       1.0  T
   5   -207.5971538  0.142562E+00  0.978E-01    0.19       1.0  T
   6   -207.9023025 -0.305149E+00  0.364E-01    0.01       1.0  T
   7   -207.8054185  0.968840E-01  0.775E-01    0.06       1.0  T
   8   -207.8542275 -0.488090E-01  0.599E-01    0.04       1.0  T
   9   -207.8893896 -0.351621E-01  0.303E-01    0.05       1.0  T
  10   -207.9112274 -0.218378E-01  0.165E-01    0.01       1.0  T
  11   -207.9129499 -0.172255E-02  0.117E-01    0.01       1.0  T
  12   -207.9125969  0.353060E-03  0.115E-01    0.02       1.0  T
  13   -207.9139341 -0.133720E-02  0.700E-02    0.01       1.0  T
  14   -207.9128580  0.107609E-02  0.751E-02    0.02       1.0  T
  15   -207.9142884 -0.143042E-02  0.240E-02    0.01       1.0  T
  16   -207.9142900 -0.164045E-05  0.211E-02    0.00       1.0  T
  17   -207.9143460 -0.559228E-04  0.981E-03    0.01       1.0  T
  18   -207.9143465 -0.581529E-06  0.778E-03    0.01       1.3  T
  19   -207.9143285  0.179996E-04  0.100E-02    0.00       1.0  T
  20   -207.9143511 -0.225292E-04  0.348E-03    0.01       2.9  T
  21   -207.9143466  0.447547E-05  0.479E-03    0.01       2.1  T
  22   -207.9143526 -0.597834E-05  0.147E-03    0.01       6.8  T
  23   -207.9143528 -0.260277E-06  0.446E-04    0.01      22.3  T
  24   -207.9143527  0.828878E-07  0.680E-04    0.01      14.6  T
     SCC iter.                  ...        0 min,  2.638 sec
     gradient                   ...        0 min,  0.041 sec
 * total energy  :  -206.2709075 Eh     change       -0.3811688E+00 Eh
   gradient norm :     0.4130923 Eh/α   predicted    -0.4111355E+00 (   7.86%)
   displ. norm   :     0.8565144 α      lambda       -0.3022066E+00
   maximum displ.:     0.2352752 α      in ANC's #142, #117, #131, ...

........................................................................
.............................. CYCLE    5 ..............................
........................................................................

 iter      E             dE          RMSdq      gap      omega  full diag
   1   -208.2505272 -0.208251E+03  0.531E-01    0.02       0.0  T
   2   -208.0275189  0.223008E+00  0.106E+00    0.12       1.0  T
   3   -208.0085716  0.189473E-01  0.973E-01    0.16       1.0  T
   4   -208.1582296 -0.149658E+00  0.608E-01    0.19       1.0  T
   5   -208.1327765  0.254532E-01  0.754E-01    0.17       1.0  T
   6   -208.1684146 -0.356382E-01  0.704E-01    0.05       1.0  T
   7   -208.2495827 -0.811681E-01  0.251E-01    0.04       1.0  T
   8   -208.2622018 -0.126191E-01  0.152E-01    0.04       1.0  T
   9   -208.2641801 -0.197831E-02  0.113E-01    0.03       1.0  T
  10   -208.2661843 -0.200415E-02  0.745E-02    0.00       1.0  T
  11   -208.2650630  0.112124E-02  0.744E-02    0.02       1.0  T
  12   -208.2667024 -0.163934E-02  0.195E-02    0.01       1.0  T
  13   -208.2664748  0.227592E-03  0.309E-02    0.00       1.0  T
  14   -208.2667403 -0.265548E-03  0.998E-03    0.01       1.0  T
  15   -208.2667299  0.103903E-04  0.114E-02    0.01       1.0  T
  16   -208.2667613 -0.313559E-04  0.238E-03    0.01       4.2  T
  17   -208.2667600  0.132070E-05  0.314E-03    0.01       3.2  T
  18   -208.2667604 -0.393290E-06  0.268E-03    0.01       3.7  T
  19   -208.2667623 -0.189406E-05  0.974E-04    0.01      10.2  T
  20   -208.2667624 -0.120701E-06  0.735E-04    0.01      13.5  T
  21   -208.2667625 -0.144894E-06  0.249E-04    0.01      40.0  T
     SCC iter.                  ...        0 min,  3.233 sec
     gradient                   ...        0 min,  0.039 sec
 * total energy  :  -206.5309491 Eh     change       -0.2600416E+00 Eh
   gradient norm :     0.3292044 Eh/α   predicted    -0.2619566E+00 (   0.74%)
   displ. norm   :     0.8234445 α      lambda       -0.2161330E+00
   maximum displ.:     0.2120554 α      in ANC's #142, #117, #92, ...

........................................................................
.............................. CYCLE    6 ..............................
........................................................................

 iter      E             dE          RMSdq      gap      omega  full diag
   1   -208.5633251 -0.208563E+03  0.438E-01    0.01       0.0  T
   2   -208.3100959  0.253229E+00  0.906E-01    0.15       1.0  T
   3   -208.2725629  0.375330E-01  0.933E-01    0.20       1.0  T
   4   -208.5593735 -0.286811E+00  0.318E-01    0.04       1.0  T
   5   -208.5649023 -0.552880E-02  0.163E-01    0.03       1.0  T
   6   -208.5661842 -0.128193E-02  0.147E-01    0.00       1.0  T
   7   -208.5674946 -0.131046E-02  0.119E-01    0.01       1.0  T
   8   -208.5681059 -0.611287E-03  0.872E-02    0.02       1.0  T
   9   -208.5686093 -0.503345E-03  0.678E-02    0.02       1.0  T
  10   -208.5689922 -0.382917E-03  0.433E-02    0.00       1.0  T
  11   -208.5691628 -0.170611E-03  0.257E-02    0.01       1.0  T
  12   -208.5692378 -0.749653E-04  0.110E-02    0.01       1.0  T
  13   -208.5692367  0.105265E-05  0.812E-03    0.01       1.2  T
  14   -208.5692414 -0.463643E-05  0.467E-03    0.01       2.1  T
  15   -208.5692470 -0.568153E-05  0.159E-03    0.01       6.2  T
  16   -208.5692464  0.675738E-06  0.174E-03    0.01       5.7  T
  17   -208.5692474 -0.996847E-06  0.324E-04    0.01      30.7  T
  18   -208.5692473  0.146044E-07  0.298E-04    0.01      33.4  T
     SCC iter.                  ...        0 min,  1.869 sec
     gradient                   ...        0 min,  0.048 sec
 * total energy  :  -206.7084138 Eh     change       -0.1774647E+00 Eh
   gradient norm :     0.2374446 Eh/α   predicted    -0.1813421E+00 (   2.18%)
   displ. norm   :     0.7849963 α      lambda       -0.1417425E+00
   maximum displ.:     0.2031761 α      in ANC's #142, #144, #64, ...

........................................................................
.............................. CYCLE    7 ..............................
........................................................................

 iter      E             dE          RMSdq      gap      omega  full diag
   1   -208.8131844 -0.208813E+03  0.423E-01    0.01       0.0  T
   2   -208.6170905  0.196094E+00  0.791E-01    0.17       1.0  T
   3   -208.4678800  0.149210E+00  0.101E+00    0.21       1.0  T
   4   -208.8061201 -0.338240E+00  0.312E-01    0.02       1.0  T
   5   -208.8138432 -0.772307E-02  0.150E-01    0.01       1.0  T
   6   -208.8144147 -0.571541E-03  0.131E-01    0.02       1.0  T
   7   -208.8155703 -0.115562E-02  0.984E-02    0.01       1.0  T
   8   -208.8159899 -0.419600E-03  0.785E-02    0.01       1.0  T
   9   -208.8160540 -0.640684E-04  0.693E-02    0.01       1.0  T
  10   -208.8163994 -0.345393E-03  0.464E-02    0.01       1.0  T
  11   -208.8164736 -0.741686E-04  0.337E-02    0.01       1.0  T
  12   -208.8164292  0.443655E-04  0.321E-02    0.00       1.0  T
  13   -208.8164437 -0.144849E-04  0.259E-02    0.00       1.0  T
  14   -208.8165268 -0.831627E-04  0.124E-02    0.01       1.0  T
  15   -208.8165590 -0.321988E-04  0.433E-03    0.01       2.3  T
  16   -208.8165629 -0.382804E-05  0.394E-03    0.01       2.5  T
  17   -208.8165641 -0.124355E-05  0.195E-03    0.01       5.1  T
  18   -208.8165650 -0.919201E-06  0.288E-04    0.01      34.5  T
  19   -208.8165650  0.275222E-07  0.419E-04    0.01      23.7  T
     SCC iter.                  ...        0 min,  1.906 sec
     gradient                   ...        0 min,  0.041 sec
 * total energy  :  -206.8177092 Eh     change       -0.1092954E+00 Eh
   gradient norm :     0.1561376 Eh/α   predicted    -0.1145434E+00 (   4.80%)
   displ. norm   :     0.7825092 α      lambda       -0.8922311E-01
   maximum displ.:     0.1803676 α      in ANC's #64, #92, #28, ...

........................................................................
.............................. CYCLE    8 ..............................
........................................................................

 iter      E             dE          RMSdq      gap      omega  full diag
   1   -209.0063798 -0.209006E+03  0.329E-01    0.00       0.0  T
   2   -208.8644584  0.141921E+00  0.658E-01    0.19       1.0  T
   3   -208.7008963  0.163562E+00  0.938E-01    0.22       1.0  T
   4   -208.9929440 -0.292048E+00  0.295E-01    0.05       1.0  T
   5   -208.9972933 -0.434928E-02  0.200E-01    0.04       1.0  T
   6   -209.0017321 -0.443878E-02  0.183E-01    0.01       1.0  T
   7   -209.0075820 -0.584998E-02  0.870E-02    0.01       1.0  T
   8   -209.0077461 -0.164107E-03  0.678E-02    0.02       1.0  T
   9   -209.0076518  0.943741E-04  0.665E-02    0.02       1.0  T
  10   -209.0078146 -0.162869E-03  0.543E-02    0.02       1.0  T
  11   -209.0081462 -0.331573E-03  0.341E-02    0.01       1.0  T
  12   -209.0082231 -0.769161E-04  0.313E-02    0.01       1.0  T
  13   -209.0082259 -0.273150E-05  0.285E-02    0.01       1.0  T
  14   -209.0082549 -0.290488E-04  0.128E-02    0.01       1.0  T
  15   -209.0082763 -0.214187E-04  0.948E-03    0.01       1.0  T
  16   -209.0082749  0.147147E-05  0.494E-03    0.01       2.0  T
  17   -209.0082815 -0.666546E-05  0.263E-03    0.01       3.8  T
  18   -209.0082823 -0.773537E-06  0.491E-04    0.01      20.2  T
  19   -209.0082823 -0.167105E-07  0.456E-04    0.01      21.8  T
     SCC iter.                  ...        0 min,  2.150 sec
     gradient                   ...        0 min,  0.039 sec
 * total energy  :  -206.8742353 Eh     change       -0.5652615E-01 Eh
   gradient norm :     0.1467585 Eh/α   predicted    -0.7192815E-01 (  27.25%)
   displ. norm   :     0.7429660 α      lambda       -0.7066977E-01
   maximum displ.:     0.2101144 α      in ANC's #64, #73, #78, ...

........................................................................
.............................. CYCLE    9 ..............................
........................................................................

 iter      E             dE          RMSdq      gap      omega  full diag
   1   -209.1028401 -0.209103E+03  0.328E-01    0.01       0.0  T
   2   -209.0919785  0.108616E-01  0.273E-01    0.05       1.0  T
   3   -208.7572668  0.334712E+00  0.999E-01    0.25       1.0  T
   4   -209.0580347 -0.300768E+00  0.456E-01    0.09       1.0  T
   5   -209.0633388 -0.530410E-02  0.385E-01    0.13       1.0  T
   6   -209.0943204 -0.309816E-01  0.170E-01    0.04       1.0  T
   7   -209.1028530 -0.853258E-02  0.657E-02    0.01       1.0  T
   8   -209.1029487 -0.957833E-04  0.520E-02    0.02       1.0  T
   9   -209.1034630 -0.514223E-03  0.260E-02    0.01       1.0  T
  10   -209.1035709 -0.107968E-03  0.196E-02    0.01       1.0  T
  11   -209.1035847 -0.137243E-04  0.150E-02    0.01       1.0  T
  12   -209.1035810  0.361231E-05  0.132E-02    0.01       1.0  T
  13   -209.1035737  0.734146E-05  0.115E-02    0.01       1.0  T
  14   -209.1036022 -0.285186E-04  0.361E-03    0.01       2.8  T
  15   -209.1036055 -0.330343E-05  0.659E-04    0.01      15.1  T
  16   -209.1036056 -0.539378E-07  0.483E-04    0.01      20.6  T
  17   -209.1036056 -0.267781E-08  0.408E-04    0.01      24.4  T
     SCC iter.                  ...        0 min,  1.850 sec
     gradient                   ...        0 min,  0.034 sec
 * total energy  :  -206.9127815 Eh     change       -0.3854619E-01 Eh
   gradient norm :     0.0916168 Eh/α   predicted    -0.5483972E-01 (  42.27%)
   displ. norm   :     0.7264634 α      lambda       -0.3811847E-01
   maximum displ.:     0.1824220 α      in ANC's #73, #64, #28, ...

........................................................................
.............................. CYCLE   10 ..............................
........................................................................

 iter      E             dE          RMSdq      gap      omega  full diag
   1   -209.1540937 -0.209154E+03  0.317E-01    0.01       0.0  T
   2   -208.9633518  0.190742E+00  0.744E-01    0.21       1.0  T
   3   -208.9367128  0.266390E-01  0.790E-01    0.26       1.0  T
   4   -209.1514625 -0.214750E+00  0.215E-01    0.01       1.0  T
   5   -209.1537971 -0.233460E-02  0.126E-01    0.01       1.0  T
   6   -209.1536510  0.146163E-03  0.129E-01    0.01       1.0  T
   7   -209.1554594 -0.180845E-02  0.845E-02    0.01       1.0  T
   8   -209.1556767 -0.217262E-03  0.666E-02    0.02       1.0  T
   9   -209.1558199 -0.143214E-03  0.543E-02    0.01       1.0  T
  10   -209.1560606 -0.240697E-03  0.370E-02    0.01       1.0  T
  11   -209.1561588 -0.982404E-04  0.253E-02    0.01       1.0  T
  12   -209.1561421  0.167244E-04  0.246E-02    0.00       1.0  T
  13   -209.1561207  0.213683E-04  0.211E-02    0.00       1.0  T
  14   -209.1561962 -0.754701E-04  0.710E-03    0.01       1.4  T
  15   -209.1561978 -0.159099E-05  0.532E-03    0.01       1.9  T
  16   -209.1561974  0.384926E-06  0.363E-03    0.01       2.7  T
  17   -209.1562006 -0.316233E-05  0.112E-03    0.01       8.9  T
  18   -209.1562007 -0.767814E-07  0.390E-04    0.01      25.5  T
  19   -209.1562007 -0.350152E-07  0.278E-04    0.01      35.8  T
     SCC iter.                  ...        0 min,  2.285 sec
     gradient                   ...        0 min,  0.041 sec
 * total energy  :  -206.9367671 Eh     change       -0.2398562E-01 Eh
   gradient norm :     0.1024497 Eh/α   predicted    -0.2911774E-01 (  21.40%)
   displ. norm   :     0.7348168 α      lambda       -0.3932693E-01
   maximum displ.:     0.2259109 α      in ANC's #64, #73, #14, ...

........................................................................
.............................. CYCLE   11 ..............................
........................................................................

 iter      E             dE          RMSdq      gap      omega  full diag
   1   -209.2100791 -0.209210E+03  0.302E-01    0.00       0.0  T
   2   -209.2032108  0.686830E-02  0.233E-01    0.05       1.0  T
   3   -208.9291582  0.274053E+00  0.899E-01    0.28       1.0  T
   4   -209.1859035 -0.256745E+00  0.333E-01    0.07       1.0  T
   5   -209.1938277 -0.792424E-02  0.260E-01    0.06       1.0  T
   6   -209.2108194 -0.169917E-01  0.523E-02    0.01       1.0  T
   7   -209.2100507  0.768706E-03  0.564E-02    0.02       1.0  T
   8   -209.2109284 -0.877778E-03  0.301E-02    0.01       1.0  T
   9   -209.2110078 -0.793705E-04  0.212E-02    0.01       1.0  T
  10   -209.2110058  0.204126E-05  0.169E-02    0.01       1.0  T
  11   -209.2110220 -0.162195E-04  0.113E-02    0.01       1.0  T
  12   -209.2110043  0.176812E-04  0.119E-02    0.00       1.0  T
  13   -209.2110291 -0.248077E-04  0.551E-03    0.01       1.8  T
  14   -209.2110352 -0.610915E-05  0.229E-03    0.01       4.4  T
  15   -209.2110369 -0.163469E-05  0.804E-04    0.01      12.4  T
  16   -209.2110369 -0.749569E-07  0.350E-04    0.01      28.4  T
  17   -209.2110370 -0.326387E-07  0.175E-04    0.01      57.0  T
     SCC iter.                  ...        0 min,  1.776 sec
     gradient                   ...        0 min,  0.037 sec
 * total energy  :  -206.9600829 Eh     change       -0.2331578E-01 Eh
   gradient norm :     0.0873390 Eh/α   predicted    -0.3028088E-01 (  29.87%)
   displ. norm   :     0.6639597 α      lambda       -0.2624796E-01
   maximum displ.:     0.1627885 α      in ANC's #14, #73, #33, ...

........................................................................
.............................. CYCLE   12 ..............................
........................................................................

 iter      E             dE          RMSdq      gap      omega  full diag
   1   -209.2531657 -0.209253E+03  0.248E-01    0.01       0.0  T
   2   -209.2526352  0.530463E-03  0.153E-01    0.01       1.0  T
   3   -209.1064831  0.146152E+00  0.651E-01    0.24       1.0  T
   4   -209.2238473 -0.117364E+00  0.296E-01    0.10       1.0  T
   5   -209.2521758 -0.283285E-01  0.960E-02    0.02       1.0  T
   6   -209.2527848 -0.608995E-03  0.588E-02    0.02       1.0  T
   7   -209.2532682 -0.483440E-03  0.403E-02    0.01       1.0  T
   8   -209.2533998 -0.131529E-03  0.300E-02    0.01       1.0  T
   9   -209.2534424 -0.426229E-04  0.219E-02    0.01       1.0  T
  10   -209.2535048 -0.624467E-04  0.112E-02    0.01       1.0  T
  11   -209.2535401 -0.352971E-04  0.259E-03    0.01       3.8  T
  12   -209.2535383  0.187330E-05  0.319E-03    0.01       3.1  T
  13   -209.2535403 -0.202996E-05  0.178E-03    0.01       5.6  T
  14   -209.2535412 -0.949464E-06  0.594E-04    0.01      16.8  T
  15   -209.2535413 -0.357769E-07  0.180E-04    0.01      55.3  T
     SCC iter.                  ...        0 min,  1.523 sec
     gradient                   ...        0 min,  0.036 sec
 * total energy  :  -206.9762850 Eh     change       -0.1620210E-01 Eh
   gradient norm :     0.0775351 Eh/α   predicted    -0.1890962E-01 (  16.71%)
   displ. norm   :     0.7052033 α      lambda       -0.2542388E-01
   maximum displ.:     0.1963747 α      in ANC's #33, #1, #14, ...

........................................................................
.............................. CYCLE   13 ..............................
........................................................................

 iter      E             dE          RMSdq      gap      omega  full diag
   1   -209.2643657 -0.209264E+03  0.305E-01    0.03       0.0  T
   2   -208.9320031  0.332363E+00  0.975E-01    0.27       1.0  T
   3   -209.2251171 -0.293114E+00  0.395E-01    0.16       1.0  T
   4   -209.2651217 -0.400047E-01  0.192E-01    0.02       1.0  T
   5   -209.2660323 -0.910546E-03  0.126E-01    0.03       1.0  T
   6   -209.2680818 -0.204949E-02  0.921E-02    0.01       1.0  T
   7   -209.2694478 -0.136606E-02  0.659E-02    0.01       1.0  T
   8   -209.2693497  0.981043E-04  0.588E-02    0.01       1.0  T
   9   -209.2697356 -0.385924E-03  0.208E-02    0.01       1.0  T
  10   -209.2697814 -0.457412E-04  0.763E-03    0.01       1.3  T
  11   -209.2697879 -0.656276E-05  0.471E-03    0.01       2.1  T
  12   -209.2697902 -0.224441E-05  0.219E-03    0.01       4.5  T
  13   -209.2697899  0.250374E-06  0.189E-03    0.01       5.3  T
  14   -209.2697907 -0.762715E-06  0.640E-04    0.01      15.6  T
  15   -209.2697907 -0.473889E-07  0.311E-04    0.01      32.0  T
     SCC iter.                  ...        0 min,  1.144 sec
     gradient                   ...        0 min,  0.042 sec
 * total energy  :  -206.9880402 Eh     change       -0.1175517E-01 Eh
   gradient norm :     0.0825279 Eh/α   predicted    -0.1903375E-01 (  61.92%)
   displ. norm   :     0.6872630 α      lambda       -0.2697992E-01
   maximum displ.:     0.1847022 α      in ANC's #1, #14, #23, ...

........................................................................
.............................. CYCLE   14 ..............................
........................................................................

 iter      E             dE          RMSdq      gap      omega  full diag
   1   -209.2848284 -0.209285E+03  0.326E-01    0.01       0.0  T
   2   -209.2761082  0.872026E-02  0.252E-01    0.05       1.0  T
   3   -208.9333615  0.342747E+00  0.102E+00    0.30       1.0  T
   4   -209.2793806 -0.346019E+00  0.192E-01    0.04       1.0  T
   5   -209.2777179  0.166264E-02  0.181E-01    0.05       1.0  T
   6   -209.2844585 -0.674058E-02  0.739E-02    0.02       1.0  T
   7   -209.2858491 -0.139055E-02  0.453E-02    0.01       1.0  T
   8   -209.2860284 -0.179372E-03  0.309E-02    0.01       1.0  T
   9   -209.2860705 -0.420985E-04  0.226E-02    0.01       1.0  T
  10   -209.2860436  0.269661E-04  0.218E-02    0.01       1.0  T
  11   -209.2860277  0.158724E-04  0.196E-02    0.01       1.0  T
  12   -209.2860872 -0.594724E-04  0.924E-03    0.01       1.1  T
  13   -209.2861024 -0.152085E-04  0.313E-03    0.01       3.2  T
  14   -209.2861039 -0.150799E-05  0.165E-03    0.01       6.0  T
  15   -209.2861047 -0.803421E-06  0.607E-04    0.01      16.4  T
  16   -209.2861047 -0.432051E-07  0.134E-04    0.01      74.2  T
     SCC iter.                  ...        0 min,  1.530 sec
     gradient                   ...        0 min,  0.037 sec
 * total energy  :  -206.9996413 Eh     change       -0.1160115E-01 Eh
   gradient norm :     0.0978308 Eh/α   predicted    -0.1986169E-01 (  71.20%)
   displ. norm   :     0.5757269 α      lambda       -0.2167450E-01
   maximum displ.:     0.1472180 α      in ANC's #14, #66, #29, ...

........................................................................
.............................. CYCLE   15 ..............................
........................................................................

 iter      E             dE          RMSdq      gap      omega  full diag
   1   -209.2864040 -0.209286E+03  0.261E-01    0.01       0.0  T
   2   -209.2843737  0.203029E-02  0.184E-01    0.03       1.0  T
   3   -209.0911103  0.193263E+00  0.746E-01    0.28       1.0  T
   4   -209.2797423 -0.188632E+00  0.165E-01    0.05       1.0  T
   5   -209.2820363 -0.229397E-02  0.146E-01    0.04       1.0  T
   6   -209.2872130 -0.517675E-02  0.348E-02    0.01       1.0  T
   7   -209.2869480  0.265019E-03  0.458E-02    0.01       1.0  T
   8   -209.2869407  0.733796E-05  0.409E-02    0.01       1.0  T
   9   -209.2870657 -0.124996E-03  0.294E-02    0.01       1.0  T
  10   -209.2872223 -0.156615E-03  0.122E-02    0.01       1.0  T
  11   -209.2872700 -0.476825E-04  0.243E-03    0.01       4.1  T
  12   -209.2872707 -0.766365E-06  0.994E-04    0.01      10.0  T
  13   -209.2872706  0.149306E-06  0.115E-03    0.01       8.6  T
  14   -209.2872708 -0.203605E-06  0.499E-04    0.01      19.9  T
     SCC iter.                  ...        0 min,  1.268 sec
     gradient                   ...        0 min,  0.033 sec
 * total energy  :  -207.0107064 Eh     change       -0.1106509E-01 Eh
   gradient norm :     0.0742650 Eh/α   predicted    -0.1442938E-01 (  30.40%)
   displ. norm   :     0.6414067 α      lambda       -0.1596999E-01
   maximum displ.:     0.2224112 α      in ANC's #14, #33, #18, ...

........................................................................
.............................. CYCLE   16 ..............................
........................................................................

 iter      E             dE          RMSdq      gap      omega  full diag
   1   -209.2908697 -0.209291E+03  0.243E-01    0.02       0.0  T
   2   -209.2560765  0.347932E-01  0.369E-01    0.13       1.0  T
   3   -209.1859566  0.701199E-01  0.577E-01    0.30       1.0  T
   4   -209.2902023 -0.104246E+00  0.123E-01    0.01       1.0  T
   5   -209.2883741  0.182812E-02  0.130E-01    0.03       1.0  T
   6   -209.2917079 -0.333381E-02  0.550E-02    0.01       1.0  T
   7   -209.2920455 -0.337589E-03  0.223E-02    0.01       1.0  T
   8   -209.2917133  0.332269E-03  0.410E-02    0.02       1.0  T
   9   -209.2920859 -0.372603E-03  0.150E-02    0.01       1.0  T
  10   -209.2921390 -0.531139E-04  0.343E-03    0.01       2.9  T
  11   -209.2921400 -0.988715E-06  0.169E-03    0.01       5.9  T
  12   -209.2921402 -0.184955E-06  0.999E-04    0.01      10.0  T
  13   -209.2921403 -0.105147E-06  0.515E-04    0.01      19.3  T
     SCC iter.                  ...        0 min,  1.456 sec
     gradient                   ...        0 min,  0.049 sec
 * total energy  :  -207.0171050 Eh     change       -0.6398518E-02 Eh
   gradient norm :     0.0652587 Eh/α   predicted    -0.1127006E-01 (  76.14%)
   displ. norm   :     0.6050615 α      lambda       -0.1577636E-01
   maximum displ.:     0.1822572 α      in ANC's #14, #31, #23, ...

........................................................................
.............................. CYCLE   17 ..............................
........................................................................

 iter      E             dE          RMSdq      gap      omega  full diag
   1   -209.3189909 -0.209319E+03  0.233E-01    0.01       0.0  T
   2   -209.3183861  0.604816E-03  0.139E-01    0.02       1.0  T
   3   -209.2232982  0.950879E-01  0.537E-01    0.23       1.0  T
   4   -209.3103776 -0.870794E-01  0.177E-01    0.06       1.0  T
   5   -209.3172189 -0.684134E-02  0.102E-01    0.02       1.0  T
   6   -209.3189222 -0.170324E-02  0.434E-02    0.01       1.0  T
   7   -209.3192305 -0.308284E-03  0.250E-02    0.01       1.0  T
   8   -209.3192767 -0.462007E-04  0.197E-02    0.01       1.0  T
   9   -209.3192955 -0.188885E-04  0.152E-02    0.01       1.0  T
  10   -209.3193490 -0.534423E-04  0.578E-03    0.01       1.7  T
  11   -209.3193586 -0.957795E-05  0.130E-03    0.01       7.6  T
  12   -209.3193580  0.535854E-06  0.164E-03    0.01       6.1  T
  13   -209.3193587 -0.682963E-06  0.510E-04    0.01      19.5  T
  14   -209.3193588 -0.368494E-07  0.177E-04    0.01      56.3  T
     SCC iter.                  ...        0 min,  1.210 sec
     gradient                   ...        0 min,  0.038 sec
 * total energy  :  -207.0229235 Eh     change       -0.5818515E-02 Eh
   gradient norm :     0.0795645 Eh/α   predicted    -0.1077603E-01 (  85.20%)
   displ. norm   :     0.5260068 α      lambda       -0.1601252E-01
   maximum displ.:     0.1567778 α      in ANC's #80, #32, #8, ...

........................................................................
.............................. CYCLE   18 ..............................
........................................................................

 iter      E             dE          RMSdq      gap      omega  full diag
   1   -209.3050431 -0.209305E+03  0.280E-01    0.02       0.0  T
   2   -209.1951810  0.109862E+00  0.584E-01    0.22       1.0  T
   3   -209.1650095  0.301715E-01  0.650E-01    0.31       1.0  T
   4   -209.3045319 -0.139522E+00  0.168E-01    0.03       1.0  T
   5   -209.3071003 -0.256838E-02  0.821E-02    0.02       1.0  T
   6   -209.3060172  0.108303E-02  0.845E-02    0.02       1.0  T
   7   -209.3068165 -0.799227E-03  0.559E-02    0.01       1.0  T
   8   -209.3074447 -0.628193E-03  0.243E-02    0.01       1.0  T
   9   -209.3074118  0.328930E-04  0.232E-02    0.01       1.0  T
  10   -209.3073983  0.134669E-04  0.220E-02    0.01       1.0  T
  11   -209.3074186 -0.202695E-04  0.192E-02    0.01       1.0  T
  12   -209.3074526 -0.340596E-04  0.130E-02    0.01       1.0  T
  13   -209.3074973 -0.447289E-04  0.328E-03    0.01       3.0  T
  14   -209.3074999 -0.252441E-05  0.251E-03    0.01       4.0  T
  15   -209.3075004 -0.517721E-06  0.182E-03    0.01       5.5  T
  16   -209.3075003  0.113435E-06  0.119E-03    0.01       8.4  T
  17   -209.3075006 -0.285496E-06  0.310E-04    0.01      32.1  T
  18   -209.3075006 -0.257332E-07  0.213E-04    0.01      46.8  T
     SCC iter.                  ...        0 min,  1.943 sec
     gradient                   ...        0 min,  0.045 sec
 * total energy  :  -207.0272176 Eh     change       -0.4294118E-02 Eh
   gradient norm :     0.0873576 Eh/α   predicted    -0.1022147E-01 ( 138.03%)
   displ. norm   :     0.4660388 α      lambda       -0.1240494E-01
   maximum displ.:     0.1696943 α      in ANC's #14, #23, #8, ...

........................................................................
.............................. CYCLE   19 ..............................
........................................................................

 iter      E             dE          RMSdq      gap      omega  full diag
   1   -209.3118183 -0.209312E+03  0.191E-01    0.02       0.0  T
   2   -209.3103383  0.147998E-02  0.143E-01    0.03       1.0  T
   3   -209.2503652  0.599731E-01  0.444E-01    0.19       1.0  T
   4   -209.2964304 -0.460653E-01  0.245E-01    0.08       1.0  T
   5   -209.3117184 -0.152880E-01  0.645E-02    0.01       1.0  T
   6   -209.3121519 -0.433528E-03  0.356E-02    0.01       1.0  T
   7   -209.3123634 -0.211464E-03  0.179E-02    0.01       1.0  T
   8   -209.3123917 -0.283308E-04  0.127E-02    0.01       1.0  T
   9   -209.3124025 -0.108372E-04  0.944E-03    0.01       1.1  T
  10   -209.3124235 -0.210051E-04  0.305E-03    0.01       3.3  T
  11   -209.3124257 -0.217346E-05  0.122E-03    0.01       8.2  T
  12   -209.3124258 -0.335921E-07  0.967E-04    0.01      10.3  T
  13   -209.3124258 -0.861321E-07  0.748E-04    0.01      13.3  T
     SCC iter.                  ...        0 min,  1.146 sec
     gradient                   ...        0 min,  0.040 sec
 * total energy  :  -207.0330140 Eh     change       -0.5796401E-02 Eh
   gradient norm :     0.0486863 Eh/α   predicted    -0.7549616E-02 (  30.25%)
   displ. norm   :     0.5214912 α      lambda       -0.9784488E-02
   maximum displ.:     0.1705152 α      in ANC's #18, #14, #8, ...

........................................................................
.............................. CYCLE   20 ..............................
........................................................................

 iter      E             dE          RMSdq      gap      omega  full diag
   1   -209.3322702 -0.209332E+03  0.208E-01    0.02       0.0  T
   2   -209.3100163  0.222539E-01  0.301E-01    0.12       1.0  T
   3   -209.2678415  0.421749E-01  0.467E-01    0.24       1.0  T
   4   -209.3325985 -0.647570E-01  0.917E-02    0.02       1.0  T
   5   -209.3310960  0.150247E-02  0.102E-01    0.02       1.0  T
   6   -209.3332020 -0.210597E-02  0.336E-02    0.01       1.0  T
   7   -209.3333239 -0.121954E-03  0.178E-02    0.01       1.0  T
   8   -209.3333561 -0.321448E-04  0.124E-02    0.01       1.0  T
   9   -209.3333645 -0.849486E-05  0.869E-03    0.01       1.1  T
  10   -209.3333839 -0.193100E-04  0.233E-03    0.01       4.3  T
  11   -209.3333844 -0.566550E-06  0.138E-03    0.02       7.2  T
  12   -209.3333848 -0.375140E-06  0.531E-04    0.02      18.8  T
  13   -209.3333848 -0.317586E-07  0.255E-04    0.02      39.0  T
     SCC iter.                  ...        0 min,  1.240 sec
     gradient                   ...        0 min,  0.043 sec
 * total energy  :  -207.0335746 Eh     change       -0.5605625E-03 Eh
   gradient norm :     0.0859997 Eh/α   predicted    -0.6222704E-02 (1010.08%)
   displ. norm   :     0.3935107 α      lambda       -0.1168633E-01
   maximum displ.:     0.1273207 α      in ANC's #23, #14, #8, ...
 * RMSD in coord.:     0.8995603 α      energy gain  -0.2129680E+01 Eh

generating ANC from exact Hessian ...
Using Lindh-Hessian (1995)
 Shifting diagonal of input Hessian by    9.9501350531429021E-003
 Lowest  eigenvalues of input Hessian
    0.000000    0.000000    0.000000    0.000000    0.000000    0.000000
    0.010000    0.010008    0.010087    0.010132    0.010208    0.010314
    0.010455    0.010465    0.010601    0.010697    0.010763    0.010991
 Highest eigenvalues
    2.612480    2.644836    2.646366    2.660559    2.663285    2.686014


........................................................................
.............................. CYCLE   21 ..............................
........................................................................

 iter      E             dE          RMSdq      gap      omega  full diag
   1   -209.3286284 -0.209329E+03  0.172E-01    0.02       0.0  T
   2   -209.3070154  0.216131E-01  0.285E-01    0.09       1.0  T
   3   -209.2831740  0.238413E-01  0.393E-01    0.20       1.0  T
   4   -209.3283800 -0.452060E-01  0.879E-02    0.02       1.0  T
   5   -209.3281016  0.278442E-03  0.745E-02    0.02       1.0  T
   6   -209.3289686 -0.866989E-03  0.363E-02    0.02       1.0  T
   7   -209.3292396 -0.270984E-03  0.105E-02    0.02       1.0  T
   8   -209.3292417 -0.210459E-05  0.101E-02    0.02       1.0  T
   9   -209.3292482 -0.657506E-05  0.798E-03    0.02       1.2  T
  10   -209.3292657 -0.174793E-04  0.162E-03    0.02       6.1  T
  11   -209.3292662 -0.430296E-06  0.699E-04    0.02      14.2  T
  12   -209.3292662 -0.477602E-07  0.360E-04    0.02      27.7  T
     SCC iter.                  ...        0 min,  1.387 sec
     gradient                   ...        0 min,  0.038 sec
 * total energy  :  -207.0389379 Eh     change       -0.5363318E-02 Eh
   gradient norm :     0.0411777 Eh/α   predicted     0.0000000E+00 (-100.00%)
   displ. norm   :     0.3424101 α      lambda       -0.4672025E-02
   maximum displ.:     0.1336292 α      in ANC's #20, #8, #15, ...

........................................................................
.............................. CYCLE   22 ..............................
........................................................................

 iter      E             dE          RMSdq      gap      omega  full diag
   1   -209.3377747 -0.209338E+03  0.923E-02    0.02       0.0  T
   2   -209.3343202  0.345451E-02  0.117E-01    0.03       1.0  T
   3   -209.3122848  0.220354E-01  0.292E-01    0.13       1.0  T
   4   -209.3370348 -0.247500E-01  0.538E-02    0.03       1.0  T
   5   -209.3378096 -0.774816E-03  0.130E-02    0.02       1.0  T
   6   -209.3378084  0.119304E-05  0.109E-02    0.02       1.0  T
   7   -209.3378300 -0.215462E-04  0.431E-03    0.02       2.3  T
   8   -209.3378322 -0.217605E-05  0.207E-03    0.02       4.8  T
   9   -209.3378327 -0.498729E-06  0.104E-03    0.02       9.6  T
  10   -209.3378327 -0.677173E-07  0.606E-04    0.02      16.4  T
  11   -209.3378328 -0.428060E-07  0.342E-04    0.02      29.1  T
     SCC iter.                  ...        0 min,  0.896 sec
     gradient                   ...        0 min,  0.035 sec
 * total energy  :  -207.0425814 Eh     change       -0.3643571E-02 Eh
   gradient norm :     0.0193971 Eh/α   predicted    -0.2611431E-02 ( -28.33%)
   displ. norm   :     0.5674840 α      lambda       -0.4060710E-02
   maximum displ.:     0.2297137 α      in ANC's #8, #20, #15, ...

........................................................................
.............................. CYCLE   23 ..............................
........................................................................

 iter      E             dE          RMSdq      gap      omega  full diag
   1   -209.3438568 -0.209344E+03  0.127E-01    0.02       0.0  T
   2   -209.3359533  0.790354E-02  0.173E-01    0.05       1.0  T
   3   -209.3098675  0.260857E-01  0.340E-01    0.17       1.0  T
   4   -209.3413361 -0.314686E-01  0.952E-02    0.04       1.0  T
   5   -209.3438546 -0.251847E-02  0.241E-02    0.02       1.0  T
   6   -209.3438997 -0.451173E-04  0.167E-02    0.02       1.0  T
   7   -209.3439571 -0.573605E-04  0.530E-03    0.02       1.9  T
   8   -209.3439596 -0.253243E-05  0.282E-03    0.02       3.5  T
   9   -209.3439601 -0.509654E-06  0.194E-03    0.02       5.1  T
  10   -209.3439608 -0.696551E-06  0.750E-04    0.02      13.3  T
  11   -209.3439608  0.355328E-07  0.568E-04    0.02      17.5  T
     SCC iter.                  ...        0 min,  0.779 sec
     gradient                   ...        0 min,  0.038 sec
 * total energy  :  -207.0456166 Eh     change       -0.3035121E-02 Eh
   gradient norm :     0.0127446 Eh/α   predicted    -0.2684720E-02 ( -11.54%)
   displ. norm   :     0.5933478 α      lambda       -0.2533529E-02
   maximum displ.:     0.2599570 α      in ANC's #8, #20, #15, ...

........................................................................
.............................. CYCLE   24 ..............................
........................................................................

 iter      E             dE          RMSdq      gap      omega  full diag
   1   -209.3450879 -0.209345E+03  0.118E-01    0.02       0.0  T
   2   -209.3387245  0.636343E-02  0.156E-01    0.04       1.0  T
   3   -209.3125557  0.261688E-01  0.332E-01    0.16       1.0  T
   4   -209.3430019 -0.304462E-01  0.863E-02    0.04       1.0  T
   5   -209.3451236 -0.212173E-02  0.180E-02    0.02       1.0  T
   6   -209.3450871  0.365343E-04  0.177E-02    0.02       1.0  T
   7   -209.3451612 -0.740677E-04  0.561E-03    0.02       1.8  T
   8   -209.3451643 -0.308244E-05  0.356E-03    0.02       2.8  T
   9   -209.3451659 -0.160107E-05  0.183E-03    0.02       5.4  T
  10   -209.3451664 -0.562707E-06  0.741E-04    0.02      13.4  T
  11   -209.3451663  0.873317E-07  0.721E-04    0.02      13.8  T
     SCC iter.                  ...        0 min,  0.862 sec
     gradient                   ...        0 min,  0.037 sec
 * total energy  :  -207.0476825 Eh     change       -0.2065950E-02 Eh
   gradient norm :     0.0172841 Eh/α   predicted    -0.1712745E-02 ( -17.10%)
   displ. norm   :     0.6507434 α      lambda       -0.2335921E-02
   maximum displ.:     0.2982232 α      in ANC's #8, #20, #15, ...

........................................................................
.............................. CYCLE   25 ..............................
........................................................................

 iter      E             dE          RMSdq      gap      omega  full diag
   1   -209.3458055 -0.209346E+03  0.120E-01    0.02       0.0  T
   2   -209.3417028  0.410267E-02  0.131E-01    0.03       1.0  T
   3   -209.3083763  0.333265E-01  0.355E-01    0.19       1.0  T
   4   -209.3440279 -0.356516E-01  0.811E-02    0.04       1.0  T
   5   -209.3457998 -0.177195E-02  0.224E-02    0.02       1.0  T
   6   -209.3457704  0.294207E-04  0.205E-02    0.02       1.0  T
   7   -209.3458718 -0.101363E-03  0.639E-03    0.02       1.6  T
   8   -209.3458733 -0.150246E-05  0.493E-03    0.02       2.0  T
   9   -209.3458777 -0.447843E-05  0.195E-03    0.02       5.1  T
  10   -209.3458783 -0.601263E-06  0.865E-04    0.02      11.5  T
  11   -209.3458782  0.113630E-06  0.877E-04    0.02      11.3  T
     SCC iter.                  ...        0 min,  0.845 sec
     gradient                   ...        0 min,  0.034 sec
 * total energy  :  -207.0496533 Eh     change       -0.1970817E-02 Eh
   gradient norm :     0.0165670 Eh/α   predicted    -0.1662587E-02 ( -15.64%)
   displ. norm   :     0.6793214 α      lambda       -0.2278037E-02
   maximum displ.:     0.3256813 α      in ANC's #8, #20, #13, ...

........................................................................
.............................. CYCLE   26 ..............................
........................................................................

 iter      E             dE          RMSdq      gap      omega  full diag
   1   -209.3483652 -0.209348E+03  0.121E-01    0.02       0.0  T
   2   -209.3477396  0.625544E-03  0.788E-02    0.02       1.0  T
   3   -209.3099154  0.378242E-01  0.358E-01    0.20       1.0  T
   4   -209.3479978 -0.380823E-01  0.480E-02    0.02       1.0  T
   5   -209.3479098  0.880066E-04  0.480E-02    0.03       1.0  T
   6   -209.3484036 -0.493817E-03  0.136E-02    0.02       1.0  T
   7   -209.3484346 -0.310173E-04  0.653E-03    0.02       1.5  T
   8   -209.3484363 -0.172520E-05  0.428E-03    0.02       2.3  T
   9   -209.3484393 -0.297147E-05  0.188E-03    0.02       5.3  T
  10   -209.3484400 -0.640396E-06  0.874E-04    0.02      11.4  T
  11   -209.3484400  0.351938E-08  0.687E-04    0.02      14.5  T
     SCC iter.                  ...        0 min,  0.960 sec
     gradient                   ...        0 min,  0.042 sec
 * total energy  :  -207.0515784 Eh     change       -0.1925075E-02 Eh
   gradient norm :     0.0132107 Eh/α   predicted    -0.1664657E-02 ( -13.53%)
   displ. norm   :     0.6982952 α      lambda       -0.2039031E-02
   maximum displ.:     0.3477647 α      in ANC's #8, #2, #13, ...

........................................................................
.............................. CYCLE   27 ..............................
........................................................................

 iter      E             dE          RMSdq      gap      omega  full diag
   1   -209.3519332 -0.209352E+03  0.125E-01    0.02       0.0  T
   2   -209.3518694  0.638252E-04  0.688E-02    0.02       1.0  T
   3   -209.3429203  0.894906E-02  0.179E-01    0.06       1.0  T
   4   -209.3356359  0.728441E-02  0.233E-01    0.07       1.0  T
   5   -209.3518096 -0.161737E-01  0.342E-02    0.02       1.0  T
   6   -209.3520152 -0.205514E-03  0.104E-02    0.02       1.0  T
   7   -209.3520222 -0.709048E-05  0.631E-03    0.02       1.6  T
   8   -209.3520256 -0.332400E-05  0.300E-03    0.02       3.3  T
   9   -209.3520269 -0.133768E-05  0.104E-03    0.02       9.5  T
  10   -209.3520269 -0.155900E-07  0.801E-04    0.02      12.4  T
  11   -209.3520270 -0.669842E-07  0.392E-04    0.02      25.4  T
     SCC iter.                  ...        0 min,  0.936 sec
     gradient                   ...        0 min,  0.039 sec
 * total energy  :  -207.0532894 Eh     change       -0.1711032E-02 Eh
   gradient norm :     0.0121520 Eh/α   predicted    -0.1516667E-02 ( -11.36%)
   displ. norm   :     0.7115935 α      lambda       -0.1708589E-02
   maximum displ.:     0.3651910 α      in ANC's #8, #2, #7, ...

........................................................................
.............................. CYCLE   28 ..............................
........................................................................

 iter      E             dE          RMSdq      gap      omega  full diag
   1   -209.3545970 -0.209355E+03  0.124E-01    0.02       0.0  T
   2   -209.3536237  0.973384E-03  0.862E-02    0.02       1.0  T
   3   -209.3149898  0.386338E-01  0.364E-01    0.20       1.0  T
   4   -209.3537185 -0.387286E-01  0.679E-02    0.02       1.0  T
   5   -209.3539755 -0.257038E-03  0.532E-02    0.03       1.0  T
   6   -209.3546076 -0.632036E-03  0.188E-02    0.02       1.0  T
   7   -209.3546873 -0.797284E-04  0.678E-03    0.02       1.5  T
   8   -209.3546851  0.216504E-05  0.587E-03    0.02       1.7  T
   9   -209.3546921 -0.697404E-05  0.214E-03    0.02       4.7  T
  10   -209.3546931 -0.962837E-06  0.789E-04    0.02      12.6  T
  11   -209.3546931 -0.435824E-07  0.490E-04    0.02      20.3  T
     SCC iter.                  ...        0 min,  0.767 sec
     gradient                   ...        0 min,  0.038 sec
 * total energy  :  -207.0547414 Eh     change       -0.1451936E-02 Eh
   gradient norm :     0.0122505 Eh/α   predicted    -0.1286890E-02 ( -11.37%)
   displ. norm   :     0.7041164 α      lambda       -0.1524234E-02
   maximum displ.:     0.3711359 α      in ANC's #8, #2, #7, ...

........................................................................
.............................. CYCLE   29 ..............................
........................................................................

 iter      E             dE          RMSdq      gap      omega  full diag
   1   -209.3590785 -0.209359E+03  0.117E-01    0.02       0.0  T
   2   -209.3554731  0.360543E-02  0.124E-01    0.03       1.0  T
   3   -209.3231780  0.322951E-01  0.348E-01    0.19       1.0  T
   4   -209.3577266 -0.345486E-01  0.773E-02    0.03       1.0  T
   5   -209.3586505 -0.923869E-03  0.451E-02    0.03       1.0  T
   6   -209.3590543 -0.403784E-03  0.207E-02    0.02       1.0  T
   7   -209.3591569 -0.102609E-03  0.716E-03    0.02       1.4  T
   8   -209.3591573 -0.393022E-06  0.619E-03    0.02       1.6  T
   9   -209.3591657 -0.846948E-05  0.217E-03    0.02       4.6  T
  10   -209.3591668 -0.101736E-05  0.724E-04    0.02      13.7  T
  11   -209.3591668 -0.174671E-07  0.501E-04    0.02      19.9  T
  12   -209.3591668 -0.349512E-07  0.225E-04    0.02      44.2  T
     SCC iter.                  ...        0 min,  0.766 sec
     gradient                   ...        0 min,  0.040 sec
 * total energy  :  -207.0560509 Eh     change       -0.1309546E-02 Eh
   gradient norm :     0.0112730 Eh/α   predicted    -0.1139979E-02 ( -12.95%)
   displ. norm   :     0.7350740 α      lambda       -0.1470013E-02
   maximum displ.:     0.3853220 α      in ANC's #8, #2, #7, ...

........................................................................
.............................. CYCLE   30 ..............................
........................................................................

 iter      E             dE          RMSdq      gap      omega  full diag
   1   -209.3600947 -0.209360E+03  0.117E-01    0.03       0.0  T
   2   -209.3489264  0.111683E-01  0.200E-01    0.06       1.0  T
   3   -209.3366228  0.123035E-01  0.285E-01    0.13       1.0  T
   4   -209.3582274 -0.216046E-01  0.868E-02    0.04       1.0  T
   5   -209.3598156 -0.158822E-02  0.399E-02    0.03       1.0  T
   6   -209.3601463 -0.330664E-03  0.173E-02    0.02       1.0  T
   7   -209.3601927 -0.464553E-04  0.102E-02    0.02       1.0  T
   8   -209.3602167 -0.239698E-04  0.366E-03    0.02       2.7  T
   9   -209.3602193 -0.256506E-05  0.145E-03    0.02       6.9  T
  10   -209.3602196 -0.387932E-06  0.601E-04    0.02      16.5  T
  11   -209.3602196 -0.903270E-08  0.388E-04    0.02      25.6  T
     SCC iter.                  ...        0 min,  0.644 sec
     gradient                   ...        0 min,  0.035 sec
 * total energy  :  -207.0573420 Eh     change       -0.1291111E-02 Eh
   gradient norm :     0.0122658 Eh/α   predicted    -0.1132161E-02 ( -12.31%)
   displ. norm   :     0.7581223 α      lambda       -0.1689472E-02
   maximum displ.:     0.3782946 α      in ANC's #8, #7, #2, ...

........................................................................
.............................. CYCLE   31 ..............................
........................................................................

 iter      E             dE          RMSdq      gap      omega  full diag
   1   -209.3695254 -0.209370E+03  0.120E-01    0.03       0.0  T
   2   -209.3534075  0.161179E-01  0.237E-01    0.07       1.0  T
   3   -209.3506522  0.275521E-02  0.257E-01    0.11       1.0  T
   4   -209.3680191 -0.173669E-01  0.784E-02    0.04       1.0  T
   5   -209.3694223 -0.140317E-02  0.326E-02    0.03       1.0  T
   6   -209.3696319 -0.209591E-03  0.147E-02    0.02       1.0  T
   7   -209.3696605 -0.286014E-04  0.908E-03    0.02       1.1  T
   8   -209.3696788 -0.182705E-04  0.333E-03    0.03       3.0  T
   9   -209.3696807 -0.193506E-05  0.123E-03    0.03       8.1  T
  10   -209.3696809 -0.217348E-06  0.610E-04    0.03      16.3  T
  11   -209.3696809 -0.945136E-08  0.331E-04    0.03      30.0  T
     SCC iter.                  ...        0 min,  0.809 sec
     gradient                   ...        0 min,  0.035 sec
 * total energy  :  -207.0586734 Eh     change       -0.1331331E-02 Eh
   gradient norm :     0.0150039 Eh/α   predicted    -0.1330250E-02 (  -0.08%)
   displ. norm   :     0.7830703 α      lambda       -0.1661683E-02
   maximum displ.:     0.3774039 α      in ANC's #8, #7, #2, ...

........................................................................
.............................. CYCLE   32 ..............................
........................................................................

 iter      E             dE          RMSdq      gap      omega  full diag
   1   -209.3636592 -0.209364E+03  0.122E-01    0.03       0.0  T
   2   -209.3456679  0.179913E-01  0.250E-01    0.08       1.0  T
   3   -209.3451020  0.565938E-03  0.256E-01    0.11       1.0  T
   4   -209.3624353 -0.173333E-01  0.714E-02    0.04       1.0  T
   5   -209.3636276 -0.119230E-02  0.296E-02    0.03       1.0  T
   6   -209.3637634 -0.135778E-03  0.169E-02    0.02       1.0  T
   7   -209.3637913 -0.279542E-04  0.117E-02    0.02       1.0  T
   8   -209.3638271 -0.358066E-04  0.273E-03    0.03       3.6  T
   9   -209.3638280 -0.896895E-06  0.131E-03    0.03       7.6  T
  10   -209.3638283 -0.238623E-06  0.674E-04    0.03      14.8  T
  11   -209.3638283  0.458741E-08  0.452E-04    0.03      22.0  T
     SCC iter.                  ...        0 min,  0.797 sec
     gradient                   ...        0 min,  0.034 sec
 * total energy  :  -207.0600595 Eh     change       -0.1386160E-02 Eh
   gradient norm :     0.0137676 Eh/α   predicted    -0.1340315E-02 (  -3.31%)
   displ. norm   :     0.7377514 α      lambda       -0.1482972E-02
   maximum displ.:     0.3149269 α      in ANC's #8, #7, #2, ...

........................................................................
.............................. CYCLE   33 ..............................
........................................................................

 iter      E             dE          RMSdq      gap      omega  full diag
   1   -209.3639444 -0.209364E+03  0.114E-01    0.03       0.0  T
   2   -209.3497090  0.142354E-01  0.224E-01    0.07       1.0  T
   3   -209.3463251  0.338392E-02  0.249E-01    0.11       1.0  T
   4   -209.3629613 -0.166362E-01  0.646E-02    0.04       1.0  T
   5   -209.3638911 -0.929881E-03  0.267E-02    0.03       1.0  T
   6   -209.3640143 -0.123192E-03  0.148E-02    0.02       1.0  T
   7   -209.3640606 -0.462829E-04  0.653E-03    0.03       1.5  T
   8   -209.3640711 -0.105270E-04  0.213E-03    0.03       4.7  T
   9   -209.3640716 -0.485392E-06  0.144E-03    0.03       6.9  T
  10   -209.3640718 -0.224540E-06  0.888E-04    0.03      11.2  T
  11   -209.3640719 -0.423050E-07  0.557E-04    0.03      17.9  T
     SCC iter.                  ...        0 min,  0.740 sec
     gradient                   ...        0 min,  0.033 sec
 * total energy  :  -207.0613545 Eh     change       -0.1294973E-02 Eh
   gradient norm :     0.0123523 Eh/α   predicted    -0.1145061E-02 ( -11.58%)
   displ. norm   :     0.7516921 α      lambda       -0.1525589E-02
   maximum displ.:     0.2993181 α      in ANC's #7, #8, #2, ...

........................................................................
.............................. CYCLE   34 ..............................
........................................................................

 iter      E             dE          RMSdq      gap      omega  full diag
   1   -209.3638936 -0.209364E+03  0.116E-01    0.03       0.0  T
   2   -209.3586589  0.523472E-02  0.145E-01    0.04       1.0  T
   3   -209.3348835  0.237754E-01  0.315E-01    0.16       1.0  T
   4   -209.3618631 -0.269796E-01  0.868E-02    0.04       1.0  T
   5   -209.3636613 -0.179820E-02  0.339E-02    0.03       1.0  T
   6   -209.3639272 -0.265886E-03  0.129E-02    0.02       1.0  T
   7   -209.3639510 -0.238152E-04  0.761E-03    0.02       1.3  T
   8   -209.3639591 -0.811276E-05  0.417E-03    0.03       2.4  T
   9   -209.3639608 -0.169439E-05  0.238E-03    0.03       4.2  T
  10   -209.3639620 -0.115598E-05  0.962E-04    0.03      10.3  T
  11   -209.3639620 -0.606548E-08  0.687E-04    0.03      14.5  T
  12   -209.3639620 -0.529350E-07  0.352E-04    0.03      28.3  T
     SCC iter.                  ...        0 min,  0.713 sec
     gradient                   ...        0 min,  0.033 sec
 * total energy  :  -207.0626035 Eh     change       -0.1248995E-02 Eh
   gradient norm :     0.0122562 Eh/α   predicted    -0.1193816E-02 (  -4.42%)
   displ. norm   :     0.7414371 α      lambda       -0.1418273E-02
   maximum displ.:     0.2968833 α      in ANC's #7, #2, #8, ...

........................................................................
.............................. CYCLE   35 ..............................
........................................................................

 iter      E             dE          RMSdq      gap      omega  full diag
   1   -209.3714589 -0.209371E+03  0.116E-01    0.03       0.0  T
   2   -209.3686839  0.277499E-02  0.114E-01    0.03       1.0  T
   3   -209.3362205  0.324634E-01  0.345E-01    0.19       1.0  T
   4   -209.3695406 -0.333201E-01  0.866E-02    0.04       1.0  T
   5   -209.3709975 -0.145697E-02  0.429E-02    0.03       1.0  T
   6   -209.3714862 -0.488688E-03  0.116E-02    0.02       1.0  T
   7   -209.3714775  0.875363E-05  0.107E-02    0.02       1.0  T
   8   -209.3715065 -0.290445E-04  0.351E-03    0.02       2.8  T
   9   -209.3715072 -0.708301E-06  0.222E-03    0.02       4.5  T
  10   -209.3715081 -0.894190E-06  0.107E-03    0.02       9.3  T
  11   -209.3715082 -0.774985E-07  0.667E-04    0.02      14.9  T
  12   -209.3715082 -0.334017E-07  0.410E-04    0.02      24.3  T
     SCC iter.                  ...        0 min,  0.844 sec
     gradient                   ...        0 min,  0.032 sec
 * total energy  :  -207.0636019 Eh     change       -0.9983730E-03 Eh
   gradient norm :     0.0166863 Eh/α   predicted    -0.1098973E-02 (  10.08%)
   displ. norm   :     0.7742657 α      lambda       -0.1316909E-02
   maximum displ.:     0.3283356 α      in ANC's #8, #7, #2, ...

........................................................................
.............................. CYCLE   36 ..............................
........................................................................

 iter      E             dE          RMSdq      gap      omega  full diag
   1   -209.3633244 -0.209363E+03  0.114E-01    0.02       0.0  T
   2   -209.3613718  0.195259E-02  0.100E-01    0.02       1.0  T
   3   -209.3256944  0.356774E-01  0.355E-01    0.21       1.0  T
   4   -209.3618113 -0.361169E-01  0.747E-02    0.04       1.0  T
   5   -209.3632782 -0.146690E-02  0.219E-02    0.03       1.0  T
   6   -209.3632991 -0.208982E-04  0.179E-02    0.02       1.0  T
   7   -209.3633578 -0.587381E-04  0.751E-03    0.02       1.3  T
   8   -209.3633655 -0.763626E-05  0.498E-03    0.02       2.0  T
   9   -209.3633699 -0.441923E-05  0.241E-03    0.02       4.1  T
  10   -209.3633710 -0.106960E-05  0.109E-03    0.02       9.1  T
  11   -209.3633710 -0.826803E-07  0.744E-04    0.02      13.4  T
  12   -209.3633711 -0.815957E-07  0.332E-04    0.02      29.9  T
     SCC iter.                  ...        0 min,  0.844 sec
     gradient                   ...        0 min,  0.037 sec
 * total energy  :  -207.0646293 Eh     change       -0.1027466E-02 Eh
   gradient norm :     0.0151952 Eh/α   predicted    -0.1053195E-02 (   2.50%)
   displ. norm   :     0.6240662 α      lambda       -0.1148918E-02
   maximum displ.:     0.2523465 α      in ANC's #2, #7, #1, ...

........................................................................
.............................. CYCLE   37 ..............................
........................................................................

 iter      E             dE          RMSdq      gap      omega  full diag
   1   -209.3677680 -0.209368E+03  0.953E-02    0.02       0.0  T
   2   -209.3623172  0.545083E-02  0.144E-01    0.06       1.0  T
   3   -209.3431538  0.191634E-01  0.287E-01    0.09       1.0  T
   4   -209.3677479 -0.245941E-01  0.228E-02    0.02       1.0  T
   5   -209.3677834 -0.354255E-04  0.166E-02    0.02       1.0  T
   6   -209.3678217 -0.383139E-04  0.864E-03    0.02       1.2  T
   7   -209.3678285 -0.681251E-05  0.453E-03    0.02       2.2  T
   8   -209.3678309 -0.244073E-05  0.257E-03    0.02       3.9  T
   9   -209.3678315 -0.578450E-06  0.154E-03    0.02       6.5  T
  10   -209.3678320 -0.445322E-06  0.657E-04    0.02      15.1  T
  11   -209.3678319  0.125995E-07  0.496E-04    0.02      20.0  T
     SCC iter.                  ...        0 min,  0.938 sec
     gradient                   ...        0 min,  0.034 sec
 * total energy  :  -207.0654704 Eh     change       -0.8411215E-03 Eh
   gradient norm :     0.0143680 Eh/α   predicted    -0.7981915E-03 (  -5.10%)
   displ. norm   :     0.6728638 α      lambda       -0.1103821E-02
   maximum displ.:     0.2831204 α      in ANC's #2, #7, #1, ...

........................................................................
.............................. CYCLE   38 ..............................
........................................................................

 iter      E             dE          RMSdq      gap      omega  full diag
   1   -209.3704663 -0.209370E+03  0.104E-01    0.02       0.0  T
   2   -209.3693283  0.113802E-02  0.828E-02    0.04       1.0  T
   3   -209.3198852  0.494431E-01  0.406E-01    0.17       1.0  T
   4   -209.3704347 -0.505495E-01  0.228E-02    0.02       1.0  T
   5   -209.3704499 -0.151815E-04  0.166E-02    0.02       1.0  T
   6   -209.3704861 -0.362611E-04  0.102E-02    0.02       1.0  T
   7   -209.3705013 -0.151321E-04  0.496E-03    0.02       2.0  T
   8   -209.3705015 -0.219041E-06  0.410E-03    0.02       2.4  T
   9   -209.3705041 -0.258348E-05  0.224E-03    0.02       4.4  T
  10   -209.3705053 -0.122600E-05  0.721E-04    0.02      13.8  T
  11   -209.3705052  0.851702E-07  0.738E-04    0.02      13.5  T
  12   -209.3705053 -0.135771E-06  0.163E-04    0.02      60.9  T
     SCC iter.                  ...        0 min,  0.946 sec
     gradient                   ...        0 min,  0.039 sec
 * total energy  :  -207.0662283 Eh     change       -0.7578398E-03 Eh
   gradient norm :     0.0132270 Eh/α   predicted    -0.8017925E-03 (   5.80%)
   displ. norm   :     0.6584174 α      lambda       -0.9666007E-03
   maximum displ.:     0.2876126 α      in ANC's #2, #7, #1, ...

........................................................................
.............................. CYCLE   39 ..............................
........................................................................

[...]
   158   8 O    2.192 --   126 S    1.085   159 C    0.950
   159   6 C    3.905 --   187 H    0.975   186 H    0.973   185 H    0.969
                           158 O    0.950
   160   8 O    2.005 --   126 S    1.637   151 S    0.185
   161   8 O    1.988 --   151 S    1.816
   162   8 O    2.124 --   151 S    0.994   163 C    0.986
   163   6 C    3.934 --   162 O    0.986   182 H    0.975   183 H    0.973
                           184 H    0.969
   164   8 O    2.004 --   153 S    1.813
   165   8 O    2.178 --   153 S    1.062   166 C    0.973
   166   6 C    3.931 --   175 H    0.979   173 H    0.975   165 O    0.973
                           174 H    0.971
   167   8 O    2.035 --   152 S    1.710    51 S    0.150
   168   8 O    2.191 --   152 S    1.099   169 C    0.961
   169   6 C    3.924 --   177 H    0.981   178 H    0.979   176 H    0.971
                           168 O    0.961
   170   8 O    2.016 --   125 S    1.836
   171   8 O    2.173 --   125 S    1.058   172 C    0.971
   172   6 C    3.933 --   180 H    0.975   181 H    0.974   179 H    0.971
                           171 O    0.971
   173   1 H    0.995 --   166 C    0.975
   174   1 H    0.996 --   166 C    0.971
   175   1 H    0.999 --   166 C    0.979
   176   1 H    0.992 --   169 C    0.971
   177   1 H    0.997 --   169 C    0.981
   178   1 H    0.996 --   169 C    0.979
   179   1 H    0.995 --   172 C    0.971
   180   1 H    0.998 --   172 C    0.975
   181   1 H    0.998 --   172 C    0.974
   182   1 H    0.995 --   163 C    0.975
   183   1 H    0.995 --   163 C    0.973
   184   1 H    0.995 --   163 C    0.969
   185   1 H    0.993 --   159 C    0.969
   186   1 H    0.993 --   159 C    0.973
   187   1 H    0.994 --   159 C    0.975
   188   1 H    0.996 --   157 C    0.974
   189   1 H    0.998 --   157 C    0.978
   190   1 H    0.996 --   157 C    0.971
   191   1 H    0.992 --   142 C    0.957
   192   1 H    0.994 --   144 C    0.962
   193   1 H    0.993 --   148 C    0.957
   194   1 H    0.994 --   132 C    0.959
   195   1 H    0.991 --   146 C    0.954
   196   1 H    0.991 --   128 C    0.957
   197   1 H    0.994 --   102 C    0.959
   198   1 H    0.996 --   120 C    0.952
   199   1 H    0.990 --   122 C    0.956
   200   1 H    0.994 --   106 C    0.954
   201   1 H    0.991 --   118 C    0.951
   202   1 H    0.993 --   116 C    0.962
 ---------------------------------------------------------------------------

Topologies differ in total number of bonds
Writing corrected topology to xtbtopo.mol

molecular dipole:
                 x           y           z       tot (Debye)
 q only:        0.762      -0.935       1.102
   full:        0.893      -0.616       1.316       4.335
molecular quadrupole (traceless):
                xx          xy          yy          xz          yz          zz
 q only:      -12.531      30.873      44.711     -11.401      69.669     -32.180
  q+dip:       -6.738      31.173      28.316     -21.113      65.344     -21.578
   full:       -9.120      33.727      16.468     -37.244      66.932      -7.347

           -------------------------------------------------
          |                Geometry Summary                 |
           -------------------------------------------------

      molecular mass/u    :     2147.8552923
   center of mass at/Å    :       -1.0868210       0.6102617       4.2825295
  moments of inertia/u·Å² :        0.3936381E+05   0.6493784E+05   0.8109614E+05
rotational constants/cm⁻¹ :        0.4282521E-03   0.2595964E-03   0.2078722E-03

 * 188 selected distances

     #   Z          #   Z                                           value/Å
     1   6 C        2   6 C                                       1.3887126
     2   6 C        3   6 C                                       1.4153597
     3   6 C        4   6 C                                       1.4357057
     4   6 C        5   6 C                                       1.4039259
     1   6 C        6   6 C                                       1.3866224
     5   6 C        6   6 C                                       1.3671766
     7   6 C        8   6 C                                       1.4130169
     8   6 C        9   6 C                                       1.4279442
     4   6 C       10   7 N                                       1.3465237
     9   6 C       10   7 N                                       1.2987659
    11   6 C       12   6 C                                       1.4337318
    12   6 C       13   7 N                                       1.3493929
     8   6 C       14   6 C                                       1.4103811
    13   7 N       14   6 C                                       1.2920082
    15   6 C       16   6 C                                       1.4882558
    16   6 C       17   6 C                                       1.3343348
    11   6 C       18   6 C                                       1.4328092
    18   6 C       19   6 C                                       1.3956931
    19   6 C       20   6 C                                       1.3850145
    12   6 C       21   6 C                                       1.3979848
    20   6 C       21   6 C                                       1.3632843
     2   6 C       22   8 O                                       1.3552750
    18   6 C       23   8 O                                       1.3478818
    27   6 C       28   6 C                                       1.3921803
    30   6 C       31   6 C                                       1.4147911
    27   6 C       32   6 C                                       1.3888376
    31   6 C       32   6 C                                       1.3606856
    33   6 C       34   6 C                                       1.4108577
    34   6 C       35   6 C                                       1.4201875
    30   6 C       36   7 N                                       1.3311766
    35   6 C       36   7 N                                       1.3250010
    33   6 C       37   6 C                                       1.4293906
    38   6 C       39   7 N                                       1.3198690
    34   6 C       40   6 C                                       1.4288487
    39   7 N       40   6 C                                       1.3341276
    40   6 C       41   6 C                                       1.4045400
    41   6 C       42   6 C                                       1.3826128
    35   6 C       43   6 C                                       1.4152807
    42   6 C       43   6 C                                       1.3744331
    37   6 C       44   6 C                                       1.4065414
    44   6 C       45   6 C                                       1.4071470
    45   6 C       46   6 C                                       1.3833062
    38   6 C       47   6 C                                       1.4194460
    46   6 C       47   6 C                                       1.3601984
    28   6 C       48   8 O                                       1.3492411
    44   6 C       49   8 O                                       1.3240631
    22   8 O       53   5 B                                       1.4571975
    23   8 O       53   5 B                                       1.4638857
    48   8 O       53   5 B                                       1.4944878
    49   8 O       53   5 B                                       1.4886230
    26  16 S       54   8 O                                       1.4510290
    55   8 O       56   6 C                                       1.4139457
    57   8 O       58   6 C                                       1.4107499
    25  16 S       59   8 O                                       1.4532259
    50  16 S       60   8 O                                       1.4693424
    61   8 O       62   6 C                                       1.4153148
    52  16 S       63   8 O                                       1.4468646
    64   8 O       65   6 C                                       1.4110266
    51  16 S       66   8 O                                       1.4383494
    67   8 O       68   6 C                                       1.4109358
    24  16 S       69   8 O                                       1.4488515
    70   8 O       71   6 C                                       1.4090014
    65   6 C       72   1 H                                       1.0886231
    65   6 C       73   1 H                                       1.0943253
    65   6 C       74   1 H                                       1.0922041
    68   6 C       75   1 H                                       1.0893072
    68   6 C       76   1 H                                       1.0932288
    68   6 C       77   1 H                                       1.0929592
    71   6 C       78   1 H                                       1.0894661
    71   6 C       79   1 H                                       1.0936753
    71   6 C       80   1 H                                       1.0946386
    62   6 C       81   1 H                                       1.0895584
    62   6 C       82   1 H                                       1.0934797
    62   6 C       83   1 H                                       1.0938023
    58   6 C       84   1 H                                       1.0938997
    58   6 C       85   1 H                                       1.0934398
    58   6 C       86   1 H                                       1.0891871
    56   6 C       87   1 H                                       1.0910045
    56   6 C       88   1 H                                       1.0938907
    56   6 C       89   1 H                                       1.0922245
    41   6 C       90   1 H                                       1.0794711
    43   6 C       91   1 H                                       1.0781215
    47   6 C       92   1 H                                       1.0760853
    31   6 C       93   1 H                                       1.0769747
    45   6 C       94   1 H                                       1.0792710
    27   6 C       95   1 H                                       1.0784195
     1   6 C       96   1 H                                       1.0750256 (min)
    19   6 C       97   1 H                                       1.0783683
    21   6 C       98   1 H                                       1.0776591
     5   6 C       99   1 H                                       1.0770822
    17   6 C      100   1 H                                       1.0788686
    15   6 C      101   1 H                                       1.0960854
   102   6 C      103   6 C                                       1.3918089
   103   6 C      104   6 C                                       1.4141249
   104   6 C      105   6 C                                       1.4199977
   105   6 C      106   6 C                                       1.3899675
   102   6 C      107   6 C                                       1.3771087
   106   6 C      107   6 C                                       1.3770714
   108   6 C      109   6 C                                       1.4153700
   109   6 C      110   6 C                                       1.4153171
    15   6 C      111   7 N                                       1.4722027
   105   6 C      111   7 N                                       1.3887855
   110   6 C      111   7 N                                       1.3761279
   108   6 C      112   6 C                                       1.4258105
   113   6 C      114   7 N                                       1.3264174
   109   6 C      115   6 C                                       1.4283166
   114   7 N      115   6 C                                       1.3266053
   115   6 C      116   6 C                                       1.4129370
   116   6 C      117   6 C                                       1.3710294
   110   6 C      118   6 C                                       1.3869447
   117   6 C      118   6 C                                       1.3887624
   112   6 C      119   6 C                                       1.4294567
   119   6 C      120   6 C                                       1.3940588
   120   6 C      121   6 C                                       1.3879309
   113   6 C      122   6 C                                       1.4214706
   121   6 C      122   6 C                                       1.3641946
   103   6 C      123   8 O                                       1.3324435
   119   6 C      124   8 O                                       1.3266738
   128   6 C      129   6 C                                       1.3949183
   129   6 C      130   6 C                                       1.4178717
   131   6 C      132   6 C                                       1.4233440
   128   6 C      133   6 C                                       1.3849295
   132   6 C      133   6 C                                       1.3636025
   134   6 C      135   6 C                                       1.4188487
   135   6 C      136   6 C                                       1.4269810
   131   6 C      137   7 N                                       1.3285395
   136   6 C      137   7 N                                       1.3278794
   139   6 C      140   7 N                                       1.3267451
   135   6 C      141   6 C                                       1.4249300
   140   7 N      141   6 C                                       1.3254222
   141   6 C      142   6 C                                       1.4114107
   142   6 C      143   6 C                                       1.3762486
   136   6 C      144   6 C                                       1.4118868
   143   6 C      144   6 C                                       1.3774653
   138   6 C      145   6 C                                       1.4330205
   145   6 C      146   6 C                                       1.4035751
   146   6 C      147   6 C                                       1.3817593
   139   6 C      148   6 C                                       1.4181066
   147   6 C      148   6 C                                       1.3658922
   129   6 C      149   8 O                                       1.3258300
   145   6 C      150   8 O                                       1.3235805
   123   8 O      154   5 B                                       1.4589711
   124   8 O      154   5 B                                       1.4878764
   149   8 O      154   5 B                                       1.4536103
   150   8 O      154   5 B                                       1.4404975
   127  16 S      155   8 O                                       1.4522495
   156   8 O      157   6 C                                       1.4058151
   126  16 S      158   8 O                                       1.6417678 (max)
   158   8 O      159   6 C                                       1.4154763
   126  16 S      160   8 O                                       1.4809485
   151  16 S      161   8 O                                       1.4437194
   162   8 O      163   6 C                                       1.4006355
   153  16 S      164   8 O                                       1.4530744
   165   8 O      166   6 C                                       1.4055240
   152  16 S      167   8 O                                       1.4665617
   168   8 O      169   6 C                                       1.4113415
   125  16 S      170   8 O                                       1.4520724
   171   8 O      172   6 C                                       1.4096311
   166   6 C      173   1 H                                       1.0888901
   166   6 C      174   1 H                                       1.0945435
   166   6 C      175   1 H                                       1.0941760
   169   6 C      176   1 H                                       1.0885386
   169   6 C      177   1 H                                       1.0931407
   169   6 C      178   1 H                                       1.0928209
   172   6 C      179   1 H                                       1.0894258
   172   6 C      180   1 H                                       1.0935198
   172   6 C      181   1 H                                       1.0949247
   163   6 C      182   1 H                                       1.0904502
   163   6 C      183   1 H                                       1.0957654
   163   6 C      184   1 H                                       1.0943722
   159   6 C      185   1 H                                       1.0931294
   159   6 C      186   1 H                                       1.0915610
   159   6 C      187   1 H                                       1.0902534
   157   6 C      188   1 H                                       1.0887334
   157   6 C      189   1 H                                       1.0941778
   157   6 C      190   1 H                                       1.0948568
   142   6 C      191   1 H                                       1.0792357
   144   6 C      192   1 H                                       1.0782605
   148   6 C      193   1 H                                       1.0770877
   132   6 C      194   1 H                                       1.0765669
   146   6 C      195   1 H                                       1.0766872
   128   6 C      196   1 H                                       1.0795559
   102   6 C      197   1 H                                       1.0773908
   120   6 C      198   1 H                                       1.0768291
   122   6 C      199   1 H                                       1.0758708
   106   6 C      200   1 H                                       1.0760597
   118   6 C      201   1 H                                       1.0784390
   116   6 C      202   1 H                                       1.0774639

 * 6 distinct bonds (by element types)

   Z      Z             #   av. dist./Å        max./Å        min./Å
   1 H    6 C          60     1.0867179     1.0960854     1.0750256
   6 C    6 C          70     1.4017958     1.4882558     1.3343348
   6 C    7 N          17     1.3409171     1.4722027     1.2920082
   5 B    8 O           8     1.4681437     1.4944878     1.4404975
   6 C    8 O          20     1.3802193     1.4154763     1.3235805
   8 O   16 S          13     1.4690813     1.6417678     1.4383494


optimized geometry written to: xtbopt.mol


           -------------------------------------------------
          | TOTAL ENERGY             -414.347426628225 Eh   |
          | GRADIENT NORM               0.000629153368 Eh/α |
          | HOMO-LUMO GAP               0.111667105597 eV   |
           -------------------------------------------------
########################################################################
[WARNING] Runtime exception occurred
-3- restart_readRestart: Dimension missmatch in restart file.
-2- restart_readRestart: Multiplicity missmatch in restart file.
-1- restart_readRestart: Number of electron missmatch in restart file.
########################################################################

------------------------------------------------------------------------
 * finished run on 2024/12/13 at 12:37:08.249     
------------------------------------------------------------------------
Note: The following floating-point exceptions are signalling: IEEE_UNDERFLOW_FLAG
normal termination of xtb
 total:
 * wall-time:     0 d,  0 h,  8 min,  3.177 sec
 *  cpu-time:     0 d,  0 h, 28 min, 41.330 sec
 * ratio c/w:     3.563 speedup
 SCF:
 * wall-time:     0 d,  0 h,  0 min,  6.461 sec
 *  cpu-time:     0 d,  0 h,  0 min, 24.610 sec
 * ratio c/w:     3.809 speedup
 ANC optimizer:
 * wall-time:     0 d,  0 h,  7 min, 56.634 sec
 *  cpu-time:     0 d,  0 h, 28 min, 16.600 sec
 * ratio c/w:     3.560 speedup

Running optimization for loose_opt_dimer.mol
