Optimization of monomers started
      -----------------------------------------------------------      
     |                   =====================                   |     
     |                           x T B                           |     
     |                   =====================                   |     
     |                         S. Grimme                         |     
     |          Mulliken Center for Theoretical Chemistry        |     
     |                    University of Bonn                     |     
      -----------------------------------------------------------      

   * xtb version 6.7.1 (edcfbbe) compiled by 'runner@Mac-1732539442253.local' on 2024-11-25

   xtb is free software: you can redistribute it and/or modify it under
   the terms of the GNU Lesser General Public License as published by
   the Free Software Foundation, either version 3 of the License, or
   (at your option) any later version.
   
   xtb is distributed in the hope that it will be useful,
   but WITHOUT ANY WARRANTY; without even the implied warranty of
   MERCHANTABILITY or FITNESS FOR A PARTICULAR PURPOSE.  See the
   GNU Lesser General Public License for more details.
   
   Cite this work as:
   * C. Bannwarth, E. Caldeweyher, S. Ehlert, A. Hansen, P. Pracht,
     J. Seibert, S. Spicher, S. Grimme, WIREs Comput. Mol. Sci., 2020, 11,
     e01493. DOI: 10.1002/wcms.1493
   
   for GFN2-xTB:
   * C. Bannwarth, S. Ehlert and S. Grimme., J. Chem. Theory Comput., 2019,
     15, 1652-1671. DOI: 10.1021/acs.jctc.8b01176
   for GFN1-xTB:
   * S. Grimme, C. Bannwarth, P. Shushkov, J. Chem. Theory Comput., 2017,
     13, 1989-2009. DOI: 10.1021/acs.jctc.7b00118
   for GFN0-xTB:
   * P. Pracht, E. Caldeweyher, S. Ehlert, S. Grimme, ChemRxiv, 2019, preprint.
     DOI: 10.26434/chemrxiv.8326202.v1
   for GFN-FF:
   * S. Spicher and S. Grimme, Angew. Chem. Int. Ed., 2020, 59, 15665-15673.
     DOI: 10.1002/anie.202004239
   
   for ALPB and GBSA implicit solvation:
   * S. Ehlert, M. Stahn, S. Spicher, S. Grimme, J. Chem. Theory Comput.,
     2021, 17, 4250-4261. DOI: 10.1021/acs.jctc.1c00471
   
   for ddCOSMO and CPCM-X implicit solvation:
   * M. Stahn, S. Ehlert, S. Grimme, J. Phys. Chem. A,
     2023, XX, XXXX-XXXX. DOI: 10.1021/acs.jpca.3c04382
   
   for DFT-D4:
   * E. Caldeweyher, C. Bannwarth and S. Grimme, J. Chem. Phys., 2017,
     147, 034112. DOI: 10.1063/1.4993215
   * E. Caldeweyher, S. Ehlert, A. Hansen, H. Neugebauer, S. Spicher,
     C. Bannwarth and S. Grimme, J. Chem. Phys., 2019, 150, 154122.
     DOI: 10.1063/1.5090222
   * E. Caldeweyher, J.-M. Mewes, S. Ehlert and S. Grimme, Phys. Chem. Chem. Phys.
     2020, 22, 8499-8512. DOI: 10.1039/D0CP00502A
   
   for sTDA-xTB:
   * S. Grimme and C. Bannwarth, J. Chem. Phys., 2016, 145, 054103.
     DOI: 10.1063/1.4959605
   
   in the mass-spec context:
   * V. Asgeirsson, C. Bauer and S. Grimme, Chem. Sci., 2017, 8, 4879.
     DOI: 10.1039/c7sc00601b
   * J. Koopman and S. Grimme, ACS Omega 2019, 4, 12, 15120-15133.
     DOI: 10.1021/acsomega.9b02011
   
   for metadynamics refer to:
   * S. Grimme, J. Chem. Theory Comput., 2019, 155, 2847-2862
     DOI: 10.1021/acs.jctc.9b00143
   
   for SPH calculations refer to:
   * S. Spicher and S. Grimme, J. Chem. Theory Comput., 2021, 17, 1701-1714
     DOI: 10.1021/acs.jctc.0c01306
   
   for ONIOM refer to:
   * C. Plett, A. Katbashev, S. Ehlert, S. Grimme, M. Bursch,
     Phys. Chem. Chem. Phys., 2023, 25, 17860-17868. DOI: 10.1039/D3CP02178E
   
   for DIPRO refer to:
   * J. Kohn, N. Gildemeister, S. Grimme, D. Fazzi, A. Hansen,
     J. Chem. Phys., 2023, just accepted.
   
   for PTB refer to:
   * S. Grimme, M. Mueller, A. Hansen, J. Chem. Phys., 2023, 158, 124111.
     DOI: 10.1063/5.0137838
   
   with help from (in alphabetical order)
   P. Atkinson, C. Bannwarth, F. Bohle, G. Brandenburg, E. Caldeweyher
   M. Checinski, S. Dohm, S. Ehlert, S. Ehrlich, I. Gerasimov, C. Hölzer
   A. Katbashev, J. Kohn, J. Koopman, C. Lavigne, S. Lehtola, F. März, M. Müller,
   F. Musil, H. Neugebauer, J. Pisarek, C. Plett, P. Pracht, F. Pultar,
   J. Seibert, P. Shushkov, S. Spicher, M. Stahn, M. Steiner, T. Strunk,
   J. Stückrath, T. Rose, and J. Unsleber
   
 * started run on 2025/02/24 at 15:17:42.296     
   ID    Z sym.   atoms
    1    6 C      1-9, 11, 12, 14-21, 27-35, 37, 38, 40-47, 56, 58, 62, 65,
                  68, 71
    2    7 N      10, 13, 36, 39
    3    8 O      22, 23, 48, 49, 54, 55, 57, 59-61, 63, 64, 66, 67, 69, 70
    4   16 S      24-26, 50-52
    5    5 B      53
    6    1 H      72-101

           -------------------------------------------------
          |                Calculation Setup                |
           -------------------------------------------------

          program call               : xtb Base1SO2Me.mol --opt --chrg 0 --uhf 1 --tight --spinpol --tblite
          coordinate file            : Base1SO2Me.mol
          omp threads                :                     8


molecular fragmentation (1/2 indicates fragments):
111111111111111111111111112222222222222222222222222211111112222222221112
22222111222111111222222112211
# atoms in fragment 1/2:    49    52
 fragment masses (1/2) :      540.35      533.57
CMA distance (Bohr)    :  15.103
constraining FC (au)   :  0.0500
########################################################################
[WARNING] Please study the warnings concerning your input carefully
-1- prog_main_parseArguments: Unknown option '--tight' provided
########################################################################
Wavefunction read from restart file
repulsion energy          1.6369179641628E+00 Eh
dispersion energy         1.1753499983671E-03 Eh
interaction energy        0.0000000000000E+00 Eh
number of electrons       3.6100000000000E+02 e
integral cutoff           1.9311100799991E+01 bohr

------------------------------------------------------------
  cycle        total energy    energy error   density error
------------------------------------------------------------
      1     -202.8783762168  -2.0451647E+02   1.7550666E-01
      2     -201.0944093635   1.7839669E+00   1.4284280E-01
      3     -195.7618321942   5.3325772E+00   1.3330147E-01
      4     -166.1771036975   2.9584728E+01   1.8286072E-01
      5     -191.8922533770  -2.5715150E+01   1.2276261E-01
      6     -203.6376926574  -1.1745439E+01   7.3195131E-02
      7     -204.4865010256  -8.4880837E-01   4.6229707E-02
      8     -204.4293143346   5.7186691E-02   4.1258715E-02
      9     -204.5755231933  -1.4620886E-01   3.8424280E-02
     10     -204.6051849396  -2.9661746E-02   3.4389078E-02
     11     -204.7328586890  -1.2767375E-01   3.2569587E-02
     12     -204.6118584643   1.2100022E-01   2.8163024E-02
     13     -204.7634198426  -1.5156138E-01   2.2971145E-02
     14     -204.6748169382   8.8602904E-02   2.6439704E-02
     15     -204.7778438847  -1.0302695E-01   2.1056907E-02
     16     -204.7937517110  -1.5907826E-02   2.0284798E-02
     17     -204.8235642336  -2.9812523E-02   1.6004988E-02
     18     -204.8602979392  -3.6733706E-02   1.4247134E-02
     19     -204.8846588773  -2.4360938E-02   9.4231312E-03
     20     -204.8909415670  -6.2826897E-03   8.0450678E-03
     21     -204.8926242193  -1.6826523E-03   7.4528657E-03
     22     -204.8785371447   1.4087075E-02   7.8749819E-03
     23     -204.8982208904  -1.9683746E-02   5.0816545E-03
     24     -204.8987782138  -5.5732343E-04   4.0264275E-03
     25     -204.9015403340  -2.7621202E-03   3.0696392E-03
     26     -204.9023271295  -7.8679548E-04   2.3111688E-03
     27     -204.9031133970  -7.8626750E-04   2.1261335E-03
     28     -204.9030110388   1.0235827E-04   1.8966940E-03
     29     -204.9036637045  -6.5266576E-04   1.6301987E-03
     30     -204.9023292718   1.3344328E-03   2.1700036E-03
     31     -204.9039211056  -1.5918339E-03   1.3071172E-03
     32     -204.9040617960  -1.4069033E-04   1.3240433E-03
     33     -204.9040821059  -2.0309953E-05   1.3104626E-03
     34     -204.9041386872  -5.6581289E-05   1.2725989E-03
     35     -204.9042035578  -6.4870544E-05   1.2055186E-03
     36     -204.9041848786   1.8679113E-05   1.1754303E-03
     37     -204.9040323259   1.5255270E-04   1.3015121E-03
     38     -204.9041881432  -1.5581729E-04   1.0477867E-03
     39     -204.9041271236   6.1019668E-05   1.2212564E-03
     40     -204.9041724355  -4.5311969E-05   1.1229765E-03
     41     -204.9042122788  -3.9843239E-05   1.0358428E-03
     42     -204.9042427747  -3.0495935E-05   9.6392399E-04
     43     -204.9042629329  -2.0158218E-05   9.0927724E-04
     44     -204.9041895296   7.3403316E-05   9.5847816E-04
     45     -204.9041720418   1.7487780E-05   9.7834790E-04
     46     -204.9042733914  -1.0134952E-04   7.6088086E-04
     47     -204.9043671117  -9.3720305E-05   5.3131166E-04
     48     -204.9043854905  -1.8378886E-05   4.6902867E-04
     49     -204.9044057524  -2.0261832E-05   3.7822607E-04
     50     -204.9044053147   4.3763947E-07   3.7964882E-04
     51     -204.9044061783  -8.6356908E-07   3.6584205E-04
     52     -204.9044183970  -1.2218736E-05   2.5898650E-04
     53     -204.9044229991  -4.6020358E-06   2.0528189E-04
     54     -204.9044258353  -2.8362697E-06   1.7941350E-04
     55     -204.9044291656  -3.3302132E-06   1.5043949E-04
     56     -204.9044282211   9.4448495E-07   1.4896194E-04
     57     -204.9044307039  -2.4828019E-06   1.2407599E-04
     58     -204.9044314552  -7.5135276E-07   1.1738292E-04
     59     -204.9044304081   1.0470981E-06   1.3213459E-04
     60     -204.9044306353  -2.2713945E-07   1.2760787E-04
     61     -204.9044305552   8.0042270E-08   1.2953986E-04
     62     -204.9044299376   6.1763666E-07   1.2962098E-04
     63     -204.9044281769   1.7607376E-06   1.3976060E-04
     64     -204.9044294875  -1.3106205E-06   1.2522983E-04
     65     -204.9044289951   4.9234887E-07   1.2399419E-04
     66     -204.9044305158  -1.5206622E-06   1.0610409E-04
     67     -204.9044314627  -9.4693311E-07   9.5301783E-05
     68     -204.9044317905  -3.2778732E-07   8.9710802E-05
     69     -204.9044318956  -1.0510436E-07   8.6115625E-05
     70     -204.9044321827  -2.8711332E-07   8.0574013E-05
     71     -204.9044321362   4.6508376E-08   7.7093462E-05
     72     -204.9044324897  -3.5349396E-07   6.5529404E-05
     73     -204.9044327688  -2.7910053E-07   5.6100238E-05
     74     -204.9044335224  -7.5358818E-07   2.8480080E-05
     75     -204.9044334247   9.7672569E-08   2.9694108E-05
     76     -204.9044337271  -3.0234850E-07   1.2316747E-05
------------------------------------------------------------

electronic energy        -2.0654252704124E+02 Eh
total energy             -2.0490443372707E+02 Eh

 total:                                   7.708 sec
 - repulsion                              0.000 sec (  0%)
 - dispersion                             0.013 sec (  0%)
 - coulomb                                0.004 sec (  0%)
 - hamiltonian                            0.019 sec (  0%)
 - scc                                    7.671 sec ( 99%)

      ----------------------------------------------------------- 
     |                   =====================                   |
     |                        A N C O P T                        |
     |                   =====================                   |
     |               Approximate Normal Coordinate               |
     |                Rational Function Optimizer                |
      ----------------------------------------------------------- 
      ----------------------------------------------------------- 
     |                   =====================                   |
     |                        A N C O P T                        |
     |                   =====================                   |
     |               Approximate Normal Coordinate               |
     |                Rational Function Optimizer                |
      ----------------------------------------------------------- 

          ...................................................
          :                      SETUP                      :
          :.................................................:
          :   optimization level            normal          :
          :   max. optcycles                   303          :
          :   ANC micro-cycles                  20          :
          :   degrees of freedom               297          :
          :.................................................:
          :   RF solver                   davidson          :
          :   write xtbopt.log                true          :
          :   linear?                        false          :
          :   energy convergence         0.5000000E-05 Eh   :
          :   grad. convergence          0.1000000E-02 Eh/α :
          :   maxmium RF displ.          1.0000000          :
          :   Hlow (freq-cutoff)         0.1000000E-01      :
          :   Hmax (freq-cutoff)         5.0000000          :
          :   S6 in model hess.         20.0000000          :
          ...................................................

generating ANC from exact Hessian ...
Using Lindh-Hessian (1995)
 Shifting diagonal of input Hessian by    1.0411913911083624E-002
 Lowest  eigenvalues of input Hessian
    0.010000    0.010369    0.000000    0.000000    0.000000    0.000000
    0.000000    0.000000    0.010434    0.010461    0.010523    0.010567
    0.010608    0.010657    0.010716    0.010790    0.010821    0.010869
 Highest eigenvalues
    3.661942    3.671357    3.671711    3.671719    3.682515    3.682863


........................................................................
.............................. CYCLE    1 ..............................
........................................................................
------------------------------------------------------------
  cycle        total energy    energy error   density error
------------------------------------------------------------
      1     -204.9043399802  -2.0654243E+02   4.8853619E-04
      2     -204.8703301104   3.4009870E-02   8.4927896E-03
      3     -204.9031105755  -3.2780465E-02   2.0929707E-03
      4     -204.9044138709  -1.3032955E-03   2.7454481E-04
      5     -204.9043611407   5.2730281E-05   4.3602949E-04
      6     -204.9043975546  -3.6413887E-05   3.6076542E-04
      7     -204.9044269091  -2.9354582E-05   1.4644876E-04
      8     -204.9044324076  -5.4984847E-06   6.2123109E-05
      9     -204.9044335538  -1.1461718E-06   3.1018465E-05
     10     -204.9044336120  -5.8170798E-08   2.4345575E-05
     11     -204.9044335760   3.5924160E-08   2.4733402E-05
     12     -204.9044334965   7.9575670E-08   2.7334923E-05
     13     -204.9044336925  -1.9604289E-07   1.7269539E-05
------------------------------------------------------------

 total:                                   1.293 sec
 * total energy  :  -204.9044337 Eh     change        0.3457177E-07 Eh
   gradient norm :     0.6609608 Eh/α   predicted     0.0000000E+00 (-100.00%)
   displ. norm   :     0.7846574 α      lambda       -0.4661077E+00
   maximum displ.:     0.1947932 α      in ANC's #142, #117, #144, ...

........................................................................
.............................. CYCLE    2 ..............................
........................................................................
------------------------------------------------------------
  cycle        total energy    energy error   density error
------------------------------------------------------------
      1     -205.1512686013  -2.0676520E+02   4.5804008E-02
      2     -204.5892186416   5.6204996E-01   5.9059248E-02
      3     -205.1008730250  -5.1165438E-01   3.1494180E-02
      4     -205.0796350101   2.1238015E-02   2.9922627E-02
      5     -205.1424703446  -6.2835335E-02   2.8003011E-02
      6     -205.2383287498  -9.5858405E-02   2.3143423E-02
      7     -205.2223470965   1.5981653E-02   2.6123316E-02
      8     -205.2961502433  -7.3803147E-02   1.9188554E-02
      9     -205.1118163981   1.8433385E-01   2.8390131E-02
     10     -205.2831370590  -1.7132066E-01   1.4073927E-02
     11     -205.3163162302  -3.3179171E-02   1.4565744E-02
     12     -205.3184068867  -2.0906565E-03   1.3347538E-02
     13     -205.3135064301   4.9004567E-03   1.3080906E-02
     14     -205.3382659533  -2.4759523E-02   6.3937008E-03
     15     -205.3523463727  -1.4080419E-02   3.1725560E-03
     16     -205.3526403488  -2.9397615E-04   3.0010129E-03
     17     -205.3466301797   6.0101691E-03   5.7150681E-03
     18     -205.3500453172  -3.4151374E-03   4.0787308E-03
     19     -205.3517786738  -1.7333566E-03   2.5766585E-03
     20     -205.3540268105  -2.2481367E-03   1.5483391E-03
     21     -205.3540672843  -4.0473804E-05   1.5129667E-03
     22     -205.3538522203   2.1506399E-04   1.4944608E-03
     23     -205.3542836087  -4.3138841E-04   9.9029255E-04
     24     -205.3538496260   4.3398278E-04   1.5616810E-03
     25     -205.3543671638  -5.1753781E-04   5.4898296E-04
     26     -205.3543549492   1.2214533E-05   6.3919958E-04
     27     -205.3543104392   4.4510079E-05   7.5070914E-04
     28     -205.3542549040   5.5535135E-05   8.8095951E-04
     29     -205.3543159339  -6.1029895E-05   6.7457404E-04
     30     -205.3543170990  -1.1650632E-06   6.6905379E-04
     31     -205.3542882050   2.8894019E-05   7.1474544E-04
     32     -205.3542501692   3.8035804E-05   7.9624112E-04
     33     -205.3542309795   1.9189609E-05   7.7416378E-04
     34     -205.3542557440  -2.4764460E-05   7.3401001E-04
     35     -205.3542701460  -1.4401971E-05   7.1432584E-04
     36     -205.3542225399   4.7606107E-05   8.0886703E-04
     37     -205.3543928036  -1.7026370E-04   3.5004648E-04
     38     -205.3543912866   1.5169585E-06   3.5650604E-04
     39     -205.3543796515   1.1635114E-05   4.2654684E-04
     40     -205.3543869162  -7.2647143E-06   3.7529011E-04
     41     -205.3543952942  -8.3779506E-06   3.3265257E-04
     42     -205.3543971407  -1.8465607E-06   3.2111390E-04
     43     -205.3543913496   5.7910980E-06   3.2989611E-04
     44     -205.3543829032   8.4463807E-06   3.3647833E-04
     45     -205.3543811402   1.7630047E-06   3.4359762E-04
     46     -205.3543800020   1.1382354E-06   3.3347558E-04
     47     -205.3544133936  -3.3391617E-05   1.5717781E-04
     48     -205.3544133943  -7.2887474E-10   1.5434196E-04
     49     -205.3544149175  -1.5231750E-06   1.4288247E-04
     50     -205.3544149069   1.0575036E-08   1.4236057E-04
     51     -205.3544153163  -4.0937550E-07   1.3681208E-04
     52     -205.3544150940   2.2228218E-07   1.4058911E-04
     53     -205.3544150938   2.9049829E-10   1.4045939E-04
     54     -205.3544149761   1.1762765E-07   1.3818982E-04
     55     -205.3544153782  -4.0206388E-07   1.2888972E-04
     56     -205.3544160989  -7.2074477E-07   9.6470268E-05
     57     -205.3544167192  -6.2031285E-07   3.5341445E-05
     58     -205.3544166545   6.4760485E-08   3.0648847E-05
     59     -205.3544165896   6.4920698E-08   3.0212584E-05
     60     -205.3544165055   8.4056921E-08   3.9624514E-05
     61     -205.3544166418  -1.3633209E-07   2.5692160E-05
     62     -205.3544166937  -5.1885678E-08   1.4155479E-05
------------------------------------------------------------

 total:                                   6.160 sec
 * total energy  :  -205.3544167 Eh     change       -0.4499830E+00 Eh
   gradient norm :     0.6046028 Eh/α   predicted    -0.3765577E+00 ( -16.32%)
   displ. norm   :     0.9737695 α      lambda       -0.5809510E+00
   maximum displ.:     0.2638515 α      in ANC's #180, #142, #183, ...

........................................................................
.............................. CYCLE    3 ..............................
........................................................................
------------------------------------------------------------
  cycle        total energy    energy error   density error
------------------------------------------------------------
      1     -205.6817569844  -2.0727499E+02   3.8810636E-02
      2     -205.1859500615   4.9580692E-01   5.6997176E-02
      3     -205.6197724464  -4.3382238E-01   3.9924933E-02
      4     -205.6523261222  -3.2553676E-02   2.8223843E-02
      5     -205.4962529082   1.5607321E-01   2.9922579E-02
      6     -205.6755431415  -1.7929023E-01   2.5340237E-02
      7     -205.8577929673  -1.8224983E-01   1.3709711E-02
      8     -205.7146613256   1.4313164E-01   2.2652970E-02
      9     -205.8017389256  -8.7077600E-02   2.2232931E-02
     10     -205.8444858579  -4.2746932E-02   1.4160981E-02
     11     -205.8604162263  -1.5930368E-02   1.1153228E-02
     12     -205.8740772797  -1.3661053E-02   7.5601990E-03
     13     -205.8819469976  -7.8697178E-03   6.3439916E-03
     14     -205.8823267682  -3.7977062E-04   4.7125751E-03
     15     -205.8861714808  -3.8447126E-03   4.7965361E-03
     16     -205.8887201850  -2.5487041E-03   3.1626763E-03
     17     -205.8883652151   3.5496986E-04   3.3794812E-03
     18     -205.8878364486   5.2876654E-04   3.5034400E-03
     19     -205.8892666168  -1.4301682E-03   1.8687481E-03
     20     -205.8898454515  -5.7883471E-04   1.5996111E-03
     21     -205.8898937884  -4.8336911E-05   1.2573940E-03
     22     -205.8897017108   1.9207762E-04   1.5697863E-03
     23     -205.8896435229   5.8187958E-05   1.4744380E-03
     24     -205.8894295038   2.1401902E-04   1.6864339E-03
     25     -205.8893049874   1.2451643E-04   1.6822056E-03
     26     -205.8897722121  -4.6722474E-04   1.2556950E-03
     27     -205.8898036507  -3.1438576E-05   1.1980039E-03
     28     -205.8897181373   8.5513401E-05   1.3396360E-03
     29     -205.8897721742  -5.4036854E-05   1.2633823E-03
     30     -205.8896372099   1.3496427E-04   1.4536134E-03
     31     -205.8894255080   2.1170191E-04   1.7108532E-03
     32     -205.8897148467  -2.8933866E-04   1.2686132E-03
     33     -205.8898347960  -1.1994930E-04   1.1753114E-03
     34     -205.8898853864  -5.0590424E-05   1.1037067E-03
     35     -205.8899878732  -1.0248679E-04   9.1766793E-04
     36     -205.8901085858  -1.2071268E-04   6.1862060E-04
     37     -205.8901483440  -3.9758135E-05   4.7607156E-04
     38     -205.8901700878  -2.1743786E-05   3.6988335E-04
     39     -205.8901948108  -2.4723082E-05   1.8986893E-04
     40     -205.8902009871  -6.1762270E-06   1.3594646E-04
     41     -205.8902018287  -8.4160365E-07   1.2180124E-04
     42     -205.8901978260   4.0026918E-06   1.6671493E-04
     43     -205.8901999256  -2.0996417E-06   1.4296404E-04
     44     -205.8902008309  -9.0522909E-07   1.3460607E-04
     45     -205.8902025116  -1.6807930E-06   1.0895166E-04
     46     -205.8902040668  -1.5551958E-06   8.1617125E-05
     47     -205.8902051081  -1.0412751E-06   5.3111652E-05
     48     -205.8902053089  -2.0074430E-07   4.4731073E-05
     49     -205.8902056966  -3.8778180E-07   2.2773438E-05
     50     -205.8902058205  -1.2381014E-07   1.2120002E-05
------------------------------------------------------------

 total:                                   4.535 sec
 * total energy  :  -205.8902058 Eh     change       -0.5357891E+00 Eh
   gradient norm :     0.5198374 Eh/α   predicted    -0.5659125E+00 (   5.62%)
   displ. norm   :     0.9093744 α      lambda       -0.4504603E+00
   maximum displ.:     0.2368896 α      in ANC's #180, #142, #183, ...

........................................................................
.............................. CYCLE    4 ..............................
........................................................................
------------------------------------------------------------
  cycle        total energy    energy error   density error
------------------------------------------------------------
      1     -206.2087659271  -2.0785224E+02   1.7799864E-02
      2     -205.7975497298   4.1121620E-01   4.5095302E-02
      3     -206.2441142809  -4.4656455E-01   1.2887903E-02
      4     -206.1405186905   1.0359559E-01   1.6127251E-02
      5     -205.9700965595   1.7042213E-01   2.3047304E-02
      6     -206.2428814916  -2.7278493E-01   1.1260974E-02
      7     -206.0973116611   1.4556983E-01   2.4829976E-02
      8     -206.2572971234  -1.5998546E-01   7.6173240E-03
      9     -206.2201143986   3.7182725E-02   1.2348273E-02
     10     -206.2657836755  -4.5669277E-02   5.5716254E-03
     11     -206.2668344663  -1.0507908E-03   4.2699314E-03
     12     -206.2691498481  -2.3153818E-03   3.6196970E-03
     13     -206.2691786866  -2.8838492E-05   3.0968822E-03
     14     -206.2702422868  -1.0636002E-03   2.3281378E-03
     15     -206.2709022685  -6.5998173E-04   1.7073445E-03
     16     -206.2711306501  -2.2838160E-04   1.3444072E-03
     17     -206.2712460020  -1.1535188E-04   1.1196444E-03
     18     -206.2712165339   2.9468126E-05   1.1336158E-03
     19     -206.2713057118  -8.9177949E-05   9.5228300E-04
     20     -206.2714054349  -9.9723082E-05   7.1737280E-04
     21     -206.2714831411  -7.7706206E-05   3.9565274E-04
     22     -206.2714887157  -5.5746153E-06   3.2488141E-04
     23     -206.2714952997  -6.5839965E-06   2.6601040E-04
     24     -206.2714918481   3.4515939E-06   2.5789612E-04
     25     -206.2714974666  -5.6184280E-06   1.9052978E-04
     26     -206.2714967340   7.3260358E-07   1.7941192E-04
     27     -206.2715023581  -5.6241850E-06   1.2008199E-04
     28     -206.2715052307  -2.8725534E-06   4.7610389E-05
     29     -206.2715046467   5.8401528E-07   5.6284810E-05
     30     -206.2715049336  -2.8693617E-07   4.3245327E-05
     31     -206.2715051593  -2.2571996E-07   3.0313416E-05
     32     -206.2715053698  -2.1044173E-07   1.9363866E-05
------------------------------------------------------------

 total:                                   2.815 sec
 * total energy  :  -206.2715054 Eh     change       -0.3812995E+00 Eh
   gradient norm :     0.4133404 Eh/α   predicted    -0.4114868E+00 (   7.92%)
   displ. norm   :     0.8563434 α      lambda       -0.3021607E+00
   maximum displ.:     0.2354726 α      in ANC's #142, #117, #131, ...

........................................................................
.............................. CYCLE    5 ..............................
........................................................................
------------------------------------------------------------
  cycle        total energy    energy error   density error
------------------------------------------------------------
      1     -206.5182936760  -2.0825409E+02   1.1352261E-02
      2     -206.3340914668   1.8420221E-01   2.4983975E-02
      3     -206.4327302141  -9.8638747E-02   1.3862736E-02
      4     -206.2054347112   2.2729550E-01   2.4253481E-02
      5     -206.4621218172  -2.5668711E-01   1.1776973E-02
      6     -206.4514860317   1.0635786E-02   1.3912905E-02
      7     -206.5083273089  -5.6841277E-02   9.0822919E-03
      8     -206.5261919268  -1.7864618E-02   4.6060482E-03
      9     -206.5286816939  -2.4897672E-03   3.2558822E-03
     10     -206.5297190656  -1.0373717E-03   2.3262831E-03
     11     -206.5310877693  -1.3687036E-03   1.8444494E-03
     12     -206.5312380152  -1.5024590E-04   1.5531545E-03
     13     -206.5311642413   7.3773875E-05   1.3625769E-03
     14     -206.5314451736  -2.8093234E-04   8.9049972E-04
     15     -206.5314828584  -3.7684740E-05   7.0553367E-04
     16     -206.5314980001  -1.5141727E-05   5.9906897E-04
     17     -206.5315048103  -6.8102365E-06   5.3720141E-04
     18     -206.5315091092  -4.2988191E-06   4.8911857E-04
     19     -206.5315105954  -1.4862418E-06   4.6783694E-04
     20     -206.5315123814  -1.7859656E-06   4.3731318E-04
     21     -206.5315129566  -5.7528530E-07   4.1666425E-04
     22     -206.5315209528  -7.9961721E-06   3.2321358E-04
     23     -206.5315222868  -1.3339697E-06   2.3287736E-04
     24     -206.5315295038  -7.2169728E-06   1.2502155E-04
     25     -206.5315303321  -8.2831042E-07   8.8045877E-05
     26     -206.5315307120  -3.7987957E-07   5.2737972E-05
     27     -206.5315309827  -2.7074105E-07   3.6018403E-05
     28     -206.5315307898   1.9288430E-07   3.1550524E-05
     29     -206.5315312079  -4.1809244E-07   1.2957462E-05
------------------------------------------------------------

 total:                                   2.571 sec
 * total energy  :  -206.5315312 Eh     change       -0.2600258E+00 Eh
   gradient norm :     0.3294853 Eh/α   predicted    -0.2618727E+00 (   0.71%)
   displ. norm   :     0.8233456 α      lambda       -0.2162092E+00
   maximum displ.:     0.2122105 α      in ANC's #142, #117, #92, ...

........................................................................
.............................. CYCLE    6 ..............................
........................................................................
------------------------------------------------------------
  cycle        total energy    energy error   density error
------------------------------------------------------------
      1     -206.7039725927  -2.0856472E+02   9.4539113E-03
      2     -206.5175369383   1.8643565E-01   1.8573485E-02
      3     -206.4280780134   8.9458925E-02   2.1399621E-02
      4     -206.7043199135  -2.7624190E-01   6.1717738E-03
      5     -206.7062283603  -1.9084468E-03   3.7136119E-03
      6     -206.7041642559   2.0641045E-03   4.0095513E-03
      7     -206.7076618746  -3.4976188E-03   2.5676904E-03
      8     -206.7083020409  -6.4016626E-04   1.9650875E-03
      9     -206.7086301746  -3.2813373E-04   1.6744959E-03
     10     -206.7088838917  -2.5371706E-04   1.2320450E-03
     11     -206.7089486038  -6.4712097E-05   9.8676124E-04
     12     -206.7089809566  -3.2352779E-05   8.6601099E-04
     13     -206.7090154894  -3.4532811E-05   6.9921298E-04
     14     -206.7090398544  -2.4365047E-05   4.5149883E-04
     15     -206.7090572452  -1.7390748E-05   3.1316315E-04
     16     -206.7090630502  -5.8050749E-06   1.9055291E-04
     17     -206.7090639194  -8.6918121E-07   1.3547292E-04
     18     -206.7090668274  -2.9079921E-06   8.7735620E-05
     19     -206.7090667366   9.0827456E-08   8.7364185E-05
     20     -206.7090668696  -1.3301974E-07   8.2342294E-05
     21     -206.7090671032  -2.3360016E-07   7.1551072E-05
     22     -206.7090669788   1.2439997E-07   7.0085079E-05
     23     -206.7090670819  -1.0305823E-07   6.4068672E-05
     24     -206.7090671689  -8.7015991E-08   5.1796491E-05
     25     -206.7090674083  -2.3942260E-07   3.4777624E-05
     26     -206.7090675629  -1.5462888E-07   1.4200080E-05
------------------------------------------------------------

 total:                                   2.356 sec
 * total energy  :  -206.7090676 Eh     change       -0.1775364E+00 Eh
   gradient norm :     0.2377012 Eh/α   predicted    -0.1813886E+00 (   2.17%)
   displ. norm   :     0.7849232 α      lambda       -0.1418413E+00
   maximum displ.:     0.2031080 α      in ANC's #142, #144, #64, ...

........................................................................
.............................. CYCLE    7 ..............................
........................................................................
------------------------------------------------------------
  cycle        total energy    energy error   density error
------------------------------------------------------------
      1     -206.8152723611  -2.0881395E+02   9.1876175E-03
      2     -206.7135361048   1.0173626E-01   1.3552547E-02
      3     -206.4407969955   2.7273911E-01   2.5259822E-02
      4     -206.7704005307  -3.2960354E-01   1.1408880E-02
      5     -206.8078847994  -3.7484269E-02   5.3420838E-03
      6     -206.8154987013  -7.6139018E-03   3.3111750E-03
      7     -206.8153379131   1.6078813E-04   3.2541678E-03
      8     -206.8182119318  -2.8740187E-03   1.8466655E-03
      9     -206.8175045247   7.0740709E-04   1.8449354E-03
     10     -206.8181616121  -6.5708733E-04   1.0450638E-03
     11     -206.8183950527  -2.3344068E-04   7.1958250E-04
     12     -206.8184297876  -3.4734878E-05   6.5007772E-04
     13     -206.8183637328   6.6054834E-05   5.8540938E-04
     14     -206.8184365562  -7.2823384E-05   3.4588794E-04
     15     -206.8184466770  -1.0120861E-05   3.6481143E-04
     16     -206.8184470614  -3.8438057E-07   3.4350281E-04
     17     -206.8184542595  -7.1980450E-06   2.5916199E-04
     18     -206.8184586166  -4.3571383E-06   1.8696026E-04
     19     -206.8184572653   1.3512887E-06   1.8973318E-04
     20     -206.8184573760  -1.1067218E-07   1.7271745E-04
     21     -206.8184590703  -1.6943134E-06   1.2471261E-04
     22     -206.8184604236  -1.3532899E-06   7.0216360E-05
     23     -206.8184606690  -2.4539193E-07   3.5542094E-05
     24     -206.8184607321  -6.3112509E-08   2.1599137E-05
     25     -206.8184608094  -7.7339166E-08   4.8834746E-06
------------------------------------------------------------

 total:                                   2.253 sec
 * total energy  :  -206.8184608 Eh     change       -0.1093932E+00 Eh
   gradient norm :     0.1563168 Eh/α   predicted    -0.1146152E+00 (   4.77%)
   displ. norm   :     0.7823826 α      lambda       -0.8929691E-01
   maximum displ.:     0.1805325 α      in ANC's #64, #92, #28, ...

........................................................................
.............................. CYCLE    8 ..............................
........................................................................
------------------------------------------------------------
  cycle        total energy    energy error   density error
------------------------------------------------------------
      1     -206.8733638579  -2.0900714E+02   7.1498981E-03
      2     -206.8112428851   6.2120973E-02   1.0663473E-02
      3     -206.5137580303   2.9748485E-01   2.4635075E-02
      4     -206.8291836725  -3.1542564E-01   1.0757322E-02
      5     -206.8411036659  -1.1919993E-02   8.3232249E-03
      6     -206.8705558648  -2.9452199E-02   3.4082141E-03
      7     -206.8727990213  -2.2431564E-03   2.8813537E-03
      8     -206.8737128033  -9.1378202E-04   2.4548579E-03
      9     -206.8737422575  -2.9454231E-05   2.3165638E-03
     10     -206.8744657064  -7.2344891E-04   1.4448499E-03
     11     -206.8748960741  -4.3036764E-04   7.3308995E-04
     12     -206.8750014562  -1.0538213E-04   5.7204587E-04
     13     -206.8749917377   9.7185167E-06   5.1269992E-04
     14     -206.8750153200  -2.3582341E-05   4.0914742E-04
     15     -206.8750351372  -1.9817224E-05   4.1619508E-04
     16     -206.8750357131  -5.7587008E-07   3.6872483E-04
     17     -206.8750363042  -5.9108953E-07   2.8227039E-04
     18     -206.8750400248  -3.7206250E-06   2.7498571E-04
     19     -206.8750401970  -1.7219517E-07   2.6737683E-04
     20     -206.8750414376  -1.2405379E-06   2.0543323E-04
     21     -206.8750426126  -1.1750724E-06   1.2516955E-04
     22     -206.8750431414  -5.2873926E-07   5.8638053E-05
     23     -206.8750433375  -1.9607748E-07   1.0154751E-05
------------------------------------------------------------

 total:                                   2.064 sec
 * total energy  :  -206.8750433 Eh     change       -0.5658253E-01 Eh
   gradient norm :     0.1468135 Eh/α   predicted    -0.7197881E-01 (  27.21%)
   displ. norm   :     0.7430510 α      lambda       -0.7074030E-01
   maximum displ.:     0.2100222 α      in ANC's #64, #73, #78, ...

........................................................................
.............................. CYCLE    9 ..............................
........................................................................
------------------------------------------------------------
  cycle        total energy    energy error   density error
------------------------------------------------------------
      1     -206.9128442105  -2.0910346E+02   7.1021376E-03
      2     -206.9079735359   4.8706746E-03   5.3242599E-03
      3     -206.8296138160   7.8359720E-02   1.3182026E-02
      4     -206.6837710063   1.4584281E-01   1.9746847E-02
      5     -206.9064886269  -2.2271762E-01   4.7178067E-03
      6     -206.9134089133  -6.9202864E-03   1.0540846E-03
      7     -206.9134827150  -7.3801790E-05   7.4651152E-04
      8     -206.9133759606   1.0675440E-04   8.1809104E-04
      9     -206.9134168321  -4.0871415E-05   7.2169728E-04
     10     -206.9133880896   2.8742457E-05   6.1722645E-04
     11     -206.9135760599  -1.8797030E-04   2.7630205E-04
     12     -206.9135778064  -1.7464709E-06   2.7016004E-04
     13     -206.9135815627  -3.7563409E-06   1.9542682E-04
     14     -206.9135835750  -2.0122926E-06   1.2722177E-04
     15     -206.9135825223   1.0526997E-06   1.2212601E-04
     16     -206.9135837341  -1.2117605E-06   8.9612679E-05
     17     -206.9135842878  -5.5374986E-07   5.2034967E-05
     18     -206.9135834156   8.7226957E-07   6.5377195E-05
     19     -206.9135839200  -5.0446855E-07   4.0018697E-05
     20     -206.9135843610  -4.4101904E-07   1.4362977E-05
------------------------------------------------------------

 total:                                   1.820 sec
 * total energy  :  -206.9135844 Eh     change       -0.3854102E-01 Eh
   gradient norm :     0.0917365 Eh/α   predicted    -0.5489895E-01 (  42.44%)
   displ. norm   :     0.7262027 α      lambda       -0.3812328E-01
   maximum displ.:     0.1822943 α      in ANC's #73, #64, #28, ...

........................................................................
.............................. CYCLE   10 ..............................
........................................................................
------------------------------------------------------------
  cycle        total energy    energy error   density error
------------------------------------------------------------
      1     -206.9346000132  -2.0915383E+02   7.1500291E-03
      2     -206.6808277821   2.5377223E-01   2.0537913E-02
      3     -206.8799320420  -1.9910426E-01   1.0820390E-02
      4     -206.9294800577  -4.9548016E-02   6.0798218E-03
      5     -206.9369186794  -7.4386217E-03   2.4127721E-03
      6     -206.9346334908   2.2851886E-03   3.0165781E-03
      7     -206.9346982152  -6.4724460E-05   2.3736568E-03
      8     -206.9344987309   1.9948436E-04   2.3489406E-03
      9     -206.9356180454  -1.1193146E-03   1.8369137E-03
     10     -206.9374129756  -1.7949302E-03   1.1081646E-03
     11     -206.9374938042  -8.0828557E-05   1.5104590E-03
     12     -206.9374626016   3.1202599E-05   1.4897633E-03
     13     -206.9375245158  -6.1914244E-05   1.1927627E-03
     14     -206.9375651992  -4.0683377E-05   9.3947809E-04
     15     -206.9375611726   4.0265757E-06   8.9948330E-04
     16     -206.9375694173  -8.2447035E-06   7.6381336E-04
     17     -206.9375965361  -2.7118816E-05   3.9081128E-04
     18     -206.9375951184   1.4177025E-06   2.9527919E-04
     19     -206.9376024297  -7.3112698E-06   1.0256539E-04
     20     -206.9376050642  -2.6345073E-06   1.1972914E-05
     21     -206.9376050703  -6.0811942E-09   2.3734114E-05
     22     -206.9376050365   3.3809243E-08   1.5120004E-05
------------------------------------------------------------

 total:                                   2.180 sec
 * total energy  :  -206.9376050 Eh     change       -0.2402068E-01 Eh
   gradient norm :     0.1024201 Eh/α   predicted    -0.2911420E-01 (  21.20%)
   displ. norm   :     0.7349422 α      lambda       -0.3932774E-01
   maximum displ.:     0.2254676 α      in ANC's #64, #73, #14, ...

........................................................................
.............................. CYCLE   11 ..............................
........................................................................
------------------------------------------------------------
  cycle        total energy    energy error   density error
------------------------------------------------------------
      1     -206.9597713567  -2.0921062E+02   6.5721695E-03
      2     -206.9356414474   2.4129909E-02   8.1722080E-03
      3     -206.7055640385   2.3007741E-01   2.0336155E-02
      4     -206.9578105920  -2.5224655E-01   3.9326937E-03
      5     -206.9551969619   2.6136300E-03   3.9599654E-03
      6     -206.9579763542  -2.7793923E-03   2.5641428E-03
      7     -206.9594699379  -1.4935837E-03   1.5716041E-03
      8     -206.9602235952  -7.5365726E-04   1.1256808E-03
      9     -206.9607037201  -4.8012491E-04   8.8435129E-04
     10     -206.9608297447  -1.2602466E-04   1.0305996E-03
     11     -206.9608288240   9.2077056E-07   1.0332742E-03
     12     -206.9608334212  -4.5972561E-06   9.3972661E-04
     13     -206.9608568596  -2.3438420E-05   5.5094520E-04
     14     -206.9608492871   7.5725293E-06   3.3714512E-04
     15     -206.9608615213  -1.2234218E-05   4.3160290E-04
     16     -206.9608643777  -2.8563129E-06   3.2651032E-04
     17     -206.9608682614  -3.8837458E-06   1.6573411E-04
     18     -206.9608679796   2.8176279E-07   1.1992337E-04
     19     -206.9608687148  -7.3513934E-07   4.5897762E-05
     20     -206.9608694141  -6.9928581E-07   1.7545827E-05
------------------------------------------------------------

 total:                                   1.822 sec
 * total energy  :  -206.9608694 Eh     change       -0.2326438E-01 Eh
   gradient norm :     0.0876622 Eh/α   predicted    -0.3028513E-01 (  30.18%)
   displ. norm   :     0.6628898 α      lambda       -0.2627002E-01
   maximum displ.:     0.1626242 α      in ANC's #14, #73, #33, ...

........................................................................
.............................. CYCLE   12 ..............................
........................................................................
------------------------------------------------------------
  cycle        total energy    energy error   density error
------------------------------------------------------------
      1     -206.9766912263  -2.0925384E+02   5.3427673E-03
      2     -206.9766816107   9.6155561E-06   3.1515726E-03
      3     -206.9388632830   3.7818328E-02   9.2684959E-03
      4     -206.9511790953  -1.2315812E-02   7.5998978E-03
      5     -206.9765891495  -2.5410054E-02   1.1208667E-03
      6     -206.9767750897  -1.8594018E-04   8.3028504E-04
      7     -206.9770303179  -2.5522823E-04   2.9835430E-04
      8     -206.9769080392   1.2227870E-04   6.3865813E-04
      9     -206.9767275864   1.8045277E-04   9.1303788E-04
     10     -206.9766980117   2.9574725E-05   9.1703180E-04
     11     -206.9770251502  -3.2713847E-04   1.8009218E-04
     12     -206.9770352947  -1.0144538E-05   2.1997853E-04
     13     -206.9770355042  -2.0947058E-07   2.0542673E-04
     14     -206.9770421444  -6.6402406E-06   1.0587233E-04
     15     -206.9770450440  -2.8995910E-06   2.2702934E-05
     16     -206.9770451020  -5.8015956E-08   1.3651734E-05
------------------------------------------------------------

 total:                                   1.467 sec
 * total energy  :  -206.9770451 Eh     change       -0.1617569E-01 Eh
   gradient norm :     0.0777276 Eh/α   predicted    -0.1890684E-01 (  16.88%)
   displ. norm   :     0.7042650 α      lambda       -0.2546387E-01
   maximum displ.:     0.1957684 α      in ANC's #33, #1, #14, ...

........................................................................
.............................. CYCLE   13 ..............................
........................................................................
------------------------------------------------------------
  cycle        total energy    energy error   density error
------------------------------------------------------------
      1     -206.9839988915  -2.0926557E+02   6.9630323E-03
      2     -206.6586340415   3.2536485E-01   2.3387730E-02
      3     -206.9724843318  -3.1385029E-01   6.8327503E-03
      4     -206.9758918582  -3.4075264E-03   7.2041091E-03
      5     -206.9797178574  -3.8259992E-03   4.4066128E-03
      6     -206.9883680799  -8.6502225E-03   1.9349314E-03
      7     -206.9884245173  -5.6437359E-05   1.7500971E-03
      8     -206.9885713775  -1.4686019E-04   1.9052404E-03
      9     -206.9885598574   1.1520082E-05   1.7085860E-03
     10     -206.9885950483  -3.5190880E-05   1.5498146E-03
     11     -206.9885878297   7.2186162E-06   1.5233728E-03
     12     -206.9885637652   2.4064457E-05   1.4805690E-03
     13     -206.9886041417  -4.0376510E-05   1.2785078E-03
     14     -206.9887030676  -9.8925849E-05   7.7786918E-04
     15     -206.9887244357  -2.1368134E-05   3.6330100E-04
     16     -206.9887304213  -5.9856505E-06   1.5359978E-04
     17     -206.9887337917  -3.3703631E-06   2.4579991E-05
     18     -206.9887333217   4.7002291E-07   6.8772020E-05
     19     -206.9887339610  -6.3926481E-07   1.1217908E-05
------------------------------------------------------------

 total:                                   1.912 sec
 * total energy  :  -206.9887340 Eh     change       -0.1168886E-01 Eh
   gradient norm :     0.0828503 Eh/α   predicted    -0.1904686E-01 (  62.95%)
   displ. norm   :     0.6855695 α      lambda       -0.2699177E-01
   maximum displ.:     0.1847011 α      in ANC's #1, #14, #23, ...

........................................................................
.............................. CYCLE   14 ..............................
........................................................................
------------------------------------------------------------
  cycle        total energy    energy error   density error
------------------------------------------------------------
      1     -206.9990326599  -2.0928513E+02   7.0686718E-03
      2     -206.9776076960   2.1424964E-02   7.9742342E-03
      3     -206.6938957028   2.8371199E-01   2.2860943E-02
      4     -206.9873463991  -2.9345070E-01   6.9915031E-03
      5     -207.0001648873  -1.2818488E-02   1.8429539E-03
      6     -206.9946112139   5.5536734E-03   3.4755834E-03
      7     -206.9985533290  -3.9421151E-03   1.8978743E-03
      8     -206.9997192499  -1.1659210E-03   1.1062498E-03
      9     -207.0002822841  -5.6303416E-04   6.3788010E-04
     10     -207.0003783568  -9.6072717E-05   7.1594563E-04
     11     -207.0003586106   1.9746224E-05   8.6570116E-04
     12     -207.0003569881   1.6225245E-06   8.2526939E-04
     13     -207.0003749181  -1.7930054E-05   6.7281494E-04
     14     -207.0003807378  -5.8197039E-06   5.8898124E-04
     15     -207.0003855052  -4.7674037E-06   4.9244774E-04
     16     -207.0003942414  -8.7361394E-06   2.6982250E-04
     17     -207.0003990915  -4.8501162E-06   1.0580566E-04
     18     -207.0003986926   3.9886814E-07   8.3006221E-05
     19     -207.0003997690  -1.0764198E-06   2.5938207E-05
     20     -207.0003998500  -8.0983398E-08   1.5726731E-05
------------------------------------------------------------

 total:                                   2.096 sec
 * total energy  :  -207.0003999 Eh     change       -0.1166589E-01 Eh
   gradient norm :     0.0976881 Eh/α   predicted    -0.1983902E-01 (  70.06%)
   displ. norm   :     0.5761750 α      lambda       -0.2168931E-01
   maximum displ.:     0.1470159 α      in ANC's #14, #66, #29, ...

........................................................................
.............................. CYCLE   15 ..............................
........................................................................
------------------------------------------------------------
  cycle        total energy    energy error   density error
------------------------------------------------------------
      1     -207.0106133632  -2.0928712E+02   5.6431905E-03
      2     -207.0105264941   8.6869173E-05   3.6543072E-03
      3     -206.9432995566   6.7226938E-02   1.1273703E-02
      4     -206.9909453203  -4.7645764E-02   7.3073063E-03
      5     -206.9900144491   9.3087122E-04   7.0879344E-03
      6     -206.9960655439  -6.0510948E-03   5.6962955E-03
      7     -207.0100720283  -1.4006484E-02   1.5280753E-03
      8     -207.0114114856  -1.3394573E-03   1.3417969E-03
      9     -207.0113799642   3.1521408E-05   1.3119962E-03
     10     -207.0114060389  -2.6074671E-05   1.0114608E-03
     11     -207.0114464813  -4.0442423E-05   2.2308906E-04
     12     -207.0114454745   1.0068060E-06   1.5988715E-04
     13     -207.0114577381  -1.2263588E-05   7.8930497E-05
     14     -207.0114578591  -1.2104417E-07   7.2584559E-05
     15     -207.0114582226  -3.6344989E-07   4.9448732E-05
     16     -207.0114582167   5.8838907E-09   3.6817602E-05
     17     -207.0114581824   3.4266748E-08   2.8836073E-05
     18     -207.0114582949  -1.1243060E-07   1.1641433E-05
------------------------------------------------------------

 total:                                   1.810 sec
 * total energy  :  -207.0114583 Eh     change       -0.1105844E-01 Eh
   gradient norm :     0.0743433 Eh/α   predicted    -0.1444485E-01 (  30.62%)
   displ. norm   :     0.6413215 α      lambda       -0.1596619E-01
   maximum displ.:     0.2225393 α      in ANC's #14, #33, #18, ...

........................................................................
.............................. CYCLE   16 ..............................
........................................................................
------------------------------------------------------------
  cycle        total energy    energy error   density error
------------------------------------------------------------
      1     -207.0165958849  -2.0929163E+02   5.2878554E-03
      2     -206.9790160430   3.7579842E-02   1.0043526E-02
      3     -206.9756509117   3.3651313E-03   1.0338795E-02
      4     -207.0166136721  -4.0962760E-02   2.2867432E-03
      5     -207.0155941349   1.0195372E-03   2.5121454E-03
      6     -207.0172908820  -1.6967470E-03   1.3345605E-03
      7     -207.0177178668  -4.2698483E-04   7.4732980E-04
      8     -207.0179166432  -1.9877646E-04   1.9452444E-04
      9     -207.0178706694   4.5973796E-05   4.0712139E-04
     10     -207.0178490647   2.1604709E-05   4.6353978E-04
     11     -207.0178788483  -2.9783590E-05   3.4142109E-04
     12     -207.0179212418  -4.2393492E-05   1.1544730E-04
     13     -207.0179208953   3.4650657E-07   1.0597615E-04
     14     -207.0179232551  -2.3597898E-06   4.8687418E-05
     15     -207.0179237920  -5.3692733E-07   2.2948883E-05
     16     -207.0179238904  -9.8386096E-08   9.6347606E-06
------------------------------------------------------------

 total:                                   1.533 sec
 * total energy  :  -207.0179239 Eh     change       -0.6465596E-02 Eh
   gradient norm :     0.0650628 Eh/α   predicted    -0.1126649E-01 (  74.25%)
   displ. norm   :     0.6067074 α      lambda       -0.1576414E-01
   maximum displ.:     0.1826440 α      in ANC's #14, #31, #23, ...

........................................................................
.............................. CYCLE   17 ..............................
........................................................................
------------------------------------------------------------
  cycle        total energy    energy error   density error
------------------------------------------------------------
      1     -207.0233622667  -2.0931970E+02   5.0385936E-03
      2     -207.0224297853   9.3248138E-04   3.3533357E-03
      3     -206.9608721133   6.1557672E-02   1.1029890E-02
      4     -207.0064306765  -4.5558563E-02   6.5314239E-03
      5     -207.0184155107  -1.1984834E-02   3.4886179E-03
      6     -207.0224848343  -4.0693236E-03   1.5485747E-03
      7     -207.0234627062  -9.7787189E-04   1.3756845E-03
      8     -207.0231763252   2.8638099E-04   1.6907632E-03
      9     -207.0231661458   1.0179449E-05   1.6855761E-03
     10     -207.0235070377  -3.4089191E-04   1.0177724E-03
     11     -207.0236679639  -1.6092622E-04   4.6706568E-04
     12     -207.0237007567  -3.2792824E-05   2.9539240E-04
     13     -207.0237268816  -2.6124887E-05   5.6140409E-05
     14     -207.0237269260  -4.4422848E-08   5.3357540E-05
     15     -207.0237268054   1.2064879E-07   5.2384255E-05
     16     -207.0237268892  -8.3839751E-08   4.1027982E-05
     17     -207.0237271864  -2.9717700E-07   2.1488415E-05
     18     -207.0237272560  -6.9603061E-08   1.2049985E-05
------------------------------------------------------------

 total:                                   1.605 sec
 * total energy  :  -207.0237273 Eh     change       -0.5803366E-02 Eh
   gradient norm :     0.0796707 Eh/α   predicted    -0.1078343E-01 (  85.81%)
   displ. norm   :     0.5262949 α      lambda       -0.1601199E-01
   maximum displ.:     0.1562779 α      in ANC's #80, #32, #8, ...

........................................................................
.............................. CYCLE   18 ..............................
........................................................................
------------------------------------------------------------
  cycle        total energy    energy error   density error
------------------------------------------------------------
      1     -207.0259303062  -2.0930593E+02   6.0709794E-03
      2     -206.9552474759   7.0682830E-02   1.1659321E-02
      3     -206.9168123963   3.8435080E-02   1.3542753E-02
      4     -207.0271599531  -1.1034756E-01   2.9679440E-03
      5     -207.0278926801  -7.3272699E-04   1.6204469E-03
      6     -207.0271215743   7.7110581E-04   1.6686806E-03
      7     -207.0264542198   6.6735451E-04   1.8911864E-03
      8     -207.0257641088   6.9011099E-04   2.1596828E-03
      9     -207.0255448348   2.1927396E-04   2.1950388E-03
     10     -207.0274904228  -1.9455880E-03   1.0047551E-03
     11     -207.0277118309  -2.2140817E-04   1.7573818E-03
     12     -207.0277866092  -7.4778281E-05   1.3049334E-03
     13     -207.0278929292  -1.0631997E-04   8.7714645E-04
     14     -207.0279615306  -6.8601400E-05   5.7177918E-04
     15     -207.0279888456  -2.7315030E-05   3.7940587E-04
     16     -207.0280043498  -1.5504215E-05   2.1992029E-04
     17     -207.0280110335  -6.6836396E-06   9.2658478E-05
     18     -207.0280116508  -6.1734761E-07   4.2657297E-05
     19     -207.0280119173  -2.6650238E-07   9.9734463E-06
------------------------------------------------------------

 total:                                   1.699 sec
 * total energy  :  -207.0280119 Eh     change       -0.4284661E-02 Eh
   gradient norm :     0.0875670 Eh/α   predicted    -0.1022355E-01 ( 138.61%)
   displ. norm   :     0.4655260 α      lambda       -0.1246102E-01
   maximum displ.:     0.1694479 α      in ANC's #14, #23, #8, ...

........................................................................
.............................. CYCLE   19 ..............................
........................................................................
------------------------------------------------------------
  cycle        total energy    energy error   density error
------------------------------------------------------------
      1     -207.0332241129  -2.0931242E+02   4.1187622E-03
      2     -207.0315084743   1.7156386E-03   3.4331492E-03
      3     -206.9781651029   5.3343371E-02   1.0782894E-02
      4     -207.0195839884  -4.1418885E-02   6.2841085E-03
      5     -207.0262954392  -6.7114509E-03   4.3102847E-03
      6     -207.0296829281  -3.3874889E-03   3.0063693E-03
      7     -207.0337691001  -4.0861720E-03   5.8019219E-04
      8     -207.0335337532   2.3534686E-04   1.3164968E-03
      9     -207.0335493411  -1.5587876E-05   1.2781321E-03
     10     -207.0337860544  -2.3671329E-04   5.2870418E-04
     11     -207.0338238053  -3.7750895E-05   1.5992905E-04
     12     -207.0338295652  -5.7599325E-06   5.6496758E-05
     13     -207.0338297974  -2.3218519E-07   2.9691940E-05
     14     -207.0338299461  -1.4863218E-07   2.0954687E-05
     15     -207.0338298060   1.4002711E-07   2.8229692E-05
     16     -207.0338298839  -7.7836972E-08   1.9277833E-05
------------------------------------------------------------

 total:                                   1.416 sec
 * total energy  :  -207.0338299 Eh     change       -0.5817967E-02 Eh
   gradient norm :     0.0485297 Eh/α   predicted    -0.7580747E-02 (  30.30%)
   displ. norm   :     0.5209076 α      lambda       -0.9738643E-02
   maximum displ.:     0.1698010 α      in ANC's #18, #14, #8, ...

........................................................................
.............................. CYCLE   20 ..............................
........................................................................
------------------------------------------------------------
  cycle        total energy    energy error   density error
------------------------------------------------------------
      1     -207.0334876665  -2.0933327E+02   4.4857295E-03
      2     -207.0231216110   1.0366055E-02   6.1768811E-03
      3     -206.9855502755   3.7571336E-02   1.0806521E-02
      4     -207.0272860664  -4.1735791E-02   4.4611618E-03
      5     -207.0326802441  -5.3941778E-03   2.1390190E-03
      6     -207.0328340282  -1.5378404E-04   2.3175650E-03
      7     -207.0317471711   1.0868570E-03   2.8773292E-03
      8     -207.0318538274  -1.0665628E-04   2.7868934E-03
      9     -207.0336127399  -1.7589125E-03   1.4552487E-03
     10     -207.0343946965  -7.8195659E-04   4.1872661E-04
     11     -207.0344076952  -1.2998711E-05   2.7605901E-04
     12     -207.0344241379  -1.6442634E-05   8.6987862E-05
     13     -207.0344264078  -2.2698924E-06   3.2178918E-05
     14     -207.0344261890   2.1873518E-07   4.1202397E-05
     15     -207.0344263009  -1.1187259E-07   3.0729404E-05
     16     -207.0344265063  -2.0545244E-07   1.1462943E-05
------------------------------------------------------------

 total:                                   1.405 sec
 * total energy  :  -207.0344265 Eh     change       -0.5966225E-03 Eh
   gradient norm :     0.0857273 Eh/α   predicted    -0.6190583E-02 ( 937.60%)
   displ. norm   :     0.3949524 α      lambda       -0.1166092E-01
   maximum displ.:     0.1278808 α      in ANC's #23, #14, #8, ...
 * RMSD in coord.:     0.8994605 α      energy gain  -0.2129993E+01 Eh

generating ANC from exact Hessian ...
Using Lindh-Hessian (1995)
 Shifting diagonal of input Hessian by    9.9501356252825624E-003
 Lowest  eigenvalues of input Hessian
    0.000000    0.000000    0.000000    0.000000    0.000000    0.000000
    0.010000    0.010008    0.010087    0.010132    0.010207    0.010314
    0.010455    0.010465    0.010601    0.010697    0.010763    0.010991
 Highest eigenvalues
    2.610858    2.643608    2.648524    2.661024    2.662287    2.685277


........................................................................
.............................. CYCLE   21 ..............................
........................................................................
------------------------------------------------------------
  cycle        total energy    energy error   density error
------------------------------------------------------------
      1     -207.0389004275  -2.0932910E+02   3.8087891E-03
      2     -207.0027788673   3.6121560E-02   9.6367363E-03
      3     -207.0171183473  -1.4339480E-02   7.8942363E-03
      4     -207.0376975691  -2.0579222E-02   2.5881428E-03
      5     -207.0385587182  -8.6114902E-04   1.7352067E-03
      6     -207.0383937998   1.6491835E-04   2.0573688E-03
      7     -207.0381733113   2.2048852E-04   2.1413512E-03
      8     -207.0391862958  -1.0129845E-03   1.2577411E-03
      9     -207.0397498833  -5.6358749E-04   1.3680751E-04
     10     -207.0397435689   6.3144212E-06   2.1571497E-04
     11     -207.0397467720  -3.2031184E-06   1.7700984E-04
     12     -207.0397522218  -5.4497938E-06   1.0586752E-04
     13     -207.0397560390  -3.8172193E-06   1.1494312E-05
     14     -207.0397559795   5.9487746E-08   1.9472451E-05
------------------------------------------------------------

 total:                                   1.323 sec
 * total energy  :  -207.0397560 Eh     change       -0.5329473E-02 Eh
   gradient norm :     0.0414271 Eh/α   predicted     0.0000000E+00 (-100.00%)
   displ. norm   :     0.3421248 α      lambda       -0.4688034E-02
   maximum displ.:     0.1335571 α      in ANC's #20, #8, #15, ...

........................................................................
.............................. CYCLE   22 ..............................
........................................................................
------------------------------------------------------------
  cycle        total energy    energy error   density error
------------------------------------------------------------
      1     -207.0431515894  -2.0933827E+02   2.1495627E-03
      2     -207.0179834415   2.5168148E-02   8.0988818E-03
      3     -207.0394502275  -2.1466786E-02   3.4653819E-03
      4     -207.0427569496  -3.3067221E-03   1.3262244E-03
      5     -207.0433836630  -6.2671341E-04   3.0004442E-04
      6     -207.0432858997   9.7763284E-05   6.2208610E-04
      7     -207.0432419424   4.3957298E-05   7.1141811E-04
      8     -207.0433202528  -7.8310451E-05   5.0440494E-04
      9     -207.0434066783  -8.6425462E-05   1.0079052E-04
     10     -207.0434105920  -3.9136756E-06   2.9379719E-05
     11     -207.0434103645   2.2743302E-07   3.7407268E-05
     12     -207.0434106472  -2.8265904E-07   2.0524321E-05
     13     -207.0434107811  -1.3388942E-07   4.5115471E-06
------------------------------------------------------------

 total:                                   1.174 sec
 * total energy  :  -207.0434108 Eh     change       -0.3654802E-02 Eh
   gradient norm :     0.0195044 Eh/α   predicted    -0.2619949E-02 ( -28.31%)
   displ. norm   :     0.5664725 α      lambda       -0.4059925E-02
   maximum displ.:     0.2289766 α      in ANC's #8, #20, #15, ...

........................................................................
.............................. CYCLE   23 ..............................
........................................................................
------------------------------------------------------------
  cycle        total energy    energy error   density error
------------------------------------------------------------
      1     -207.0463091951  -2.0934452E+02   2.7796799E-03
      2     -207.0348823697   1.1426825E-02   5.6917431E-03
      3     -207.0305729997   4.3093699E-03   6.7360625E-03
      4     -207.0455304134  -1.4957414E-02   1.6414661E-03
      5     -207.0462238595  -6.9344605E-04   7.7371727E-04
      6     -207.0464202199  -1.9636041E-04   2.7874043E-04
      7     -207.0464208368  -6.1689553E-07   2.6717487E-04
      8     -207.0464350383  -1.4201545E-05   1.5783083E-04
      9     -207.0464432538  -8.2154386E-06   4.4673850E-05
     10     -207.0464438100  -5.5623147E-07   1.9915502E-05
------------------------------------------------------------

 total:                                   0.909 sec
 * total energy  :  -207.0464438 Eh     change       -0.3033029E-02 Eh
   gradient norm :     0.0127716 Eh/α   predicted    -0.2681876E-02 ( -11.58%)
   displ. norm   :     0.5929619 α      lambda       -0.2533765E-02
   maximum displ.:     0.2593565 α      in ANC's #8, #20, #15, ...

........................................................................
.............................. CYCLE   24 ..............................
........................................................................
------------------------------------------------------------
  cycle        total energy    energy error   density error
------------------------------------------------------------
      1     -207.0484680306  -2.0934582E+02   2.5428208E-03
      2     -207.0484776235  -9.5928969E-06   1.3121097E-03
      3     -207.0446280317   3.8495918E-03   3.2970109E-03
      4     -207.0449429094  -3.1487770E-04   3.1689924E-03
      5     -207.0484500004  -3.5070910E-03   4.5618392E-04
      6     -207.0484991303  -4.9129931E-05   2.0970073E-04
      7     -207.0485074416  -8.3112661E-06   1.0431401E-04
      8     -207.0485088576  -1.4160027E-06   6.7434643E-05
      9     -207.0485104103  -1.5526803E-06   2.5559923E-05
     10     -207.0485104341  -2.3830268E-08   2.1591555E-05
     11     -207.0485104539  -1.9774006E-08   1.6968325E-05
------------------------------------------------------------

 total:                                   0.978 sec
 * total energy  :  -207.0485105 Eh     change       -0.2066644E-02 Eh
   gradient norm :     0.0173094 Eh/α   predicted    -0.1712323E-02 ( -17.14%)
   displ. norm   :     0.6513276 α      lambda       -0.2340255E-02
   maximum displ.:     0.2978587 α      in ANC's #8, #20, #15, ...

........................................................................
.............................. CYCLE   25 ..............................
........................................................................
------------------------------------------------------------
  cycle        total energy    energy error   density error
------------------------------------------------------------
      1     -207.0504217542  -2.0934650E+02   2.5950992E-03
      2     -207.0481329505   2.2888037E-03   2.8985565E-03
      3     -207.0180890986   3.0043852E-02   9.0741475E-03
      4     -207.0489764559  -3.0887357E-02   2.0139903E-03
      5     -207.0503401232  -1.3636673E-03   6.2943309E-04
      6     -207.0503595189  -1.9395640E-05   6.5549859E-04
      7     -207.0502435650   1.1595388E-04   8.6292492E-04
      8     -207.0502718186  -2.8253612E-05   7.8899338E-04
      9     -207.0504488722  -1.7705366E-04   3.0866999E-04
     10     -207.0504851311  -3.6258871E-05   6.9490688E-05
     11     -207.0504849796   1.5154188E-07   6.5671206E-05
     12     -207.0504860761  -1.0964823E-06   9.2547875E-06
     13     -207.0504860416   3.4451404E-08   1.5958550E-05
------------------------------------------------------------

 total:                                   1.146 sec
 * total energy  :  -207.0504860 Eh     change       -0.1975588E-02 Eh
   gradient norm :     0.0165866 Eh/α   predicted    -0.1666562E-02 ( -15.64%)
   displ. norm   :     0.6796777 α      lambda       -0.2280574E-02
   maximum displ.:     0.3251001 α      in ANC's #8, #20, #13, ...

........................................................................
.............................. CYCLE   26 ..............................
........................................................................
------------------------------------------------------------
  cycle        total energy    energy error   density error
------------------------------------------------------------
      1     -207.0522672834  -2.0934898E+02   2.6521367E-03
      2     -207.0414123747   1.0854909E-02   5.6105859E-03
      3     -207.0393523848   2.0599899E-03   6.1510712E-03
      4     -207.0516732144  -1.2320830E-02   1.4284829E-03
      5     -207.0521397564  -4.6654198E-04   8.8056180E-04
      6     -207.0523942617  -2.5450529E-04   2.7009892E-04
      7     -207.0523960395  -1.7777913E-06   2.3507438E-04
      8     -207.0524103546  -1.4315177E-05   1.0167564E-04
      9     -207.0524134475  -3.0928680E-06   2.5451534E-05
     10     -207.0524135017  -5.4183289E-08   1.6579903E-05
------------------------------------------------------------

 total:                                   0.882 sec
 * total energy  :  -207.0524135 Eh     change       -0.1927460E-02 Eh
   gradient norm :     0.0132488 Eh/α   predicted    -0.1667064E-02 ( -13.51%)
   displ. norm   :     0.6982455 α      lambda       -0.2042079E-02
   maximum displ.:     0.3468815 α      in ANC's #8, #2, #13, ...

........................................................................
.............................. CYCLE   27 ..............................
........................................................................
------------------------------------------------------------
  cycle        total energy    energy error   density error
------------------------------------------------------------
      1     -207.0540324301  -2.0935266E+02   2.6914842E-03
      2     -207.0538572122   1.7521784E-04   1.6190713E-03
      3     -207.0302434252   2.3613787E-02   7.9952823E-03
      4     -207.0501734692  -1.9930044E-02   3.2658284E-03
      5     -207.0539673097  -3.7938405E-03   6.9631817E-04
      6     -207.0541115222  -1.4421251E-04   2.4888857E-04
      7     -207.0541090069   2.5153081E-06   2.4995713E-04
      8     -207.0541029813   6.0256577E-06   2.7038587E-04
      9     -207.0541179725  -1.4991208E-05   1.6361861E-04
     10     -207.0541267202  -8.7477541E-06   4.4362793E-05
     11     -207.0541272936  -5.7339193E-07   1.8776406E-05
------------------------------------------------------------

 total:                                   1.026 sec
 * total energy  :  -207.0541273 Eh     change       -0.1713792E-02 Eh
   gradient norm :     0.0121904 Eh/α   predicted    -0.1518864E-02 ( -11.37%)
   displ. norm   :     0.7122764 α      lambda       -0.1714047E-02
   maximum displ.:     0.3644332 α      in ANC's #8, #2, #7, ...

........................................................................
.............................. CYCLE   28 ..............................
........................................................................
------------------------------------------------------------
  cycle        total energy    energy error   density error
------------------------------------------------------------
      1     -207.0554401773  -2.0935528E+02   2.7066360E-03
      2     -207.0484922868   6.9478905E-03   4.6695252E-03
      3     -207.0349631978   1.3529089E-02   7.5114273E-03
      4     -207.0536540784  -1.8690881E-02   2.2380212E-03
      5     -207.0553681095  -1.7140311E-03   7.9661280E-04
      6     -207.0555110386  -1.4292916E-04   4.8749681E-04
      7     -207.0555164816  -5.4429179E-06   4.5570475E-04
      8     -207.0555652638  -4.8782279E-05   2.3883423E-04
      9     -207.0555820005  -1.6736629E-05   7.9909692E-05
     10     -207.0555841583  -2.1578708E-06   1.9524892E-05
     11     -207.0555841550   3.3372487E-09   1.7852515E-05
------------------------------------------------------------

 total:                                   0.995 sec
 * total energy  :  -207.0555842 Eh     change       -0.1456861E-02 Eh
   gradient norm :     0.0123012 Eh/α   predicted    -0.1291834E-02 ( -11.33%)
   displ. norm   :     0.7048555 α      lambda       -0.1530839E-02
   maximum displ.:     0.3701659 α      in ANC's #8, #2, #7, ...

........................................................................
.............................. CYCLE   29 ..............................
........................................................................
------------------------------------------------------------
  cycle        total energy    energy error   density error
------------------------------------------------------------
      1     -207.0568078893  -2.0935984E+02   2.5357092E-03
      2     -207.0531112829   3.6966064E-03   3.5073790E-03
      3     -207.0323892752   2.0722008E-02   8.1238907E-03
      4     -207.0550347767  -2.2645501E-02   2.1798673E-03
      5     -207.0567550754  -1.7202987E-03   6.5086144E-04
      6     -207.0568142924  -5.9216987E-05   5.2360183E-04
      7     -207.0567956011   1.8691243E-05   5.6020900E-04
      8     -207.0568634909  -6.7889795E-05   3.2436939E-04
      9     -207.0568950921  -3.1601185E-05   1.0865821E-04
     10     -207.0568992981  -4.2059426E-06   1.9100159E-05
     11     -207.0568991411   1.5700971E-07   2.8010010E-05
     12     -207.0568993776  -2.3657563E-07   8.0126666E-06
------------------------------------------------------------

 total:                                   1.111 sec
 * total energy  :  -207.0568994 Eh     change       -0.1315223E-02 Eh
   gradient norm :     0.0113113 Eh/α   predicted    -0.1145716E-02 ( -12.89%)
   displ. norm   :     0.7361963 α      lambda       -0.1475792E-02
   maximum displ.:     0.3842536 α      in ANC's #8, #2, #7, ...

........................................................................
.............................. CYCLE   30 ..............................
........................................................................
------------------------------------------------------------
  cycle        total energy    energy error   density error
------------------------------------------------------------
      1     -207.0581237528  -2.0936083E+02   2.5078938E-03
      2     -207.0551405576   2.9831952E-03   3.1427539E-03
      3     -207.0376093071   1.7531251E-02   7.5738097E-03
      4     -207.0575019717  -1.9892665E-02   1.3366494E-03
      5     -207.0580258391  -5.2386734E-04   7.4031728E-04
      6     -207.0581626675  -1.3682840E-04   3.2838722E-04
      7     -207.0581899026  -2.7235104E-05   1.2713724E-04
      8     -207.0581933245  -3.4219095E-06   5.8780812E-05
      9     -207.0581941767  -8.5219577E-07   2.4176823E-05
     10     -207.0581942384  -6.1715497E-08   1.7118657E-05
------------------------------------------------------------

 total:                                   0.886 sec
 * total energy  :  -207.0581942 Eh     change       -0.1294861E-02 Eh
   gradient norm :     0.0123324 Eh/α   predicted    -0.1137830E-02 ( -12.13%)
   displ. norm   :     0.7582508 α      lambda       -0.1698364E-02
   maximum displ.:     0.3760976 α      in ANC's #8, #7, #2, ...

........................................................................
.............................. CYCLE   31 ..............................
........................................................................
------------------------------------------------------------
  cycle        total energy    energy error   density error
------------------------------------------------------------
      1     -207.0594642078  -2.0937035E+02   2.5695831E-03
      2     -207.0551111340   4.3530738E-03   3.7332258E-03
      3     -207.0420198365   1.3091298E-02   7.0317899E-03
      4     -207.0589817940  -1.6961958E-02   1.1886620E-03
      5     -207.0594074906  -4.2569660E-04   6.3182502E-04
      6     -207.0595035176  -9.6026964E-05   3.0446136E-04
      7     -207.0595262291  -2.2711526E-05   1.2237506E-04
      8     -207.0595290615  -2.8323765E-06   6.3912555E-05
      9     -207.0595301803  -1.1187906E-06   2.4041509E-05
     10     -207.0595302242  -4.3953008E-08   1.7190475E-05
------------------------------------------------------------

 total:                                   0.891 sec
 * total energy  :  -207.0595302 Eh     change       -0.1335986E-02 Eh
   gradient norm :     0.0150494 Eh/α   predicted    -0.1337417E-02 (   0.11%)
   displ. norm   :     0.7822852 α      lambda       -0.1661046E-02
   maximum displ.:     0.3747615 α      in ANC's #8, #7, #2, ...

........................................................................
.............................. CYCLE   32 ..............................
........................................................................
------------------------------------------------------------
  cycle        total energy    energy error   density error
------------------------------------------------------------
      1     -207.0608491667  -2.0936451E+02   2.6167486E-03
      2     -207.0555273683   5.3217984E-03   4.0708708E-03
      3     -207.0442291737   1.1298195E-02   6.8978355E-03
      4     -207.0604107879  -1.6181614E-02   1.2149252E-03
      5     -207.0607469459  -3.3615797E-04   7.3955622E-04
      6     -207.0608853010  -1.3835506E-04   3.2830096E-04
      7     -207.0609133804  -2.8079377E-05   1.4815766E-04
      8     -207.0609191154  -5.7350270E-06   6.5619036E-05
      9     -207.0609201778  -1.0623995E-06   2.9767814E-05
     10     -207.0609202873  -1.0955944E-07   1.9860912E-05
------------------------------------------------------------

 total:                                   0.887 sec
 * total energy  :  -207.0609203 Eh     change       -0.1390063E-02 Eh
   gradient norm :     0.0137528 Eh/α   predicted    -0.1338780E-02 (  -3.69%)
   displ. norm   :     0.7382121 α      lambda       -0.1493581E-02
   maximum displ.:     0.3121089 α      in ANC's #8, #7, #2, ...

........................................................................
.............................. CYCLE   33 ..............................
........................................................................
------------------------------------------------------------
  cycle        total energy    energy error   density error
------------------------------------------------------------
      1     -207.0621829305  -2.0936484E+02   2.4345770E-03
      2     -207.0609837078   1.1992227E-03   2.2473122E-03
      3     -207.0383821548   2.2601553E-02   8.0727273E-03
      4     -207.0620158949  -2.3633740E-02   8.2154682E-04
      5     -207.0620944124  -7.8517532E-05   6.5162410E-04
      6     -207.0621833171  -8.8904699E-05   3.4838624E-04
      7     -207.0622163060  -3.2988885E-05   1.1661225E-04
      8     -207.0622189110  -2.6050534E-06   7.0556250E-05
      9     -207.0622204029  -1.4918630E-06   3.2195988E-05
     10     -207.0622205943  -1.9137167E-07   1.9111889E-05
------------------------------------------------------------

 total:                                   0.907 sec
 * total energy  :  -207.0622206 Eh     change       -0.1300307E-02 Eh
   gradient norm :     0.0123792 Eh/α   predicted    -0.1153761E-02 ( -11.27%)
   displ. norm   :     0.7525727 α      lambda       -0.1526786E-02
   maximum displ.:     0.2998511 α      in ANC's #7, #8, #2, ...

........................................................................
.............................. CYCLE   34 ..............................
........................................................................
------------------------------------------------------------
  cycle        total energy    energy error   density error
------------------------------------------------------------
      1     -207.0634074183  -2.0936431E+02   2.5114587E-03
      2     -207.0605938571   2.8135613E-03   3.1013022E-03
      3     -207.0439265336   1.6667323E-02   7.4101594E-03
      4     -207.0631621960  -1.9235662E-02   9.8477852E-04
      5     -207.0633089591  -1.4676311E-04   7.1003740E-04
      6     -207.0634245857  -1.1562654E-04   3.5707696E-04
      7     -207.0634576308  -3.3045108E-05   1.3569059E-04
      8     -207.0634610331  -3.4023842E-06   8.6982885E-05
      9     -207.0634635364  -2.5032350E-06   3.2364246E-05
     10     -207.0634635087   2.7667113E-08   2.9066181E-05
     11     -207.0634636179  -1.0914709E-07   1.9352446E-05
------------------------------------------------------------

 total:                                   0.979 sec
 * total energy  :  -207.0634636 Eh     change       -0.1243024E-02 Eh
   gradient norm :     0.0123917 Eh/α   predicted    -0.1195764E-02 (  -3.80%)
   displ. norm   :     0.7352717 α      lambda       -0.1428426E-02
   maximum displ.:     0.2942107 α      in ANC's #7, #2, #8, ...

........................................................................
.............................. CYCLE   35 ..............................
........................................................................
------------------------------------------------------------
  cycle        total energy    energy error   density error
[...]
   
  Fragment 1 SOMO-8  Fragment 2 LUMO+1
--------------------------------------
E_mon(orb) frag1 frag2             -11.029   -10.500 eV
J(AB):                0.007 eV
S(AB):            -0.00019504 Eh
|J(AB,eff)|:            0.005 eV
   
  Fragment 1 SOMO-7  Fragment 2 SOMO-5
--------------------------------------
E_mon(orb) frag1 frag2             -11.058   -10.938 eV
J(AB):               -0.004 eV
S(AB):             0.00014070 Eh
|J(AB,eff)|:            0.002 eV
   
  Fragment 1 SOMO-7  Fragment 2 SOMO-4
--------------------------------------
E_mon(orb) frag1 frag2             -11.058   -10.999 eV
J(AB):               -0.005 eV
S(AB):             0.00020258 Eh
|J(AB,eff)|:            0.003 eV
   
  Fragment 1 SOMO-7  Fragment 2 SOMO-3
--------------------------------------
E_mon(orb) frag1 frag2             -11.058   -10.892 eV
J(AB):               -0.006 eV
S(AB):             0.00016322 Eh
|J(AB,eff)|:            0.004 eV
   
  Fragment 1 SOMO-7  Fragment 2 SOMO-2
--------------------------------------
E_mon(orb) frag1 frag2             -11.058   -10.886 eV
J(AB):                0.007 eV
S(AB):            -0.00042919 Eh
|J(AB,eff)|:            0.002 eV
   
  Fragment 1 SOMO-7  Fragment 2 SOMO-1
--------------------------------------
E_mon(orb) frag1 frag2             -11.058   -10.871 eV
J(AB):               -0.036 eV
S(AB):             0.00144045 Eh
|J(AB,eff)|:            0.020 eV
   
  Fragment 1 SOMO-7  Fragment 2 SOMO 
--------------------------------------
E_mon(orb) frag1 frag2             -11.058   -10.817 eV
J(AB):               -0.022 eV
S(AB):             0.00088531 Eh
|J(AB,eff)|:            0.012 eV
   
  Fragment 1 SOMO-7  Fragment 2 LUMO 
--------------------------------------
E_mon(orb) frag1 frag2             -11.058   -10.559 eV
J(AB):               -0.009 eV
S(AB):             0.00040494 Eh
|J(AB,eff)|:            0.004 eV
   
  Fragment 1 SOMO-7  Fragment 2 LUMO+1
--------------------------------------
E_mon(orb) frag1 frag2             -11.058   -10.500 eV
J(AB):                0.009 eV
S(AB):            -0.00033092 Eh
|J(AB,eff)|:            0.006 eV
   
  Fragment 1 SOMO-6  Fragment 2 SOMO-5
--------------------------------------
E_mon(orb) frag1 frag2             -11.128   -10.938 eV
J(AB):                0.031 eV
S(AB):            -0.00127488 Eh
|J(AB,eff)|:            0.017 eV
   
  Fragment 1 SOMO-6  Fragment 2 SOMO-4
--------------------------------------
E_mon(orb) frag1 frag2             -11.128   -10.999 eV
J(AB):                0.081 eV
S(AB):            -0.00366057 Eh
|J(AB,eff)|:            0.040 eV
   
  Fragment 1 SOMO-6  Fragment 2 SOMO-3
--------------------------------------
E_mon(orb) frag1 frag2             -11.128   -10.892 eV
J(AB):               -0.031 eV
S(AB):             0.00137245 Eh
|J(AB,eff)|:            0.016 eV
   
  Fragment 1 SOMO-6  Fragment 2 SOMO-2
--------------------------------------
E_mon(orb) frag1 frag2             -11.128   -10.886 eV
J(AB):                0.015 eV
S(AB):            -0.00044899 Eh
|J(AB,eff)|:            0.010 eV
   
  Fragment 1 SOMO-6  Fragment 2 SOMO-1
--------------------------------------
E_mon(orb) frag1 frag2             -11.128   -10.871 eV
J(AB):               -0.007 eV
S(AB):             0.00030032 Eh
|J(AB,eff)|:            0.004 eV
   
  Fragment 1 SOMO-6  Fragment 2 SOMO 
--------------------------------------
E_mon(orb) frag1 frag2             -11.128   -10.817 eV
J(AB):                0.039 eV
S(AB):            -0.00162781 Eh
|J(AB,eff)|:            0.022 eV
   
  Fragment 1 SOMO-6  Fragment 2 LUMO 
--------------------------------------
E_mon(orb) frag1 frag2             -11.128   -10.559 eV
J(AB):                0.042 eV
S(AB):            -0.00180800 Eh
|J(AB,eff)|:            0.022 eV
   
  Fragment 1 SOMO-6  Fragment 2 LUMO+1
--------------------------------------
E_mon(orb) frag1 frag2             -11.128   -10.500 eV
J(AB):                0.049 eV
S(AB):            -0.00214828 Eh
|J(AB,eff)|:            0.025 eV
   
  Fragment 1 SOMO-5  Fragment 2 SOMO-5
--------------------------------------
E_mon(orb) frag1 frag2             -11.040   -10.938 eV
J(AB):               -0.007 eV
S(AB):             0.00029004 Eh
|J(AB,eff)|:            0.004 eV
   
  Fragment 1 SOMO-5  Fragment 2 SOMO-4
--------------------------------------
E_mon(orb) frag1 frag2             -11.040   -10.999 eV
J(AB):                0.007 eV
S(AB):            -0.00033408 Eh
|J(AB,eff)|:            0.003 eV
   
  Fragment 1 SOMO-5  Fragment 2 SOMO-3
--------------------------------------
E_mon(orb) frag1 frag2             -11.040   -10.892 eV
J(AB):               -0.022 eV
S(AB):             0.00082920 Eh
|J(AB,eff)|:            0.013 eV
   
  Fragment 1 SOMO-5  Fragment 2 SOMO-2
--------------------------------------
E_mon(orb) frag1 frag2             -11.040   -10.886 eV
J(AB):               -0.036 eV
S(AB):             0.00166542 Eh
|J(AB,eff)|:            0.018 eV
   
  Fragment 1 SOMO-5  Fragment 2 SOMO-1
--------------------------------------
E_mon(orb) frag1 frag2             -11.040   -10.871 eV
J(AB):               -0.037 eV
S(AB):             0.00149215 Eh
|J(AB,eff)|:            0.021 eV
   
  Fragment 1 SOMO-5  Fragment 2 SOMO 
--------------------------------------
E_mon(orb) frag1 frag2             -11.040   -10.817 eV
J(AB):                0.003 eV
S(AB):            -0.00012891 Eh
|J(AB,eff)|:            0.001 eV
   
  Fragment 1 SOMO-5  Fragment 2 LUMO 
--------------------------------------
E_mon(orb) frag1 frag2             -11.040   -10.559 eV
J(AB):               -0.000 eV
S(AB):             0.00000252 Eh
|J(AB,eff)|:            0.000 eV
   
  Fragment 1 SOMO-5  Fragment 2 LUMO+1
--------------------------------------
E_mon(orb) frag1 frag2             -11.040   -10.500 eV
J(AB):                0.006 eV
S(AB):            -0.00016572 Eh
|J(AB,eff)|:            0.004 eV
   
  Fragment 1 SOMO-4  Fragment 2 SOMO-5
--------------------------------------
E_mon(orb) frag1 frag2             -10.948   -10.938 eV
J(AB):               -0.010 eV
S(AB):             0.00054782 Eh
|J(AB,eff)|:            0.004 eV
   
  Fragment 1 SOMO-4  Fragment 2 SOMO-4
--------------------------------------
E_mon(orb) frag1 frag2             -10.948   -10.999 eV
J(AB):                0.022 eV
S(AB):            -0.00090632 Eh
|J(AB,eff)|:            0.012 eV
   
  Fragment 1 SOMO-4  Fragment 2 SOMO-3
--------------------------------------
E_mon(orb) frag1 frag2             -10.948   -10.892 eV
J(AB):                0.047 eV
S(AB):            -0.00224496 Eh
|J(AB,eff)|:            0.022 eV
   
  Fragment 1 SOMO-4  Fragment 2 SOMO-2
--------------------------------------
E_mon(orb) frag1 frag2             -10.948   -10.886 eV
J(AB):               -0.124 eV
S(AB):             0.00582447 Eh
|J(AB,eff)|:            0.060 eV
   
  Fragment 1 SOMO-4  Fragment 2 SOMO-1
--------------------------------------
E_mon(orb) frag1 frag2             -10.948   -10.871 eV
J(AB):                0.010 eV
S(AB):            -0.00039531 Eh
|J(AB,eff)|:            0.005 eV
   
  Fragment 1 SOMO-4  Fragment 2 SOMO 
--------------------------------------
E_mon(orb) frag1 frag2             -10.948   -10.817 eV
J(AB):                0.100 eV
S(AB):            -0.00450823 Eh
|J(AB,eff)|:            0.051 eV
   
  Fragment 1 SOMO-4  Fragment 2 LUMO 
--------------------------------------
E_mon(orb) frag1 frag2             -10.948   -10.559 eV
J(AB):               -0.023 eV
S(AB):             0.00092081 Eh
|J(AB,eff)|:            0.013 eV
   
  Fragment 1 SOMO-4  Fragment 2 LUMO+1
--------------------------------------
E_mon(orb) frag1 frag2             -10.948   -10.500 eV
J(AB):               -0.032 eV
S(AB):             0.00125899 Eh
|J(AB,eff)|:            0.018 eV
   
  Fragment 1 SOMO-3  Fragment 2 SOMO-5
--------------------------------------
E_mon(orb) frag1 frag2             -10.900   -10.938 eV
J(AB):               -0.008 eV
S(AB):             0.00028808 Eh
|J(AB,eff)|:            0.005 eV
   
  Fragment 1 SOMO-3  Fragment 2 SOMO-4
--------------------------------------
E_mon(orb) frag1 frag2             -10.900   -10.999 eV
J(AB):               -0.061 eV
S(AB):             0.00267163 Eh
|J(AB,eff)|:            0.032 eV
   
  Fragment 1 SOMO-3  Fragment 2 SOMO-3
--------------------------------------
E_mon(orb) frag1 frag2             -10.900   -10.892 eV
J(AB):               -0.014 eV
S(AB):             0.00056760 Eh
|J(AB,eff)|:            0.008 eV
   
  Fragment 1 SOMO-3  Fragment 2 SOMO-2
--------------------------------------
E_mon(orb) frag1 frag2             -10.900   -10.886 eV
J(AB):                0.023 eV
S(AB):            -0.00130217 Eh
|J(AB,eff)|:            0.009 eV
   
  Fragment 1 SOMO-3  Fragment 2 SOMO-1
--------------------------------------
E_mon(orb) frag1 frag2             -10.900   -10.871 eV
J(AB):               -0.046 eV
S(AB):             0.00178087 Eh
|J(AB,eff)|:            0.027 eV
   
  Fragment 1 SOMO-3  Fragment 2 SOMO 
--------------------------------------
E_mon(orb) frag1 frag2             -10.900   -10.817 eV
J(AB):               -0.057 eV
S(AB):             0.00240855 Eh
|J(AB,eff)|:            0.031 eV
   
  Fragment 1 SOMO-3  Fragment 2 LUMO 
--------------------------------------
E_mon(orb) frag1 frag2             -10.900   -10.559 eV
J(AB):               -0.027 eV
S(AB):             0.00115104 Eh
|J(AB,eff)|:            0.015 eV
   
  Fragment 1 SOMO-3  Fragment 2 LUMO+1
--------------------------------------
E_mon(orb) frag1 frag2             -10.900   -10.500 eV
J(AB):               -0.011 eV
S(AB):             0.00054772 Eh
|J(AB,eff)|:            0.005 eV
   
  Fragment 1 SOMO-2  Fragment 2 SOMO-5
--------------------------------------
E_mon(orb) frag1 frag2             -10.979   -10.938 eV
J(AB):                0.001 eV
S(AB):            -0.00000081 Eh
|J(AB,eff)|:            0.001 eV
   
  Fragment 1 SOMO-2  Fragment 2 SOMO-4
--------------------------------------
E_mon(orb) frag1 frag2             -10.979   -10.999 eV
J(AB):                0.023 eV
S(AB):            -0.00100055 Eh
|J(AB,eff)|:            0.012 eV
   
  Fragment 1 SOMO-2  Fragment 2 SOMO-3
--------------------------------------
E_mon(orb) frag1 frag2             -10.979   -10.892 eV
J(AB):                0.001 eV
S(AB):            -0.00004390 Eh
|J(AB,eff)|:            0.001 eV
   
  Fragment 1 SOMO-2  Fragment 2 SOMO-2
--------------------------------------
E_mon(orb) frag1 frag2             -10.979   -10.886 eV
J(AB):               -0.014 eV
S(AB):             0.00064370 Eh
|J(AB,eff)|:            0.007 eV
   
  Fragment 1 SOMO-2  Fragment 2 SOMO-1
--------------------------------------
E_mon(orb) frag1 frag2             -10.979   -10.871 eV
J(AB):               -0.012 eV
S(AB):             0.00044765 Eh
|J(AB,eff)|:            0.007 eV
   
  Fragment 1 SOMO-2  Fragment 2 SOMO 
--------------------------------------
E_mon(orb) frag1 frag2             -10.979   -10.817 eV
J(AB):                0.021 eV
S(AB):            -0.00100747 Eh
|J(AB,eff)|:            0.010 eV
   
  Fragment 1 SOMO-2  Fragment 2 LUMO 
--------------------------------------
E_mon(orb) frag1 frag2             -10.979   -10.559 eV
J(AB):                0.001 eV
S(AB):            -0.00006627 Eh
|J(AB,eff)|:            0.001 eV
   
  Fragment 1 SOMO-2  Fragment 2 LUMO+1
--------------------------------------
E_mon(orb) frag1 frag2             -10.979   -10.500 eV
J(AB):                0.019 eV
S(AB):            -0.00087848 Eh
|J(AB,eff)|:            0.009 eV
   
  Fragment 1 SOMO-1  Fragment 2 SOMO-5
--------------------------------------
E_mon(orb) frag1 frag2             -10.798   -10.938 eV
J(AB):               -0.010 eV
S(AB):             0.00035783 Eh
|J(AB,eff)|:            0.006 eV
   
  Fragment 1 SOMO-1  Fragment 2 SOMO-4
--------------------------------------
E_mon(orb) frag1 frag2             -10.798   -10.999 eV
J(AB):               -0.020 eV
S(AB):             0.00090069 Eh
|J(AB,eff)|:            0.010 eV
   
  Fragment 1 SOMO-1  Fragment 2 SOMO-3
--------------------------------------
E_mon(orb) frag1 frag2             -10.798   -10.892 eV
J(AB):               -0.001 eV
S(AB):             0.00012282 Eh
|J(AB,eff)|:            0.000 eV
   
  Fragment 1 SOMO-1  Fragment 2 SOMO-2
--------------------------------------
E_mon(orb) frag1 frag2             -10.798   -10.886 eV
J(AB):                0.050 eV
S(AB):            -0.00237182 Eh
|J(AB,eff)|:            0.024 eV
   
  Fragment 1 SOMO-1  Fragment 2 SOMO-1
--------------------------------------
E_mon(orb) frag1 frag2             -10.798   -10.871 eV
J(AB):                0.024 eV
S(AB):            -0.00100871 Eh
|J(AB,eff)|:            0.013 eV
   
  Fragment 1 SOMO-1  Fragment 2 SOMO 
--------------------------------------
E_mon(orb) frag1 frag2             -10.798   -10.817 eV
J(AB):               -0.049 eV
S(AB):             0.00225516 Eh
|J(AB,eff)|:            0.025 eV
   
  Fragment 1 SOMO-1  Fragment 2 LUMO 
--------------------------------------
E_mon(orb) frag1 frag2             -10.798   -10.559 eV
J(AB):                0.003 eV
S(AB):             0.00001526 Eh
|J(AB,eff)|:            0.003 eV
   
  Fragment 1 SOMO-1  Fragment 2 LUMO+1
--------------------------------------
E_mon(orb) frag1 frag2             -10.798   -10.500 eV
J(AB):               -0.007 eV
S(AB):             0.00039126 Eh
|J(AB,eff)|:            0.003 eV
   
  Fragment 1 SOMO   Fragment 2 SOMO-5
--------------------------------------
E_mon(orb) frag1 frag2             -10.801   -10.938 eV
J(AB):               -0.017 eV
S(AB):             0.00069059 Eh
|J(AB,eff)|:            0.010 eV
   
  Fragment 1 SOMO   Fragment 2 SOMO-4
--------------------------------------
E_mon(orb) frag1 frag2             -10.801   -10.999 eV
J(AB):               -0.028 eV
S(AB):             0.00135096 Eh
|J(AB,eff)|:            0.013 eV
   
  Fragment 1 SOMO   Fragment 2 SOMO-3
--------------------------------------
E_mon(orb) frag1 frag2             -10.801   -10.892 eV
J(AB):                0.025 eV
S(AB):            -0.00085257 Eh
|J(AB,eff)|:            0.015 eV
   
  Fragment 1 SOMO   Fragment 2 SOMO-2
--------------------------------------
E_mon(orb) frag1 frag2             -10.801   -10.886 eV
J(AB):                0.054 eV
S(AB):            -0.00254179 Eh
|J(AB,eff)|:            0.027 eV
   
  Fragment 1 SOMO   Fragment 2 SOMO-1
--------------------------------------
E_mon(orb) frag1 frag2             -10.801   -10.871 eV
J(AB):                0.050 eV
S(AB):            -0.00197409 Eh
|J(AB,eff)|:            0.029 eV
   
  Fragment 1 SOMO   Fragment 2 SOMO 
--------------------------------------
E_mon(orb) frag1 frag2             -10.801   -10.817 eV
J(AB):               -0.043 eV
S(AB):             0.00197435 Eh
|J(AB,eff)|:            0.022 eV
   
  Fragment 1 SOMO   Fragment 2 LUMO 
--------------------------------------
E_mon(orb) frag1 frag2             -10.801   -10.559 eV
J(AB):               -0.013 eV
S(AB):             0.00072212 Eh
|J(AB,eff)|:            0.005 eV
   
  Fragment 1 SOMO   Fragment 2 LUMO+1
--------------------------------------
E_mon(orb) frag1 frag2             -10.801   -10.500 eV
J(AB):               -0.013 eV
S(AB):             0.00055327 Eh
|J(AB,eff)|:            0.007 eV
   
  Fragment 1 LUMO   Fragment 2 SOMO-5
--------------------------------------
E_mon(orb) frag1 frag2             -10.539   -10.938 eV
J(AB):                0.010 eV
S(AB):            -0.00035571 Eh
|J(AB,eff)|:            0.006 eV
   
  Fragment 1 LUMO   Fragment 2 SOMO-4
--------------------------------------
E_mon(orb) frag1 frag2             -10.539   -10.999 eV
J(AB):               -0.009 eV
S(AB):             0.00034643 Eh
|J(AB,eff)|:            0.005 eV
   
  Fragment 1 LUMO   Fragment 2 SOMO-3
--------------------------------------
E_mon(orb) frag1 frag2             -10.539   -10.892 eV
J(AB):               -0.005 eV
S(AB):             0.00018633 Eh
|J(AB,eff)|:            0.003 eV
   
  Fragment 1 LUMO   Fragment 2 SOMO-2
--------------------------------------
E_mon(orb) frag1 frag2             -10.539   -10.886 eV
J(AB):               -0.007 eV
S(AB):             0.00032011 Eh
|J(AB,eff)|:            0.003 eV
   
  Fragment 1 LUMO   Fragment 2 SOMO-1
--------------------------------------
E_mon(orb) frag1 frag2             -10.539   -10.871 eV
J(AB):                0.011 eV
S(AB):            -0.00045791 Eh
|J(AB,eff)|:            0.007 eV
   
  Fragment 1 LUMO   Fragment 2 SOMO 
--------------------------------------
E_mon(orb) frag1 frag2             -10.539   -10.817 eV
J(AB):                0.030 eV
S(AB):            -0.00133415 Eh
|J(AB,eff)|:            0.016 eV
   
  Fragment 1 LUMO   Fragment 2 LUMO 
--------------------------------------
E_mon(orb) frag1 frag2             -10.539   -10.559 eV
J(AB):               -0.019 eV
S(AB):             0.00061382 Eh
|J(AB,eff)|:            0.013 eV
   
  Fragment 1 LUMO   Fragment 2 LUMO+1
--------------------------------------
E_mon(orb) frag1 frag2             -10.539   -10.500 eV
J(AB):                0.000 eV
S(AB):             0.00004541 Eh
|J(AB,eff)|:            0.001 eV
   
  Fragment 1 LUMO+1  Fragment 2 SOMO-5
--------------------------------------
E_mon(orb) frag1 frag2             -10.500   -10.938 eV
J(AB):               -0.008 eV
S(AB):             0.00032693 Eh
|J(AB,eff)|:            0.004 eV
   
  Fragment 1 LUMO+1  Fragment 2 SOMO-4
--------------------------------------
E_mon(orb) frag1 frag2             -10.500   -10.999 eV
J(AB):                0.003 eV
S(AB):            -0.00016425 Eh
|J(AB,eff)|:            0.001 eV
   
  Fragment 1 LUMO+1  Fragment 2 SOMO-3
--------------------------------------
E_mon(orb) frag1 frag2             -10.500   -10.892 eV
J(AB):                0.014 eV
S(AB):            -0.00059642 Eh
|J(AB,eff)|:            0.008 eV
   
  Fragment 1 LUMO+1  Fragment 2 SOMO-2
--------------------------------------
E_mon(orb) frag1 frag2             -10.500   -10.886 eV
J(AB):               -0.009 eV
S(AB):             0.00052284 Eh
|J(AB,eff)|:            0.003 eV
   
  Fragment 1 LUMO+1  Fragment 2 SOMO-1
--------------------------------------
E_mon(orb) frag1 frag2             -10.500   -10.871 eV
J(AB):               -0.010 eV
S(AB):             0.00039024 Eh
|J(AB,eff)|:            0.006 eV
   
  Fragment 1 LUMO+1  Fragment 2 SOMO 
--------------------------------------
E_mon(orb) frag1 frag2             -10.500   -10.817 eV
J(AB):                0.019 eV
S(AB):            -0.00080173 Eh
|J(AB,eff)|:            0.011 eV
   
  Fragment 1 LUMO+1  Fragment 2 LUMO 
--------------------------------------
E_mon(orb) frag1 frag2             -10.500   -10.559 eV
J(AB):                0.002 eV
S(AB):            -0.00002909 Eh
|J(AB,eff)|:            0.001 eV
   
  Fragment 1 LUMO+1  Fragment 2 LUMO+1
--------------------------------------
E_mon(orb) frag1 frag2             -10.500   -10.500 eV
J(AB):               -0.015 eV
S(AB):             0.00041112 Eh
|J(AB,eff)|:            0.011 eV
   
..............................................................................
:  total |J(AB,eff)| for hole transport (occ. MOs) :               0.137 eV  :
:  total |J(AB,eff)| for charge transport (unocc. MOs) :           0.017 eV  :
:  total |J(AB,eff)| for charge transfer (CT) :                    0.052 eV  :
..............................................................................
  
 Please remember, DIPRO is not available for restart!
   
normal termination of dipro
----------------------------------------------------------
 * finished run on 2025/02/24 at 15:27:36.138     
----------------------------------------------------------
 dipro:
 * wall-time:     0 d,  0 h,  0 min,  7.061 sec
 *  cpu-time:     0 d,  0 h,  0 min, 22.229 sec
 * ratio c/w:     3.148 speedup
Reorganization energy (electron): 0.18334266222284093 eV
Reorganization energy (hole): 0.1682753526484133 eV
Electron Transfer integral J: 0.017 eV
Hole Transfer integral J: 0.137 eV
