      -----------------------------------------------------------      
     |                   =====================                   |     
     |                           x T B                           |     
     |                   =====================                   |     
     |                         S. Grimme                         |     
     |          Mulliken Center for Theoretical Chemistry        |     
     |                    University of Bonn                     |     
      -----------------------------------------------------------      

   * xtb version 6.6.1 (8d0f1dd) compiled by 'runner@Mac-1690902418499.local' on 2023-08-01

   xtb is free software: you can redistribute it and/or modify it under
   the terms of the GNU Lesser General Public License as published by
   the Free Software Foundation, either version 3 of the License, or
   (at your option) any later version.
   
   xtb is distributed in the hope that it will be useful,
   but WITHOUT ANY WARRANTY; without even the implied warranty of
   MERCHANTABILITY or FITNESS FOR A PARTICULAR PURPOSE.  See the
   GNU Lesser General Public License for more details.
   
   Cite this work as:
   * C. Bannwarth, E. Caldeweyher, S. Ehlert, A. Hansen, P. Pracht,
     J. Seibert, S. Spicher, S. Grimme, WIREs Comput. Mol. Sci., 2020, 11,
     e01493. DOI: 10.1002/wcms.1493
   
   for GFN2-xTB:
   * C. Bannwarth, S. Ehlert and S. Grimme., J. Chem. Theory Comput., 2019,
     15, 1652-1671. DOI: 10.1021/acs.jctc.8b01176
   for GFN1-xTB:
   * S. Grimme, C. Bannwarth, P. Shushkov, J. Chem. Theory Comput., 2017,
     13, 1989-2009. DOI: 10.1021/acs.jctc.7b00118
   for GFN0-xTB:
   * P. Pracht, E. Caldeweyher, S. Ehlert, S. Grimme, ChemRxiv, 2019, preprint.
     DOI: 10.26434/chemrxiv.8326202.v1
   for GFN-FF:
   * S. Spicher and S. Grimme, Angew. Chem. Int. Ed., 2020, 59, 15665-15673.
     DOI: 10.1002/anie.202004239
   
   for ALPB and GBSA implicit solvation:
   * S. Ehlert, M. Stahn, S. Spicher, S. Grimme, J. Chem. Theory Comput.,
     2021, 17, 4250-4261. DOI: 10.1021/acs.jctc.1c00471
   
   for DFT-D4:
   * E. Caldeweyher, C. Bannwarth and S. Grimme, J. Chem. Phys., 2017,
     147, 034112. DOI: 10.1063/1.4993215
   * E. Caldeweyher, S. Ehlert, A. Hansen, H. Neugebauer, S. Spicher,
     C. Bannwarth and S. Grimme, J. Chem. Phys., 2019, 150, 154122.
     DOI: 10.1063/1.5090222
   * E. Caldeweyher, J.-M. Mewes, S. Ehlert and S. Grimme, Phys. Chem. Chem. Phys.
     2020, 22, 8499-8512. DOI: 10.1039/D0CP00502A
   
   for sTDA-xTB:
   * S. Grimme and C. Bannwarth, J. Chem. Phys., 2016, 145, 054103.
     DOI: 10.1063/1.4959605
   
   in the mass-spec context:
   * V. Asgeirsson, C. Bauer and S. Grimme, Chem. Sci., 2017, 8, 4879.
     DOI: 10.1039/c7sc00601b
   * J. Koopman and S. Grimme, ACS Omega 2019, 4, 12, 15120-15133.
     DOI: 10.1021/acsomega.9b02011
   
   for metadynamics refer to:
   * S. Grimme, J. Chem. Theory Comput., 2019, 155, 2847-2862
     DOI: 10.1021/acs.jctc.9b00143
   
   for SPH calculations refer to:
   * S. Spicher and S. Grimme, J. Chem. Theory Comput., 2021, 17, 1701-1714
     DOI: 10.1021/acs.jctc.0c01306
   
   with help from (in alphabetical order)
   P. Atkinson, C. Bannwarth, F. Bohle, G. Brandenburg, E. Caldeweyher
   M. Checinski, S. Dohm, S. Ehlert, S. Ehrlich, I. Gerasimov, C. Hölzer
   A. Katbashev, J. Koopman, C. Lavigne, S. Lehtola, F. März, M. Müller,
   F. Musil, H. Neugebauer, J. Pisarek, C. Plett, P. Pracht, F. Pultar,
   J. Seibert, P. Shushkov, S. Spicher, M. Stahn, M. Steiner, T. Strunk,
   J. Stückrath, T. Rose, and J. Unsleber
   
 * started run on 2024/10/31 at 14:24:33.215     

           -------------------------------------------------
          |                Calculation Setup                |
           -------------------------------------------------

          program call               : xtb stacked_dimer_Base1SO2Me.mol --opt --gfn2 --chrg 0 --uhf 1 --tight
          coordinate file            : stacked_dimer_Base1SO2Me.mol
          omp threads                :                     8

   ID    Z sym.   atoms
    1    6 C      1-9, 11, 12, 14-21, 27-35, 37, 38, 40-47, 56, 58, 62, 65,
                  68, 71, 102-110, 112, 113, 115-122, 128-136, 138, 139,
                  141-148, 157, 159, 163, 166, 169, 172
    2    7 N      10, 13, 36, 39, 111, 114, 137, 140
    3    8 O      22, 23, 48, 49, 54, 55, 57, 59-61, 63, 64, 66, 67, 69, 70,
                  123, 124, 149, 150, 155, 156, 158, 160-162, 164, 165, 167,
                  168, 170, 171
    4   16 S      24-26, 50-52, 125-127, 151-153
    5    5 B      53, 154
    6    1 H      72-101, 173-202
########################################################################
[WARNING] Please study the warnings concerning your input carefully
-1- prog_main_parseArguments: Unknown option '--tight' provided
########################################################################

           -------------------------------------------------
          |                 G F N 2 - x T B                 |
           -------------------------------------------------

        Reference                      10.1021/acs.jctc.8b01176
      * Hamiltonian:
        H0-scaling (s, p, d)           1.850000    2.230000    2.230000
        zeta-weighting                 0.500000
      * Dispersion:
        s8                             2.700000
        a1                             0.520000
        a2                             5.000000
        s9                             5.000000
      * Repulsion:
        kExp                           1.500000    1.000000
        rExp                           1.000000
      * Coulomb:
        alpha                          2.000000
        third order                    shell-resolved
        anisotropic                    true
        a3                             3.000000
        a5                             4.000000
        cn-shift                       1.200000
        cn-exp                         4.000000
        max-rad                        5.000000


          ...................................................
          :                      SETUP                      :
          :.................................................:
          :  # basis functions                 700          :
          :  # atomic orbitals                 688          :
          :  # shells                          356          :
          :  # electrons                       722          :
          :  max. iterations                   250          :
          :  Hamiltonian                  GFN2-xTB          :
          :  restarted?                      false          :
          :  GBSA solvation                  false          :
          :  PC potential                    false          :
          :  electronic temp.          300.0000000     K    :
          :  accuracy                    1.0000000          :
          :  -> integral cutoff          0.2500000E+02      :
          :  -> integral neglect         0.1000000E-07      :
          :  -> SCF convergence          0.1000000E-05 Eh   :
          :  -> wf. convergence          0.1000000E-03 e    :
          :  Broyden damping             0.4000000          :
          ...................................................

 iter      E             dE          RMSdq      gap      omega  full diag
   1   -416.8764295 -0.416876E+03  0.628E+00    0.03       0.0  T
   2   -411.5692750  0.530715E+01  0.458E+00    0.35       1.0  T
   3   -301.8327239  0.109737E+03  0.812E+00    0.02       1.0  T
   4   -371.3830060 -0.695503E+02  0.617E+00    0.08       1.0  T
   5   -408.7824325 -0.373994E+02  0.339E+00    0.07       1.0  T
   6   -403.9656361  0.481680E+01  0.340E+00    0.11       1.0  T
   7   -412.7476216 -0.878199E+01  0.246E+00    0.14       1.0  T
   8   -417.2327094 -0.448509E+01  0.166E+00    0.02       1.0  T
   9   -417.9514546 -0.718745E+00  0.140E+00    0.14       1.0  T
  10   -418.1144861 -0.163032E+00  0.122E+00    0.24       1.0  T
  11   -418.1721542 -0.576681E-01  0.107E+00    0.07       1.0  T
  12   -417.9538057  0.218348E+00  0.963E-01    0.01       1.0  T
  13   -417.9677674 -0.139617E-01  0.107E+00    0.04       1.0  T
  14   -418.0660222 -0.982548E-01  0.948E-01    0.02       1.0  T
  15   -418.3406114 -0.274589E+00  0.439E-01    0.01       1.0  T
  16   -418.2219458  0.118666E+00  0.706E-01    0.01       1.0  T
  17   -418.2945993 -0.726535E-01  0.571E-01    0.02       1.0  T
  18   -418.1428676  0.151732E+00  0.761E-01    0.03       1.0  T
  19   -418.3631539 -0.220286E+00  0.468E-01    0.06       1.0  T
  20   -418.3332672  0.298867E-01  0.435E-01    0.02       1.0  T
  21   -418.4275537 -0.942865E-01  0.207E-01    0.02       1.0  T
  22   -418.4411277 -0.135740E-01  0.128E-01    0.01       1.0  T
  23   -418.4302074  0.109203E-01  0.174E-01    0.03       1.0  T
  24   -418.4443796 -0.141723E-01  0.621E-02    0.01       1.0  T
  25   -418.4444307 -0.510603E-04  0.485E-02    0.01       1.0  T
  26   -418.4444885 -0.577446E-04  0.444E-02    0.01       1.0  T
  27   -418.4445500 -0.615892E-04  0.375E-02    0.01       1.0  T
  28   -418.4451279 -0.577838E-03  0.226E-02    0.01       1.0  T
  29   -418.4453571 -0.229233E-03  0.967E-03    0.01       1.0  T
  30   -418.4453331  0.240538E-04  0.113E-02    0.01       1.0  T
  31   -418.4453917 -0.586457E-04  0.354E-03    0.01       2.0  T
  32   -418.4453950 -0.328872E-05  0.216E-03    0.01       3.3  T
  33   -418.4453952 -0.224469E-06  0.173E-03    0.01       4.1  T
  34   -418.4453959 -0.692848E-06  0.119E-03    0.01       5.9  T
  35   -418.4453963 -0.385861E-06  0.677E-04    0.01      10.4  T
  36   -418.4453965 -0.159194E-06  0.347E-04    0.01      20.3  T

   *** convergence criteria satisfied after 36 iterations ***

         #    Occupation            Energy/Eh            Energy/eV
      -------------------------------------------------------------
         1        2.0000           -0.8148434             -22.1730
       ...           ...                  ...                  ...
       355        2.0000           -0.3885301             -10.5724
       356        2.0000           -0.3862350             -10.5100
       357        2.0000           -0.3856556             -10.4942
       358        2.0000           -0.3842316             -10.4555
       359        1.9999           -0.3836432             -10.4395
       360        1.8179           -0.3759848             -10.2311
       361        0.9582           -0.3737194             -10.1694 (HOMO)
       362        0.7743           -0.3733626             -10.1597 (LUMO)
       363        0.2847           -0.3720929             -10.1252
       364        0.1651           -0.3715108             -10.1093
       365                         -0.3222346              -8.7684
       366                         -0.3108626              -8.4590
       ...                                ...                  ...
       688                          1.9490396              53.0361
      -------------------------------------------------------------
                  HL-Gap            0.0003569 Eh            0.0097 eV
             Fermi-level           -0.3737990 Eh          -10.1716 eV

 SCC (total)                   0 d,  0 h,  0 min,  6.656 sec
 SCC setup                      ...        0 min,  0.002 sec (  0.027%)
 Dispersion                     ...        0 min,  0.005 sec (  0.079%)
 classical contributions        ...        0 min,  0.001 sec (  0.013%)
 integral evaluation            ...        0 min,  0.039 sec (  0.587%)
 iterations                     ...        0 min,  6.379 sec ( 95.849%)
 molecular gradient             ...        0 min,  0.194 sec (  2.919%)
 printout                       ...        0 min,  0.035 sec (  0.525%)

         :::::::::::::::::::::::::::::::::::::::::::::::::::::
         ::                     SUMMARY                     ::
         :::::::::::::::::::::::::::::::::::::::::::::::::::::
         :: total energy            -413.667823415002 Eh    ::
         :: gradient norm              0.697335118735 Eh/a0 ::
         :: HOMO-LUMO gap              0.009710880392 eV    ::
         ::.................................................::
         :: SCC energy              -418.445396457389 Eh    ::
         :: -> isotropic ES            0.961655222755 Eh    ::
         :: -> anisotropic ES         -0.043135550118 Eh    ::
         :: -> anisotropic XC          0.119828885177 Eh    ::
         :: -> dispersion             -0.392666814407 Eh    ::
         :: repulsion energy           4.749005095876 Eh    ::
         :: add. restraining           0.000000000000 Eh    ::
         :: total charge              -0.000000000002 e     ::
         :::::::::::::::::::::::::::::::::::::::::::::::::::::

      ----------------------------------------------------------- 
     |                   =====================                   |
     |                        A N C O P T                        |
     |                   =====================                   |
     |               Approximate Normal Coordinate               |
     |                Rational Function Optimizer                |
      ----------------------------------------------------------- 

          ...................................................
          :                      SETUP                      :
          :.................................................:
          :   optimization level            normal          :
          :   max. optcycles                   606          :
          :   ANC micro-cycles                  20          :
          :   degrees of freedom               600          :
          :.................................................:
          :   RF solver                   davidson          :
          :   write xtbopt.log                true          :
          :   linear?                        false          :
          :   energy convergence         0.5000000E-05 Eh   :
          :   grad. convergence          0.1000000E-02 Eh/α :
          :   maxmium RF displ.          1.0000000          :
          :   Hlow (freq-cutoff)         0.1000000E-01      :
          :   Hmax (freq-cutoff)         5.0000000          :
          :   S6 in model hess.         20.0000000          :
          ...................................................

generating ANC from model Hessian ...
Using Lindh-Hessian (1995)
 Shifting diagonal of input Hessian by    1.0018364583715458E-002
 Lowest  eigenvalues of input Hessian
    0.010000    0.000000    0.000000    0.000000    0.000000    0.000000
    0.000000    0.010069    0.010090    0.010131    0.010136    0.010205
    0.010262    0.010322    0.010361    0.010382    0.010418    0.010454
 Highest eigenvalues
    2.668476    2.668527    2.674702    2.674721    2.674722    2.674931


........................................................................
.............................. CYCLE    1 ..............................
........................................................................

 iter      E             dE          RMSdq      gap      omega  full diag
   1   -418.4453965 -0.418445E+03  0.286E-04    0.01       0.0  T
   2   -418.4453755  0.209671E-04  0.567E-03    0.01       1.2  T
   3   -418.4453958 -0.202748E-04  0.106E-03    0.01       6.7  T
   4   -418.4453961 -0.315577E-06  0.806E-04    0.01       8.7  T
   5   -418.4453962 -0.145260E-06  0.643E-04    0.01      10.9  T
     SCC iter.                  ...        0 min,  0.813 sec
     gradient                   ...        0 min,  0.191 sec
 * total energy  :  -413.6678232 Eh     change        0.2267162E-06 Eh
   gradient norm :     0.6973039 Eh/α   predicted     0.0000000E+00 (-100.00%)
   displ. norm   :     0.5247210 α      lambda       -0.2937967E+00
   maximum displ.:     0.1885618 α      in ANC's #579, #484, #226, ...

........................................................................
.............................. CYCLE    2 ..............................
........................................................................

 iter      E             dE          RMSdq      gap      omega  full diag
   1   -418.4351451 -0.418435E+03  0.515E-01    0.08       0.0  T
   2   -416.3209168  0.211423E+01  0.174E+00    0.45       1.0  T
   3   -418.4383932 -0.211748E+01  0.569E-01    0.16       1.0  T
   4   -418.3417026  0.966906E-01  0.613E-01    0.01       1.0  T
   5   -418.5268779 -0.185175E+00  0.353E-01    0.06       1.0  T
   6   -418.5228245  0.405345E-02  0.360E-01    0.05       1.0  T
   7   -418.5039090  0.189155E-01  0.415E-01    0.07       1.0  T
   8   -418.4683450  0.355640E-01  0.418E-01    0.08       1.0  T
   9   -418.5417375 -0.733925E-01  0.229E-01    0.01       1.0  T
  10   -418.5720727 -0.303352E-01  0.120E-01    0.01       1.0  T
  11   -418.5754372 -0.336454E-02  0.750E-02    0.03       1.0  T
  12   -418.5769196 -0.148237E-02  0.526E-02    0.01       1.0  T
  13   -418.5769880 -0.684149E-04  0.466E-02    0.01       1.0  T
  14   -418.5777554 -0.767354E-03  0.185E-02    0.02       1.0  T
  15   -418.5778449 -0.895260E-04  0.122E-02    0.01       1.0  T
  16   -418.5779162 -0.712720E-04  0.612E-03    0.01       1.2  T
  17   -418.5779155  0.670946E-06  0.504E-03    0.01       1.4  T
  18   -418.5779293 -0.138297E-04  0.230E-03    0.01       3.1  T
  19   -418.5779322 -0.291346E-05  0.493E-04    0.01      14.3  T
  20   -418.5779320  0.276614E-06  0.815E-04    0.01       8.6  T
  21   -418.5779323 -0.359910E-06  0.136E-04    0.01      51.6  T
     SCC iter.                  ...        0 min,  3.651 sec
     gradient                   ...        0 min,  0.178 sec
 * total energy  :  -413.8799362 Eh     change       -0.2121130E+00 Eh
   gradient norm :     0.3322089 Eh/α   predicted    -0.1873836E+00 ( -11.66%)
   displ. norm   :     0.5937535 α      lambda       -0.1549628E+00
   maximum displ.:     0.1324935 α      in ANC's #579, #183, #484, ...

........................................................................
.............................. CYCLE    3 ..............................
........................................................................

 iter      E             dE          RMSdq      gap      omega  full diag
   1   -418.6441204 -0.418644E+03  0.290E-01    0.02       0.0  T
   2   -417.2315893  0.141253E+01  0.136E+00    0.21       1.0  T
   3   -418.6082878 -0.137670E+01  0.391E-01    0.08       1.0  T
   4   -418.4433673  0.164920E+00  0.578E-01    0.04       1.0  T
   5   -418.6292944 -0.185927E+00  0.337E-01    0.05       1.0  T
   6   -418.6335890 -0.429458E-02  0.302E-01    0.04       1.0  T
   7   -418.6637334 -0.301444E-01  0.182E-01    0.02       1.0  T
   8   -418.6596265  0.410688E-02  0.174E-01    0.01       1.0  T
   9   -418.6784807 -0.188542E-01  0.505E-02    0.02       1.0  T
  10   -418.6770105  0.147019E-02  0.686E-02    0.00       1.0  T
  11   -418.6779891 -0.978548E-03  0.480E-02    0.01       1.0  T
  12   -418.6792121 -0.122302E-02  0.119E-02    0.01       1.0  T
  13   -418.6792224 -0.103043E-04  0.123E-02    0.01       1.0  T
  14   -418.6791828  0.395550E-04  0.130E-02    0.02       1.0  T
  15   -418.6792562 -0.733083E-04  0.589E-03    0.01       1.2  T
  16   -418.6792603 -0.417184E-05  0.395E-03    0.01       1.8  T
  17   -418.6792598  0.527537E-06  0.345E-03    0.01       2.0  T
  18   -418.6792624 -0.260793E-05  0.185E-03    0.01       3.8  T
  19   -418.6792636 -0.117636E-05  0.696E-04    0.01      10.1  T
  20   -418.6792637 -0.113576E-06  0.410E-04    0.01      17.1  T
  21   -418.6792638 -0.816872E-07  0.171E-04    0.01      41.1  T
     SCC iter.                  ...        0 min,  3.329 sec
     gradient                   ...        0 min,  0.179 sec
 * total energy  :  -414.0020687 Eh     change       -0.1221325E+00 Eh
   gradient norm :     0.1914160 Eh/α   predicted    -0.1047969E+00 ( -14.19%)
   displ. norm   :     0.6173006 α      lambda       -0.9457240E-01
   maximum displ.:     0.1427941 α      in ANC's #579, #183, #150, ...

........................................................................
.............................. CYCLE    4 ..............................
........................................................................

 iter      E             dE          RMSdq      gap      omega  full diag
   1   -418.7194289 -0.418719E+03  0.238E-01    0.02       0.0  T
   2   -417.7767893  0.942640E+00  0.115E+00    0.03       1.0  T
   3   -418.6317679 -0.854979E+00  0.457E-01    0.11       1.0  T
   4   -418.6268936  0.487429E-02  0.433E-01    0.03       1.0  T
   5   -418.6383299 -0.114363E-01  0.477E-01    0.09       1.0  T
   6   -418.7279867 -0.896567E-01  0.197E-01    0.02       1.0  T
   7   -418.7343189 -0.633227E-02  0.147E-01    0.02       1.0  T
   8   -418.7330732  0.124572E-02  0.126E-01    0.01       1.0  T
   9   -418.7425617 -0.948847E-02  0.394E-02    0.01       1.0  T
  10   -418.7426934 -0.131724E-03  0.303E-02    0.01       1.0  T
  11   -418.7430023 -0.308857E-03  0.161E-02    0.01       1.0  T
  12   -418.7429259  0.763329E-04  0.168E-02    0.01       1.0  T
  13   -418.7430565 -0.130555E-03  0.892E-03    0.01       1.0  T
  14   -418.7431002 -0.436859E-04  0.238E-03    0.01       3.0  T
  15   -418.7431002 -0.472402E-07  0.245E-03    0.01       2.9  T
  16   -418.7431024 -0.219368E-05  0.166E-03    0.01       4.2  T
  17   -418.7431032 -0.742359E-06  0.959E-04    0.01       7.3  T
  18   -418.7431035 -0.376276E-06  0.272E-04    0.01      25.8  T
     SCC iter.                  ...        0 min,  2.698 sec
     gradient                   ...        0 min,  0.179 sec
 * total energy  :  -414.0760570 Eh     change       -0.7398829E-01 Eh
   gradient norm :     0.1156629 Eh/α   predicted    -0.6530507E-01 ( -11.74%)
   displ. norm   :     0.6447435 α      lambda       -0.5680219E-01
   maximum displ.:     0.1438607 α      in ANC's #579, #150, #183, ...

........................................................................
.............................. CYCLE    5 ..............................
........................................................................

 iter      E             dE          RMSdq      gap      omega  full diag
   1   -418.7422743 -0.418742E+03  0.265E-01    0.03       0.0  T
   2   -417.3026298  0.143964E+01  0.143E+00    0.13       1.0  T
   3   -418.7408166 -0.143819E+01  0.298E-01    0.04       1.0  T
   4   -418.6662342  0.745824E-01  0.448E-01    0.04       1.0  T
   5   -418.7581482 -0.919140E-01  0.240E-01    0.02       1.0  T
   6   -418.7438277  0.143205E-01  0.265E-01    0.05       1.0  T
   7   -418.7047021  0.391256E-01  0.358E-01    0.05       1.0  T
   8   -418.7765178 -0.718157E-01  0.898E-02    0.01       1.0  T
   9   -418.7794606 -0.294284E-02  0.562E-02    0.02       1.0  T
  10   -418.7808961 -0.143544E-02  0.198E-02    0.01       1.0  T
  11   -418.7807401  0.155948E-03  0.219E-02    0.01       1.0  T
  12   -418.7807667 -0.266196E-04  0.201E-02    0.01       1.0  T
  13   -418.7809832 -0.216448E-03  0.759E-03    0.01       1.0  T
  14   -418.7810128 -0.296293E-04  0.281E-03    0.01       2.5  T
  15   -418.7810152 -0.239680E-05  0.223E-03    0.01       3.1  T
  16   -418.7810143  0.912693E-06  0.242E-03    0.01       2.9  T
  17   -418.7810156 -0.126906E-05  0.122E-03    0.01       5.8  T
  18   -418.7810162 -0.620196E-06  0.340E-04    0.01      20.7  T
  19   -418.7810162 -0.508023E-07  0.128E-04    0.01      55.1  T
     SCC iter.                  ...        0 min,  3.311 sec
     gradient                   ...        0 min,  0.177 sec
 * total energy  :  -414.1212716 Eh     change       -0.4521464E-01 Eh
   gradient norm :     0.0808575 Eh/α   predicted    -0.4020744E-01 ( -11.07%)
   displ. norm   :     0.6748300 α      lambda       -0.3717922E-01
   maximum displ.:     0.1430259 α      in ANC's #150, #579, #183, ...

........................................................................
.............................. CYCLE    6 ..............................
........................................................................

 iter      E             dE          RMSdq      gap      omega  full diag
   1   -418.7667900 -0.418767E+03  0.266E-01    0.04       0.0  T
   2   -417.2423285  0.152446E+01  0.147E+00    0.13       1.0  T
   3   -418.7712889 -0.152896E+01  0.291E-01    0.02       1.0  T
   4   -418.6774759  0.938129E-01  0.496E-01    0.09       1.0  T
   5   -418.7860071 -0.108531E+00  0.217E-01    0.03       1.0  T
   6   -418.7529225  0.330847E-01  0.295E-01    0.04       1.0  T
   7   -418.7673717 -0.144492E-01  0.254E-01    0.06       1.0  T
   8   -418.7998053 -0.324336E-01  0.101E-01    0.01       1.0  T
   9   -418.8043341 -0.452880E-02  0.548E-02    0.01       1.0  T
  10   -418.8054519 -0.111785E-02  0.232E-02    0.01       1.0  T
  11   -418.8056108 -0.158870E-03  0.122E-02    0.01       1.0  T
  12   -418.8056006  0.102143E-04  0.125E-02    0.01       1.0  T
  13   -418.8056927 -0.920970E-04  0.288E-03    0.01       2.4  T
  14   -418.8056915  0.115986E-05  0.262E-03    0.01       2.7  T
  15   -418.8056948 -0.329537E-05  0.161E-03    0.01       4.4  T
  16   -418.8056946  0.152017E-06  0.148E-03    0.01       4.8  T
  17   -418.8056954 -0.795369E-06  0.633E-04    0.01      11.1  T
  18   -418.8056955 -0.898658E-07  0.301E-04    0.01      23.3  T
     SCC iter.                  ...        0 min,  2.651 sec
     gradient                   ...        0 min,  0.185 sec
 * total energy  :  -414.1516258 Eh     change       -0.3035415E-01 Eh
   gradient norm :     0.0615356 Eh/α   predicted    -0.2705522E-01 ( -10.87%)
   displ. norm   :     0.7023986 α      lambda       -0.2638138E-01
   maximum displ.:     0.1379658 α      in ANC's #579, #150, #57, ...

........................................................................
.............................. CYCLE    7 ..............................
........................................................................

 iter      E             dE          RMSdq      gap      omega  full diag
   1   -418.8001212 -0.418800E+03  0.221E-01    0.03       0.0  T
   2   -417.6067907  0.119333E+01  0.130E+00    0.04       1.0  T
   3   -418.7521350 -0.114534E+01  0.399E-01    0.07       1.0  T
   4   -418.7109746  0.411604E-01  0.423E-01    0.00       1.0  T
   5   -418.8125148 -0.101540E+00  0.161E-01    0.03       1.0  T
   6   -418.7544565  0.580583E-01  0.373E-01    0.07       1.0  T
   7   -418.8169393 -0.624828E-01  0.102E-01    0.01       1.0  T
   8   -418.8229168 -0.597750E-02  0.431E-02    0.01       1.0  T
   9   -418.8230014 -0.846099E-04  0.333E-02    0.01       1.0  T
  10   -418.8234443 -0.442833E-03  0.172E-02    0.01       1.0  T
  11   -418.8235382 -0.939638E-04  0.106E-02    0.01       1.0  T
  12   -418.8235581 -0.198333E-04  0.785E-03    0.01       1.0  T
  13   -418.8235752 -0.170991E-04  0.630E-03    0.01       1.1  T
  14   -418.8236001 -0.249611E-04  0.137E-03    0.01       5.1  T
  15   -418.8236002 -0.675793E-07  0.126E-03    0.01       5.6  T
  16   -418.8236007 -0.511081E-06  0.430E-04    0.01      16.4  T
  17   -418.8236007  0.140105E-07  0.410E-04    0.01      17.2  T
     SCC iter.                  ...        0 min,  2.722 sec
     gradient                   ...        0 min,  0.177 sec
 * total energy  :  -414.1733694 Eh     change       -0.2174367E-01 Eh
   gradient norm :     0.0457713 Eh/α   predicted    -0.1969850E-01 (  -9.41%)
   displ. norm   :     0.7170808 α      lambda       -0.1870064E-01
   maximum displ.:     0.1722905 α      in ANC's #57, #74, #579, ...

........................................................................
.............................. CYCLE    8 ..............................
........................................................................

 iter      E             dE          RMSdq      gap      omega  full diag
   1   -418.8267431 -0.418827E+03  0.161E-01    0.02       0.0  T
   2   -418.1817663  0.644977E+00  0.968E-01    0.04       1.0  T
   3   -418.7144908 -0.532724E+00  0.479E-01    0.11       1.0  T
   4   -418.7443041 -0.298133E-01  0.386E-01    0.04       1.0  T
   5   -418.7826145 -0.383104E-01  0.343E-01    0.05       1.0  T
   6   -418.8240163 -0.414019E-01  0.151E-01    0.02       1.0  T
   7   -418.8293566 -0.534034E-02  0.118E-01    0.01       1.0  T
   8   -418.8340622 -0.470553E-02  0.508E-02    0.01       1.0  T
   9   -418.8350322 -0.969982E-03  0.341E-02    0.00       1.0  T
  10   -418.8354257 -0.393588E-03  0.195E-02    0.01       1.0  T
  11   -418.8355481 -0.122307E-03  0.872E-03    0.00       1.0  T
  12   -418.8355350  0.130817E-04  0.105E-02    0.00       1.0  T
  13   -418.8355591 -0.241055E-04  0.756E-03    0.00       1.0  T
  14   -418.8355693 -0.102615E-04  0.523E-03    0.00       1.3  T
  15   -418.8355723 -0.293570E-05  0.404E-03    0.00       1.7  T
  16   -418.8355726 -0.353020E-06  0.347E-03    0.00       2.0  T
  17   -418.8355750 -0.234044E-05  0.203E-03    0.00       3.5  T
  18   -418.8355759 -0.944821E-06  0.870E-04    0.00       8.1  T
  19   -418.8355761 -0.168916E-06  0.414E-04    0.00      17.0  T
     SCC iter.                  ...        0 min,  3.102 sec
     gradient                   ...        0 min,  0.178 sec
 * total energy  :  -414.1886423 Eh     change       -0.1527290E-01 Eh
   gradient norm :     0.0305654 Eh/α   predicted    -0.1415831E-01 (  -7.30%)
   displ. norm   :     0.7130051 α      lambda       -0.1232305E-01
   maximum displ.:     0.2144904 α      in ANC's #57, #36, #58, ...

........................................................................
.............................. CYCLE    9 ..............................
........................................................................

 iter      E             dE          RMSdq      gap      omega  full diag
   1   -418.8388394 -0.418839E+03  0.122E-01    0.01       0.0  T
   2   -418.7895783  0.492611E-01  0.321E-01    0.02       1.0  T
   3   -418.8365960 -0.470177E-01  0.102E-01    0.01       1.0  T
   4   -418.7399319  0.966641E-01  0.396E-01    0.03       1.0  T
   5   -418.8188978 -0.789658E-01  0.222E-01    0.01       1.0  T
   6   -418.8248422 -0.594448E-02  0.179E-01    0.03       1.0  T
   7   -418.8377095 -0.128672E-01  0.828E-02    0.01       1.0  T
   8   -418.8409153 -0.320579E-02  0.299E-02    0.01       1.0  T
   9   -418.8397129  0.120237E-02  0.558E-02    0.01       1.0  T
  10   -418.8412475 -0.153459E-02  0.171E-02    0.00       1.0  T
  11   -418.8413981 -0.150598E-03  0.673E-03    0.00       1.0  T
  12   -418.8414098 -0.117063E-04  0.370E-03    0.00       1.9  T
  13   -418.8413839  0.259211E-04  0.768E-03    0.00       1.0  T
  14   -418.8414138 -0.299301E-04  0.171E-03    0.00       4.1  T
  15   -418.8414149 -0.107206E-05  0.112E-03    0.00       6.3  T
  16   -418.8414154 -0.473494E-06  0.527E-04    0.00      13.4  T
  17   -418.8414155 -0.977976E-07  0.241E-04    0.00      29.2  T
     SCC iter.                  ...        0 min,  2.630 sec
     gradient                   ...        0 min,  0.185 sec
 * total energy  :  -414.1985567 Eh     change       -0.9914370E-02 Eh
   gradient norm :     0.0220646 Eh/α   predicted    -0.9293900E-02 (  -6.26%)
   displ. norm   :     0.6973488 α      lambda       -0.7789895E-02
   maximum displ.:     0.2500598 α      in ANC's #57, #36, #58, ...

........................................................................
.............................. CYCLE   10 ..............................
........................................................................

 iter      E             dE          RMSdq      gap      omega  full diag
   1   -418.8414649 -0.418841E+03  0.108E-01    0.01       0.0  T
   2   -418.7904162  0.510486E-01  0.338E-01    0.04       1.0  T
   3   -418.7942837 -0.386746E-02  0.272E-01    0.00       1.0  T
   4   -418.8072085 -0.129248E-01  0.238E-01    0.02       1.0  T
   5   -418.8252053 -0.179968E-01  0.188E-01    0.04       1.0  T
   6   -418.8117383  0.134670E-01  0.247E-01    0.05       1.0  T
   7   -418.8422347 -0.304963E-01  0.302E-02    0.00       1.0  T
   8   -418.8424051 -0.170409E-03  0.236E-02    0.00       1.0  T
   9   -418.8425503 -0.145203E-03  0.146E-02    0.00       1.0  T
  10   -418.8426429 -0.926679E-04  0.686E-03    0.00       1.0  T
  11   -418.8426509 -0.792452E-05  0.541E-03    0.00       1.3  T
  12   -418.8426593 -0.844594E-05  0.364E-03    0.00       1.9  T
  13   -418.8426646 -0.533890E-05  0.173E-03    0.00       4.1  T
  14   -418.8426660 -0.134157E-05  0.913E-04    0.00       7.7  T
  15   -418.8426660  0.374843E-08  0.885E-04    0.00       8.0  T
  16   -418.8426664 -0.422336E-06  0.169E-04    0.00      41.7  T
     SCC iter.                  ...        0 min,  2.366 sec
     gradient                   ...        0 min,  0.177 sec
 * total energy  :  -414.2048538 Eh     change       -0.6297128E-02 Eh
   gradient norm :     0.0203237 Eh/α   predicted    -0.5789043E-02 (  -8.07%)
   displ. norm   :     0.6905179 α      lambda       -0.5266874E-02
   maximum displ.:     0.2745644 α      in ANC's #57, #36, #58, ...

........................................................................
.............................. CYCLE   11 ..............................
........................................................................

 iter      E             dE          RMSdq      gap      omega  full diag
   1   -418.8417056 -0.418842E+03  0.104E-01    0.01       0.0  T
   2   -418.7670565  0.746491E-01  0.395E-01    0.06       1.0  T
   3   -418.7780312 -0.109747E-01  0.314E-01    0.02       1.0  T
   4   -418.8253831 -0.473519E-01  0.175E-01    0.02       1.0  T
   5   -418.7641638  0.612193E-01  0.388E-01    0.07       1.0  T
   6   -418.8411064 -0.769426E-01  0.675E-02    0.00       1.0  T
   7   -418.8422644 -0.115806E-02  0.320E-02    0.00       1.0  T
   8   -418.8424903 -0.225834E-03  0.207E-02    0.00       1.0  T
   9   -418.8426665 -0.176238E-03  0.108E-02    0.00       1.0  T
  10   -418.8426996 -0.330879E-04  0.641E-03    0.00       1.1  T
  11   -418.8427131 -0.134943E-04  0.379E-03    0.00       1.9  T
  12   -418.8427169 -0.379802E-05  0.255E-03    0.00       2.8  T
  13   -418.8427189 -0.200973E-05  0.139E-03    0.00       5.1  T
  14   -418.8427198 -0.898797E-06  0.760E-04    0.00       9.3  T
  15   -418.8427198  0.837798E-08  0.655E-04    0.00      10.7  T
     SCC iter.                  ...        0 min,  2.306 sec
     gradient                   ...        0 min,  0.206 sec
 * total energy  :  -414.2091548 Eh     change       -0.4300959E-02 Eh
   gradient norm :     0.0186883 Eh/α   predicted    -0.3889107E-02 (  -9.58%)
   displ. norm   :     0.6886042 α      lambda       -0.3820627E-02
   maximum displ.:     0.2865013 α      in ANC's #57, #36, #58, ...

........................................................................
.............................. CYCLE   12 ..............................
........................................................................

 iter      E             dE          RMSdq      gap      omega  full diag
   1   -418.8420640 -0.418842E+03  0.101E-01    0.01       0.0  T
   2   -418.7402867  0.101777E+00  0.447E-01    0.09       1.0  T
   3   -418.7706633 -0.303766E-01  0.338E-01    0.03       1.0  T
   4   -418.8342652 -0.636019E-01  0.134E-01    0.01       1.0  T
   5   -418.7908242  0.434410E-01  0.311E-01    0.06       1.0  T
   6   -418.8395217 -0.486975E-01  0.817E-02    0.00       1.0  T
   7   -418.8423485 -0.282678E-02  0.373E-02    0.00       1.0  T
   8   -418.8429273 -0.578775E-03  0.186E-02    0.00       1.0  T
   9   -418.8430191 -0.918650E-04  0.105E-02    0.00       1.0  T
  10   -418.8430320 -0.128947E-04  0.905E-03    0.00       1.0  T
  11   -418.8430746 -0.425597E-04  0.281E-03    0.00       2.5  T
  12   -418.8430737  0.915466E-06  0.270E-03    0.00       2.6  T
  13   -418.8430766 -0.292386E-05  0.130E-03    0.00       5.4  T
  14   -418.8430772 -0.624038E-06  0.801E-04    0.00       8.8  T
  15   -418.8430774 -0.230341E-06  0.357E-04    0.00      19.7  T
     SCC iter.                  ...        0 min,  2.487 sec
     gradient                   ...        0 min,  0.176 sec
 * total energy  :  -414.2122955 Eh     change       -0.3140717E-02 Eh
   gradient norm :     0.0164782 Eh/α   predicted    -0.2816153E-02 ( -10.33%)
   displ. norm   :     0.6836137 α      lambda       -0.2894562E-02
   maximum displ.:     0.2819176 α      in ANC's #36, #57, #39, ...

........................................................................
.............................. CYCLE   13 ..............................
........................................................................

 iter      E             dE          RMSdq      gap      omega  full diag
   1   -418.8434438 -0.418843E+03  0.981E-02    0.01       0.0  T
   2   -418.7112578  0.132186E+00  0.499E-01    0.12       1.0  T
   3   -418.7725635 -0.613057E-01  0.340E-01    0.04       1.0  T
   4   -418.8389948 -0.664313E-01  0.111E-01    0.01       1.0  T
   5   -418.8272355  0.117593E-01  0.175E-01    0.03       1.0  T
   6   -418.8360226 -0.878711E-02  0.122E-01    0.01       1.0  T
   7   -418.8439359 -0.791336E-02  0.356E-02    0.00       1.0  T
   8   -418.8444405 -0.504551E-03  0.182E-02    0.00       1.0  T
   9   -418.8445299 -0.894529E-04  0.101E-02    0.00       1.0  T
  10   -418.8445299  0.233136E-07  0.967E-03    0.00       1.0  T
  11   -418.8445784 -0.484551E-04  0.337E-03    0.00       2.1  T
  12   -418.8445801 -0.170672E-05  0.233E-03    0.00       3.0  T
  13   -418.8445817 -0.165965E-05  0.134E-03    0.00       5.3  T
  14   -418.8445824 -0.638861E-06  0.839E-04    0.00       8.4  T
  15   -418.8445827 -0.330354E-06  0.287E-04    0.00      24.5  T
     SCC iter.                  ...        0 min,  2.224 sec
     gradient                   ...        0 min,  0.171 sec
 * total energy  :  -414.2146789 Eh     change       -0.2383438E-02 Eh
   gradient norm :     0.0143070 Eh/α   predicted    -0.2123681E-02 ( -10.90%)
   displ. norm   :     0.6774156 α      lambda       -0.2254751E-02
   maximum displ.:     0.2895426 α      in ANC's #36, #57, #9, ...

........................................................................
.............................. CYCLE   14 ..............................
........................................................................

 iter      E             dE          RMSdq      gap      omega  full diag
   1   -418.8452095 -0.418845E+03  0.949E-02    0.01       0.0  T
   2   -418.6877612  0.157448E+00  0.538E-01    0.16       1.0  T
   3   -418.7860139 -0.982528E-01  0.313E-01    0.03       1.0  T
   4   -418.8411618 -0.551479E-01  0.107E-01    0.01       1.0  T
   5   -418.8266034  0.145584E-01  0.191E-01    0.04       1.0  T
   6   -418.8407880 -0.141846E-01  0.992E-02    0.01       1.0  T
   7   -418.8461107 -0.532271E-02  0.307E-02    0.00       1.0  T
   8   -418.8464258 -0.315106E-03  0.162E-02    0.00       1.0  T
   9   -418.8465166 -0.908226E-04  0.747E-03    0.00       1.0  T
  10   -418.8465094  0.717358E-05  0.738E-03    0.00       1.0  T
  11   -418.8465375 -0.280408E-04  0.248E-03    0.00       2.8  T
  12   -418.8465384 -0.915013E-06  0.170E-03    0.00       4.1  T
  13   -418.8465391 -0.743969E-06  0.104E-03    0.00       6.8  T
  14   -418.8465397 -0.538966E-06  0.458E-04    0.00      15.4  T
  15   -418.8465397 -0.227507E-07  0.379E-04    0.00      18.6  T
     SCC iter.                  ...        0 min,  2.336 sec
     gradient                   ...        0 min,  0.171 sec
 * total energy  :  -414.2165432 Eh     change       -0.1864217E-02 Eh
   gradient norm :     0.0131761 Eh/α   predicted    -0.1644723E-02 ( -11.77%)
   displ. norm   :     0.6756143 α      lambda       -0.1853363E-02
   maximum displ.:     0.2841449 α      in ANC's #36, #57, #9, ...

........................................................................
.............................. CYCLE   15 ..............................
........................................................................

 iter      E             dE          RMSdq      gap      omega  full diag
   1   -418.8481877 -0.418848E+03  0.930E-02    0.01       0.0  T
   2   -418.6740368  0.174151E+00  0.563E-01    0.17       1.0  T
   3   -418.8060580 -0.132021E+00  0.266E-01    0.02       1.0  T
   4   -418.8424945 -0.364365E-01  0.117E-01    0.01       1.0  T
   5   -418.8076632  0.348312E-01  0.284E-01    0.06       1.0  T
   6   -418.8477066 -0.400433E-01  0.593E-02    0.00       1.0  T
   7   -418.8494644 -0.175786E-02  0.276E-02    0.00       1.0  T
   8   -418.8496713 -0.206883E-03  0.159E-02    0.00       1.0  T
   9   -418.8497720 -0.100676E-03  0.666E-03    0.00       1.1  T
  10   -418.8497783 -0.631531E-05  0.474E-03    0.00       1.5  T
  11   -418.8497881 -0.974374E-05  0.208E-03    0.00       3.4  T
  12   -418.8497894 -0.130827E-05  0.996E-04    0.00       7.1  T
  13   -418.8497894  0.451269E-08  0.811E-04    0.00       8.7  T
  14   -418.8497896 -0.268504E-06  0.483E-04    0.00      14.6  T
     SCC iter.                  ...        0 min,  2.164 sec
     gradient                   ...        0 min,  0.176 sec
 * total energy  :  -414.2180914 Eh     change       -0.1548221E-02 Eh
   gradient norm :     0.0131209 Eh/α   predicted    -0.1349690E-02 ( -12.82%)
   displ. norm   :     0.6963629 α      lambda       -0.1671278E-02
   maximum displ.:     0.2753820 α      in ANC's #36, #5, #9, ...

........................................................................
.............................. CYCLE   16 ..............................
........................................................................

 iter      E             dE          RMSdq      gap      omega  full diag
   1   -418.8493180 -0.418849E+03  0.930E-02    0.01       0.0  T
   2   -418.6669076  0.182410E+00  0.574E-01    0.17       1.0  T
   3   -418.8215783 -0.154671E+00  0.220E-01    0.01       1.0  T
   4   -418.8385711 -0.169927E-01  0.148E-01    0.01       1.0  T
   5   -418.7814096  0.571615E-01  0.369E-01    0.07       1.0  T
   6   -418.8499244 -0.685148E-01  0.473E-02    0.01       1.0  T
   7   -418.8509478 -0.102342E-02  0.238E-02    0.01       1.0  T
   8   -418.8511015 -0.153770E-03  0.114E-02    0.01       1.0  T
   9   -418.8511339 -0.323986E-04  0.777E-03    0.01       1.0  T
  10   -418.8511582 -0.242336E-04  0.331E-03    0.01       2.1  T
  11   -418.8511612 -0.304502E-05  0.206E-03    0.01       3.4  T
  12   -418.8511624 -0.120046E-05  0.110E-03    0.01       6.4  T
  13   -418.8511628 -0.347359E-06  0.693E-04    0.01      10.2  T
  14   -418.8511629 -0.160506E-06  0.461E-04    0.01      15.2  T
     SCC iter.                  ...        0 min,  2.201 sec
     gradient                   ...        0 min,  0.177 sec
 * total energy  :  -414.2194985 Eh     change       -0.1407135E-02 Eh
   gradient norm :     0.0140790 Eh/α   predicted    -0.1240861E-02 ( -11.82%)
   displ. norm   :     0.7130243 α      lambda       -0.1693433E-02
   maximum displ.:     0.2462313 α      in ANC's #36, #5, #9, ...

........................................................................
.............................. CYCLE   17 ..............................
........................................................................

 iter      E             dE          RMSdq      gap      omega  full diag
   1   -418.8546025 -0.418855E+03  0.945E-02    0.01       0.0  T
   2   -418.6662043  0.188398E+00  0.582E-01    0.17       1.0  T
   3   -418.8384351 -0.172231E+00  0.175E-01    0.01       1.0  T
   4   -418.8348852  0.354988E-02  0.192E-01    0.02       1.0  T
   5   -418.7806223  0.542629E-01  0.389E-01    0.08       1.0  T
   6   -418.8555749 -0.749527E-01  0.475E-02    0.01       1.0  T
   7   -418.8563036 -0.728615E-03  0.304E-02    0.01       1.0  T
   8   -418.8566296 -0.326051E-03  0.139E-02    0.01       1.0  T
   9   -418.8567069 -0.772535E-04  0.707E-03    0.01       1.0  T
  10   -418.8567241 -0.172511E-04  0.291E-03    0.01       2.4  T
  11   -418.8567236  0.504258E-06  0.272E-03    0.01       2.6  T
  12   -418.8567268 -0.321033E-05  0.121E-03    0.01       5.8  T
  13   -418.8567275 -0.680933E-06  0.504E-04    0.01      14.0  T
  14   -418.8567275 -0.431097E-07  0.315E-04    0.01      22.4  T
     SCC iter.                  ...        0 min,  2.095 sec
     gradient                   ...        0 min,  0.179 sec
 * total energy  :  -414.2208568 Eh     change       -0.1358266E-02 Eh
   gradient norm :     0.0147748 Eh/α   predicted    -0.1277202E-02 (  -5.97%)
   displ. norm   :     0.7155368 α      lambda       -0.1603397E-02
   maximum displ.:     0.2512362 α      in ANC's #5, #9, #36, ...

........................................................................
.............................. CYCLE   18 ..............................
........................................................................

 iter      E             dE          RMSdq      gap      omega  full diag
   1   -418.8544003 -0.418854E+03  0.895E-02    0.01       0.0  T
   2   -418.6671284  0.187272E+00  0.575E-01    0.16       1.0  T
   3   -418.8467307 -0.179602E+00  0.131E-01    0.01       1.0  T
   4   -418.8260025  0.207282E-01  0.228E-01    0.02       1.0  T
   5   -418.7534367  0.725658E-01  0.450E-01    0.09       1.0  T
   6   -418.8543553 -0.100919E+00  0.587E-02    0.01       1.0  T
   7   -418.8552287 -0.873406E-03  0.440E-02    0.01       1.0  T
   8   -418.8561097 -0.881068E-03  0.145E-02    0.01       1.0  T
   9   -418.8561723 -0.625263E-04  0.746E-03    0.01       1.0  T
  10   -418.8561910 -0.187405E-04  0.266E-03    0.01       2.6  T
  11   -418.8561849  0.608683E-05  0.390E-03    0.01       1.8  T
  12   -418.8561923 -0.734944E-05  0.156E-03    0.01       4.5  T
  13   -418.8561934 -0.110579E-05  0.673E-04    0.01      10.5  T
  14   -418.8561935 -0.126109E-06  0.334E-04    0.01      21.1  T
  15   -418.8561935 -0.333156E-07  0.147E-04    0.01      48.0  T
     SCC iter.                  ...        0 min,  2.229 sec
     gradient                   ...        0 min,  0.178 sec
 * total energy  :  -414.2221825 Eh     change       -0.1325689E-02 Eh
   gradient norm :     0.0137410 Eh/α   predicted    -0.1212170E-02 (  -8.56%)
   displ. norm   :     0.6951009 α      lambda       -0.1437900E-02
   maximum displ.:     0.2673937 α      in ANC's #5, #9, #6, ...

........................................................................
.............................. CYCLE   19 ..............................
........................................................................

 iter      E             dE          RMSdq      gap      omega  full diag
   1   -418.8564631 -0.418856E+03  0.807E-02    0.01       0.0  T
   2   -418.6799498  0.176513E+00  0.556E-01    0.16       1.0  T
   3   -418.8477644 -0.167815E+00  0.137E-01    0.01       1.0  T
   4   -418.8401884  0.757599E-02  0.181E-01    0.01       1.0  T
   5   -418.7543138  0.858747E-01  0.444E-01    0.10       1.0  T
   6   -418.8559938 -0.101680E+00  0.580E-02    0.01       1.0  T
   7   -418.8568042 -0.810460E-03  0.441E-02    0.01       1.0  T
   8   -418.8576618 -0.857547E-03  0.153E-02    0.01       1.0  T
   9   -418.8577390 -0.771971E-04  0.801E-03    0.01       1.0  T
  10   -418.8577635 -0.244980E-04  0.272E-03    0.01       2.6  T
  11   -418.8577596  0.387184E-05  0.356E-03    0.01       2.0  T
  12   -418.8577649 -0.531692E-05  0.160E-03    0.01       4.4  T
  13   -418.8577659 -0.102718E-05  0.812E-04    0.01       8.7  T
  14   -418.8577662 -0.254367E-06  0.304E-04    0.01      23.2  T
  15   -418.8577661  0.732772E-07  0.402E-04    0.01      17.5  T
     SCC iter.                  ...        0 min,  2.155 sec
     gradient                   ...        0 min,  0.179 sec
 * total energy  :  -414.2234181 Eh     change       -0.1235672E-02 Eh
   gradient norm :     0.0128308 Eh/α   predicted    -0.1066374E-02 ( -13.70%)
   displ. norm   :     0.7054889 α      lambda       -0.1399336E-02
   maximum displ.:     0.2906075 α      in ANC's #5, #6, #9, ...

........................................................................
.............................. CYCLE   20 ..............................
........................................................................

 iter      E             dE          RMSdq      gap      omega  full diag
   1   -418.8579714 -0.418858E+03  0.734E-02    0.01       0.0  T
   2   -418.7132247  0.144747E+00  0.505E-01    0.13       1.0  T
   3   -418.8441193 -0.130895E+00  0.165E-01    0.02       1.0  T
   4   -418.8457125 -0.159323E-02  0.158E-01    0.01       1.0  T
   5   -418.7590260  0.866865E-01  0.432E-01    0.09       1.0  T
   6   -418.8574841 -0.984581E-01  0.507E-02    0.01       1.0  T
   7   -418.8581949 -0.710769E-03  0.352E-02    0.01       1.0  T
   8   -418.8586334 -0.438521E-03  0.163E-02    0.01       1.0  T
   9   -418.8587278 -0.943843E-04  0.953E-03    0.01       1.0  T
  10   -418.8587745 -0.467062E-04  0.261E-03    0.01       2.7  T
  11   -418.8587744  0.580227E-07  0.212E-03    0.01       3.3  T
  12   -418.8587760 -0.159757E-05  0.108E-03    0.01       6.5  T
  13   -418.8587763 -0.231196E-06  0.745E-04    0.01       9.4  T
  14   -418.8587765 -0.200148E-06  0.475E-04    0.01      14.8  T
     SCC iter.                  ...        0 min,  2.161 sec
     gradient                   ...        0 min,  0.177 sec
 * total energy  :  -414.2246224 Eh     change       -0.1204280E-02 Eh
   gradient norm :     0.0123299 Eh/α   predicted    -0.1047908E-02 ( -12.98%)
   displ. norm   :     0.7206675 α      lambda       -0.1343941E-02
   maximum displ.:     0.3155871 α      in ANC's #5, #6, #9, ...
 * RMSD in coord.:     0.7299666 α      energy gain  -0.5567990E+00 Eh

generating ANC from model Hessian ...
Using Lindh-Hessian (1995)
 Shifting diagonal of input Hessian by    1.0084391298310005E-002
 Lowest  eigenvalues of input Hessian
    0.010000    0.010081    0.000000    0.000000    0.000000    0.000000
    0.000000    0.000000    0.010112    0.010171    0.010215    0.010244
    0.010274    0.010295    0.010364    0.010386    0.010437    0.010452
 Highest eigenvalues
    2.670176    2.673513    2.673852    2.674003    2.684180    2.687129


........................................................................
.............................. CYCLE   21 ..............................
........................................................................

 iter      E             dE          RMSdq      gap      omega  full diag
   1   -418.8590320 -0.418859E+03  0.685E-02    0.01       0.0  T
   2   -418.7794480  0.795840E-01  0.388E-01    0.08       1.0  T
   3   -418.8394743 -0.600263E-01  0.184E-01    0.02       1.0  T
   4   -418.8445857 -0.511144E-02  0.164E-01    0.02       1.0  T
   5   -418.7550967  0.894890E-01  0.446E-01    0.10       1.0  T
   6   -418.8589124 -0.103816E+00  0.352E-02    0.01       1.0  T
   7   -418.8589920 -0.795937E-04  0.317E-02    0.01       1.0  T
   8   -418.8593910 -0.398951E-03  0.118E-02    0.01       1.0  T
   9   -418.8594185 -0.275213E-04  0.853E-03    0.01       1.0  T
  10   -418.8594560 -0.374862E-04  0.295E-03    0.01       2.4  T
  11   -418.8594575 -0.152599E-05  0.190E-03    0.01       3.7  T
  12   -418.8594592 -0.164729E-05  0.101E-03    0.01       7.0  T
  13   -418.8594593 -0.803947E-07  0.766E-04    0.01       9.2  T
  14   -418.8594595 -0.251694E-06  0.283E-04    0.01      24.9  T
     SCC iter.                  ...        0 min,  2.050 sec
     gradient                   ...        0 min,  0.177 sec
 * total energy  :  -414.2257954 Eh     change       -0.1173015E-02 Eh
   gradient norm :     0.0127998 Eh/α   predicted     0.0000000E+00 (-100.00%)
   displ. norm   :     0.2145791 α      lambda       -0.8512794E-03
   maximum displ.:     0.0912526 α      in ANC's #7, #18, #40, ...

........................................................................
.............................. CYCLE   22 ..............................
........................................................................

 iter      E             dE          RMSdq      gap      omega  full diag
   1   -418.8614816 -0.418861E+03  0.296E-02    0.01       0.0  T
   2   -418.8424503  0.190313E-01  0.167E-01    0.01       1.0  T
   3   -418.8592998 -0.168495E-01  0.638E-02    0.01       1.0  T
   4   -418.8545603  0.473954E-02  0.119E-01    0.03       1.0  T
   5   -418.8586599 -0.409962E-02  0.776E-02    0.02       1.0  T
   6   -418.8610326 -0.237268E-02  0.340E-02    0.01       1.0  T
   7   -418.8614792 -0.446620E-03  0.114E-02    0.01       1.0  T
   8   -418.8615378 -0.586173E-04  0.367E-03    0.01       1.9  T
   9   -418.8615435 -0.567979E-05  0.193E-03    0.01       3.6  T
  10   -418.8615436 -0.965637E-07  0.148E-03    0.01       4.8  T
  11   -418.8615447 -0.106694E-05  0.653E-04    0.01      10.8  T
  12   -418.8615449 -0.199251E-06  0.241E-04    0.01      29.2  T
  13   -418.8615449 -0.694990E-08  0.172E-04    0.01      40.9  T
     SCC iter.                  ...        0 min,  1.917 sec
     gradient                   ...        0 min,  0.181 sec
 * total energy  :  -414.2265407 Eh     change       -0.7453183E-03 Eh
   gradient norm :     0.0076836 Eh/α   predicted    -0.4452486E-03 ( -40.26%)
   displ. norm   :     0.6239716 α      lambda       -0.1819262E-02
   maximum displ.:     0.2634577 α      in ANC's #7, #18, #23, ...

........................................................................
.............................. CYCLE   23 ..............................
........................................................................

 iter      E             dE          RMSdq      gap      omega  full diag
   1   -418.8630388 -0.418863E+03  0.750E-02    0.01       0.0  T
   2   -418.7988034  0.642354E-01  0.313E-01    0.03       1.0  T
   3   -418.8363002 -0.374968E-01  0.231E-01    0.03       1.0  T
   4   -418.8388211 -0.252087E-02  0.216E-01    0.05       1.0  T
   5   -418.8468328 -0.801165E-02  0.191E-01    0.03       1.0  T
   6   -418.8590961 -0.122633E-01  0.972E-02    0.01       1.0  T
   7   -418.8621060 -0.300995E-02  0.520E-02    0.01       1.0  T
   8   -418.8633821 -0.127608E-02  0.148E-02    0.01       1.0  T
   9   -418.8634652 -0.830908E-04  0.632E-03    0.01       1.1  T
  10   -418.8634738 -0.863450E-05  0.446E-03    0.01       1.6  T
  11   -418.8634763 -0.246219E-05  0.343E-03    0.01       2.1  T
  12   -418.8634824 -0.609699E-05  0.896E-04    0.01       7.9  T
  13   -418.8634823  0.122221E-06  0.911E-04    0.01       7.7  T
  14   -418.8634826 -0.367017E-06  0.330E-04    0.01      21.3  T
     SCC iter.                  ...        0 min,  2.029 sec
     gradient                   ...        0 min,  0.177 sec
 * total energy  :  -414.2279624 Eh     change       -0.1421661E-02 Eh
   gradient norm :     0.0078006 Eh/α   predicted    -0.1263959E-02 ( -11.09%)
   displ. norm   :     0.6507950 α      lambda       -0.1313946E-02
   maximum displ.:     0.2862602 α      in ANC's #7, #18, #23, ...

........................................................................
.............................. CYCLE   24 ..............................
........................................................................

 iter      E             dE          RMSdq      gap      omega  full diag
   1   -418.8631947 -0.418863E+03  0.683E-02    0.02       0.0  T
   2   -418.8099128  0.532819E-01  0.288E-01    0.03       1.0  T
   3   -418.8458991 -0.359863E-01  0.185E-01    0.03       1.0  T
   4   -418.8379324  0.796676E-02  0.222E-01    0.05       1.0  T
   5   -418.8510078 -0.130754E-01  0.158E-01    0.02       1.0  T
   6   -418.8576293 -0.662148E-02  0.109E-01    0.01       1.0  T
   7   -418.8628295 -0.520023E-02  0.369E-02    0.01       1.0  T
   8   -418.8634047 -0.575170E-03  0.145E-02    0.01       1.0  T
   9   -418.8634825 -0.778142E-04  0.595E-03    0.01       1.2  T
  10   -418.8634878 -0.529532E-05  0.479E-03    0.01       1.5  T
  11   -418.8634966 -0.884712E-05  0.249E-03    0.01       2.8  T
  12   -418.8634977 -0.108263E-05  0.177E-03    0.01       4.0  T
  13   -418.8634991 -0.136953E-05  0.752E-04    0.01       9.4  T
  14   -418.8634993 -0.253427E-06  0.298E-04    0.01      23.6  T
  15   -418.8634994 -0.221677E-07  0.193E-04    0.01      36.5  T
     SCC iter.                  ...        0 min,  2.426 sec
     gradient                   ...        0 min,  0.178 sec
 * total energy  :  -414.2291036 Eh     change       -0.1141146E-02 Eh
   gradient norm :     0.0125142 Eh/α   predicted    -0.9352309E-03 ( -18.04%)
   displ. norm   :     0.7395480 α      lambda       -0.1496169E-02
   maximum displ.:     0.3301059 α      in ANC's #7, #18, #23, ...

........................................................................
.............................. CYCLE   25 ..............................
........................................................................

 iter      E             dE          RMSdq      gap      omega  full diag
   1   -418.8634952 -0.418863E+03  0.719E-02    0.02       0.0  T
   2   -418.8183122  0.451830E-01  0.272E-01    0.04       1.0  T
   3   -418.8499341 -0.316219E-01  0.157E-01    0.02       1.0  T
   4   -418.8256167  0.243174E-01  0.276E-01    0.06       1.0  T
   5   -418.8465218 -0.209051E-01  0.172E-01    0.02       1.0  T
   6   -418.8562410 -0.971923E-02  0.122E-01    0.02       1.0  T
   7   -418.8634223 -0.718131E-02  0.254E-02    0.02       1.0  T
   8   -418.8635717 -0.149340E-03  0.169E-02    0.02       1.0  T
   9   -418.8636786 -0.106896E-03  0.710E-03    0.02       1.0  T
  10   -418.8636882 -0.962258E-05  0.543E-03    0.02       1.3  T
  11   -418.8637022 -0.140609E-04  0.192E-03    0.02       3.7  T
  12   -418.8637014  0.858293E-06  0.203E-03    0.02       3.5  T
  13   -418.8637032 -0.186239E-05  0.772E-04    0.02       9.1  T
  14   -418.8637035 -0.208980E-06  0.380E-04    0.02      18.5  T
  15   -418.8637035 -0.475107E-07  0.225E-04    0.02      31.2  T
     SCC iter.                  ...        0 min,  2.177 sec
     gradient                   ...        0 min,  0.177 sec
 * total energy  :  -414.2304965 Eh     change       -0.1392906E-02 Eh
   gradient norm :     0.0128868 Eh/α   predicted    -0.1157260E-02 ( -16.92%)
   displ. norm   :     0.8064509 α      lambda       -0.1853862E-02
   maximum displ.:     0.3658359 α      in ANC's #7, #18, #23, ...

........................................................................
.............................. CYCLE   26 ..............................
........................................................................

 iter      E             dE          RMSdq      gap      omega  full diag
   1   -418.8649794 -0.418865E+03  0.773E-02    0.02       0.0  T
   2   -418.8413621  0.236173E-01  0.212E-01    0.03       1.0  T
   3   -418.8461645 -0.480237E-02  0.177E-01    0.03       1.0  T
   4   -418.7273739  0.118791E+00  0.506E-01    0.10       1.0  T
   5   -418.8477001 -0.120326E+00  0.188E-01    0.03       1.0  T
   6   -418.8619037 -0.142036E-01  0.809E-02    0.02       1.0  T
   7   -418.8644036 -0.249989E-02  0.408E-02    0.02       1.0  T
   8   -418.8649143 -0.510735E-03  0.186E-02    0.02       1.0  T
   9   -418.8650490 -0.134685E-03  0.922E-03    0.02       1.0  T
  10   -418.8650923 -0.433322E-04  0.340E-03    0.02       2.1  T
  11   -418.8650937 -0.135337E-05  0.255E-03    0.02       2.8  T
  12   -418.8650961 -0.235693E-05  0.104E-03    0.02       6.7  T
  13   -418.8650959  0.170911E-06  0.106E-03    0.02       6.6  T
  14   -418.8650964 -0.548491E-06  0.351E-04    0.02      20.1  T
  15   -418.8650964  0.106955E-07  0.296E-04    0.02      23.7  T
     SCC iter.                  ...        0 min,  2.225 sec
     gradient                   ...        0 min,  0.178 sec
 * total energy  :  -414.2322006 Eh     change       -0.1704162E-02 Eh
   gradient norm :     0.0103213 Eh/α   predicted    -0.1529781E-02 ( -10.23%)
   displ. norm   :     0.8547797 α      lambda       -0.1881446E-02
   maximum displ.:     0.3939656 α      in ANC's #7, #18, #3, ...

........................................................................
.............................. CYCLE   27 ..............................
........................................................................

 iter      E             dE          RMSdq      gap      omega  full diag
   1   -418.8656927 -0.418866E+03  0.831E-02    0.02       0.0  T
   2   -418.8546470  0.110457E-01  0.167E-01    0.02       1.0  T
   3   -418.8522423  0.240463E-02  0.181E-01    0.03       1.0  T
   4   -418.8462945  0.594787E-02  0.187E-01    0.03       1.0  T
   5   -418.8482823 -0.198789E-02  0.166E-01    0.04       1.0  T
   6   -418.8557996 -0.751729E-02  0.129E-01    0.02       1.0  T
   7   -418.8640324 -0.823277E-02  0.577E-02    0.02       1.0  T
   8   -418.8657413 -0.170888E-02  0.130E-02    0.02       1.0  T
   9   -418.8657906 -0.492797E-04  0.888E-03    0.02       1.0  T
  10   -418.8658183 -0.277367E-04  0.445E-03    0.02       1.6  T
  11   -418.8658255 -0.723181E-05  0.263E-03    0.02       2.7  T
  12   -418.8658282 -0.265009E-05  0.108E-03    0.02       6.5  T
  13   -418.8658284 -0.224558E-06  0.716E-04    0.02       9.8  T
  14   -418.8658285 -0.804727E-07  0.490E-04    0.02      14.3  T
     SCC iter.                  ...        0 min,  2.207 sec
     gradient                   ...        0 min,  0.194 sec
 * total energy  :  -414.2339474 Eh     change       -0.1746808E-02 Eh
   gradient norm :     0.0110655 Eh/α   predicted    -0.1628085E-02 (  -6.80%)
   displ. norm   :     0.8688238 α      lambda       -0.1866997E-02
   maximum displ.:     0.4102663 α      in ANC's #7, #3, #18, ...

........................................................................
.............................. CYCLE   28 ..............................
........................................................................

 iter      E             dE          RMSdq      gap      omega  full diag
   1   -418.8668622 -0.418867E+03  0.837E-02    0.02       0.0  T
   2   -418.8534958  0.133664E-01  0.186E-01    0.02       1.0  T
   3   -418.8557896 -0.229382E-02  0.170E-01    0.02       1.0  T
   4   -418.8129038  0.428858E-01  0.290E-01    0.02       1.0  T
   5   -418.8455816 -0.326778E-01  0.180E-01    0.04       1.0  T
   6   -418.8548737 -0.929211E-02  0.156E-01    0.04       1.0  T
   7   -418.8664205 -0.115468E-01  0.338E-02    0.03       1.0  T
   8   -418.8669382 -0.517711E-03  0.145E-02    0.02       1.0  T
   9   -418.8670102 -0.719575E-04  0.741E-03    0.02       1.0  T
  10   -418.8670284 -0.182128E-04  0.373E-03    0.02       1.9  T
  11   -418.8670325 -0.415482E-05  0.184E-03    0.02       3.8  T
  12   -418.8670333 -0.784857E-06  0.976E-04    0.02       7.2  T
  13   -418.8670335 -0.183679E-06  0.636E-04    0.02      11.1  T
     SCC iter.                  ...        0 min,  2.179 sec
     gradient                   ...        0 min,  0.179 sec
 * total energy  :  -414.2357009 Eh     change       -0.1753499E-02 Eh
   gradient norm :     0.0120167 Eh/α   predicted    -0.1638171E-02 (  -6.58%)
   displ. norm   :     0.8715578 α      lambda       -0.1889522E-02
   maximum displ.:     0.4244667 α      in ANC's #7, #3, #18, ...

........................................................................
.............................. CYCLE   29 ..............................
........................................................................

 iter      E             dE          RMSdq      gap      omega  full diag
   1   -418.8691071 -0.418869E+03  0.823E-02    0.03       0.0  T
   2   -418.8519281  0.171790E-01  0.205E-01    0.02       1.0  T
   3   -418.8575472 -0.561910E-02  0.156E-01    0.03       1.0  T
   4   -418.7529466  0.104601E+00  0.438E-01    0.05       1.0  T
   5   -418.8536615 -0.100715E+00  0.180E-01    0.04       1.0  T
   6   -418.8574886 -0.382705E-02  0.145E-01    0.04       1.0  T
   7   -418.8689041 -0.114155E-01  0.276E-02    0.03       1.0  T
   8   -418.8691626 -0.258534E-03  0.159E-02    0.03       1.0  T
   9   -418.8692154 -0.527711E-04  0.104E-02    0.03       1.0  T
  10   -418.8692713 -0.558596E-04  0.341E-03    0.03       2.1  T
  11   -418.8692733 -0.205428E-05  0.238E-03    0.03       3.0  T
  12   -418.8692752 -0.189985E-05  0.105E-03    0.03       6.7  T
  13   -418.8692754 -0.157753E-06  0.716E-04    0.03       9.8  T
  14   -418.8692756 -0.237061E-06  0.296E-04    0.03      23.8  T
     SCC iter.                  ...        0 min,  2.086 sec
     gradient                   ...        0 min,  0.171 sec
 * total energy  :  -414.2374735 Eh     change       -0.1772557E-02 Eh
   gradient norm :     0.0107853 Eh/α   predicted    -0.1662414E-02 (  -6.21%)
   displ. norm   :     0.8789218 α      lambda       -0.1869800E-02
   maximum displ.:     0.4417226 α      in ANC's #7, #3, #18, ...

........................................................................
.............................. CYCLE   30 ..............................
........................................................................

 iter      E             dE          RMSdq      gap      omega  full diag
   1   -418.8712670 -0.418871E+03  0.806E-02    0.03       0.0  T
   2   -418.8387493  0.325177E-01  0.252E-01    0.03       1.0  T
   3   -418.8535147 -0.147654E-01  0.170E-01    0.05       1.0  T
   4   -418.7543443  0.991704E-01  0.466E-01    0.08       1.0  T
   5   -418.8258919 -0.715476E-01  0.306E-01    0.07       1.0  T
   6   -418.8683146 -0.424228E-01  0.786E-02    0.04       1.0  T
   7   -418.8707917 -0.247704E-02  0.394E-02    0.03       1.0  T
   8   -418.8711818 -0.390117E-03  0.213E-02    0.03       1.0  T
   9   -418.8713454 -0.163546E-03  0.112E-02    0.03       1.0  T
  10   -418.8714152 -0.698152E-04  0.370E-03    0.03       1.9  T
  11   -418.8714190 -0.387375E-05  0.204E-03    0.03       3.4  T
  12   -418.8714193 -0.300055E-06  0.144E-03    0.03       4.9  T
  13   -418.8714201 -0.795106E-06  0.595E-04    0.03      11.8  T
  14   -418.8714202 -0.629930E-07  0.386E-04    0.03      18.2  T
     SCC iter.                  ...        0 min,  2.037 sec
     gradient                   ...        0 min,  0.178 sec
 * total energy  :  -414.2392245 Eh     change       -0.1750974E-02 Eh
   gradient norm :     0.0089987 Eh/α   predicted    -0.1657118E-02 (  -5.36%)
   displ. norm   :     0.8819019 α      lambda       -0.1803025E-02
   maximum displ.:     0.4575898 α      in ANC's #7, #3, #18, ...

........................................................................
.............................. CYCLE   31 ..............................
........................................................................

 iter      E             dE          RMSdq      gap      omega  full diag
   1   -418.8739157 -0.418874E+03  0.785E-02    0.04       0.0  T
   2   -418.8252487  0.486670E-01  0.292E-01    0.04       1.0  T
   3   -418.8611387 -0.358900E-01  0.148E-01    0.05       1.0  T
   4   -418.7614585  0.996802E-01  0.464E-01    0.09       1.0  T
   5   -418.8292222 -0.677637E-01  0.291E-01    0.07       1.0  T
   6   -418.8710730 -0.418508E-01  0.852E-02    0.04       1.0  T
   7   -418.8736434 -0.257040E-02  0.329E-02    0.04       1.0  T
   8   -418.8739844 -0.341059E-03  0.166E-02    0.04       1.0  T
   9   -418.8740581 -0.736866E-04  0.102E-02    0.04       1.0  T
  10   -418.8741002 -0.420583E-04  0.414E-03    0.03       1.7  T
  11   -418.8741058 -0.565249E-05  0.234E-03    0.03       3.0  T
  12   -418.8741066 -0.731233E-06  0.152E-03    0.04       4.6  T
  13   -418.8741076 -0.102891E-05  0.717E-04    0.03       9.8  T
  14   -418.8741078 -0.157587E-06  0.403E-04    0.03      17.5  T
  15   -418.8741078 -0.359058E-07  0.224E-04    0.03      31.4  T
     SCC iter.                  ...        0 min,  2.235 sec
     gradient                   ...        0 min,  0.178 sec
 * total energy  :  -414.2409150 Eh     change       -0.1690493E-02 Eh
   gradient norm :     0.0085316 Eh/α   predicted    -0.1602665E-02 (  -5.20%)
   displ. norm   :     0.8915342 α      lambda       -0.1729431E-02
   maximum displ.:     0.4693195 α      in ANC's #7, #3, #18, ...

........................................................................
.............................. CYCLE   32 ..............................
........................................................................

 iter      E             dE          RMSdq      gap      omega  full diag
   1   -418.8743845 -0.418874E+03  0.782E-02    0.04       0.0  T
   2   -418.8320139  0.423706E-01  0.269E-01    0.03       1.0  T
   3   -418.8601607 -0.281469E-01  0.159E-01    0.06       1.0  T
   4   -418.8250722  0.350886E-01  0.317E-01    0.05       1.0  T
   5   -418.8199574  0.511480E-02  0.318E-01    0.07       1.0  T
   6   -418.8723237 -0.523664E-01  0.760E-02    0.04       1.0  T
   7   -418.8743903 -0.206653E-02  0.231E-02    0.04       1.0  T
   8   -418.8744085 -0.182400E-04  0.195E-02    0.04       1.0  T
   9   -418.8745508 -0.142309E-03  0.965E-03    0.04       1.0  T
  10   -418.8745891 -0.383150E-04  0.420E-03    0.04       1.7  T
  11   -418.8745927 -0.354072E-05  0.292E-03    0.04       2.4  T
  12   -418.8745939 -0.124275E-05  0.213E-03    0.04       3.3  T
  13   -418.8745962 -0.226059E-05  0.836E-04    0.04       8.4  T
  14   -418.8745963 -0.137811E-06  0.513E-04    0.04      13.7  T
  15   -418.8745964 -0.116898E-06  0.183E-04    0.04      38.5  T
     SCC iter.                  ...        0 min,  2.189 sec
     gradient                   ...        0 min,  0.177 sec
 * total energy  :  -414.2425451 Eh     change       -0.1630142E-02 Eh
   gradient norm :     0.0091250 Eh/α   predicted    -0.1552020E-02 (  -4.79%)
   displ. norm   :     0.8711696 α      lambda       -0.1740674E-02
   maximum displ.:     0.4840722 α      in ANC's #7, #3, #5, ...

........................................................................
.............................. CYCLE   33 ..............................
........................................................................

 iter      E             dE          RMSdq      gap      omega  full diag
   1   -418.8843225 -0.418884E+03  0.738E-02    0.04       0.0  T
   2   -418.8661846  0.181379E-01  0.180E-01    0.02       1.0  T
   3   -418.8650010  0.118361E-02  0.178E-01    0.06       1.0  T
   4   -418.7999743  0.650267E-01  0.395E-01    0.07       1.0  T
   5   -418.8727772 -0.728029E-01  0.160E-01    0.04       1.0  T
   6   -418.8725831  0.194135E-03  0.159E-01    0.05       1.0  T
   7   -418.8840501 -0.114670E-01  0.323E-02    0.04       1.0  T
   8   -418.8842431 -0.192996E-03  0.231E-02    0.04       1.0  T
   9   -418.8844534 -0.210291E-03  0.838E-03    0.04       1.0  T
  10   -418.8844815 -0.280769E-04  0.382E-03    0.04       1.8  T
  11   -418.8844848 -0.328354E-05  0.239E-03    0.04       2.9  T
  12   -418.8844852 -0.446808E-06  0.179E-03    0.04       3.9  T
  13   -418.8844869 -0.163998E-05  0.611E-04    0.04      11.5  T
  14   -418.8844868  0.333158E-07  0.544E-04    0.04      12.9  T
  15   -418.8844870 -0.138229E-06  0.164E-04    0.04      42.8  T
     SCC iter.                  ...        0 min,  2.360 sec
     gradient                   ...        0 min,  0.176 sec
 * total energy  :  -414.2440341 Eh     change       -0.1488955E-02 Eh
   gradient norm :     0.0122463 Eh/α   predicted    -0.1530871E-02 (   2.82%)
   displ. norm   :     0.8658737 α      lambda       -0.1726345E-02
   maximum displ.:     0.4639294 α      in ANC's #7, #3, #14, ...

........................................................................
.............................. CYCLE   34 ..............................
........................................................................

 iter      E             dE          RMSdq      gap      omega  full diag
   1   -418.8791245 -0.418879E+03  0.779E-02    0.05       0.0  T
   2   -418.8610517  0.180729E-01  0.174E-01    0.02       1.0  T
   3   -418.8492484  0.118033E-01  0.214E-01    0.08       1.0  T
   4   -418.7896084  0.596399E-01  0.421E-01    0.08       1.0  T
   5   -418.8722730 -0.826645E-01  0.128E-01    0.04       1.0  T
   6   -418.8663052  0.596774E-02  0.166E-01    0.06       1.0  T
   7   -418.8784547 -0.121495E-01  0.436E-02    0.05       1.0  T
   8   -418.8788956 -0.440893E-03  0.286E-02    0.05       1.0  T
   9   -418.8792577 -0.362058E-03  0.705E-03    0.04       1.0  T
  10   -418.8792676 -0.996661E-05  0.466E-03    0.04       1.5  T
  11   -418.8792772 -0.952221E-05  0.231E-03    0.04       3.1  T
  12   -418.8792785 -0.132275E-05  0.143E-03    0.04       4.9  T
  13   -418.8792795 -0.100088E-05  0.552E-04    0.04      12.7  T
  14   -418.8792795 -0.479550E-07  0.398E-04    0.04      17.7  T
  15   -418.8792796 -0.319304E-07  0.286E-04    0.04      24.6  T
     SCC iter.                  ...        0 min,  2.280 sec
     gradient                   ...        0 min,  0.177 sec
 * total energy  :  -414.2455244 Eh     change       -0.1490375E-02 Eh
   gradient norm :     0.0082429 Eh/α   predicted    -0.1510351E-02 (   1.34%)
   displ. norm   :     0.8256777 α      lambda       -0.1401180E-02
   maximum displ.:     0.4684852 α      in ANC's #7, #3, #5, ...

........................................................................
.............................. CYCLE   35 ..............................
........................................................................

 iter      E             dE          RMSdq      gap      omega  full diag
   1   -418.8808873 -0.418881E+03  0.680E-02    0.05       0.0  T
   2   -418.8784295  0.245783E-02  0.735E-02    0.03       1.0  T
   3   -418.8277902  0.506393E-01  0.282E-01    0.10       1.0  T
   4   -418.8500797 -0.222894E-01  0.260E-01    0.04       1.0  T
   5   -418.8742502 -0.241705E-01  0.122E-01    0.04       1.0  T
   6   -418.8767923 -0.254210E-02  0.936E-02    0.04       1.0  T
   7   -418.8795557 -0.276335E-02  0.518E-02    0.05       1.0  T
   8   -418.8806923 -0.113664E-02  0.223E-02    0.05       1.0  T
   9   -418.8809511 -0.258736E-03  0.636E-03    0.04       1.1  T
  10   -418.8809343  0.167736E-04  0.720E-03    0.04       1.0  T
  11   -418.8809626 -0.283072E-04  0.253E-03    0.05       2.8  T
  12   -418.8809646 -0.202126E-05  0.151E-03    0.04       4.7  T
  13   -418.8809657 -0.105427E-05  0.635E-04    0.04      11.1  T
  14   -418.8809658 -0.161854E-06  0.322E-04    0.04      21.9  T
  15   -418.8809658 -0.355112E-08  0.252E-04    0.04      27.9  T
     SCC iter.                  ...        0 min,  2.219 sec
     gradient                   ...        0 min,  0.179 sec
 * total energy  :  -414.2468193 Eh     change       -0.1294876E-02 Eh
   gradient norm :     0.0074751 Eh/α   predicted    -0.1178217E-02 (  -9.01%)
   displ. norm   :     0.8004668 α      lambda       -0.1371105E-02
   maximum displ.:     0.4668883 α      in ANC's #7, #3, #5, ...

........................................................................
.............................. CYCLE   36 ..............................
........................................................................

 iter      E             dE          RMSdq      gap      omega  full diag
   1   -418.8858734 -0.418886E+03  0.656E-02    0.05       0.0  T
   2   -418.8843171  0.155629E-02  0.687E-02    0.05       1.0  T
   3   -418.8534458  0.308713E-01  0.260E-01    0.02       1.0  T
   4   -418.8616461 -0.820033E-02  0.203E-01    0.08       1.0  T
   5   -418.8659674 -0.432130E-02  0.180E-01    0.03       1.0  T
   6   -418.8756587 -0.969126E-02  0.141E-01    0.06       1.0  T
   7   -418.8856593 -0.100006E-01  0.243E-02    0.04       1.0  T
   8   -418.8858763 -0.217017E-03  0.123E-02    0.05       1.0  T
   9   -418.8859176 -0.413610E-04  0.751E-03    0.05       1.0  T
  10   -418.8859431 -0.254732E-04  0.331E-03    0.05       2.1  T
  11   -418.8859489 -0.580378E-05  0.108E-03    0.05       6.5  T
  12   -418.8859488  0.638185E-07  0.855E-04    0.05       8.2  T
  13   -418.8859492 -0.309378E-06  0.447E-04    0.05      15.8  T
     SCC iter.                  ...        0 min,  1.873 sec
     gradient                   ...        0 min,  0.177 sec
 * total energy  :  -414.2480659 Eh     change       -0.1246624E-02 Eh
   gradient norm :     0.0062747 Eh/α   predicted    -0.1124824E-02 (  -9.77%)
   displ. norm   :     0.8109914 α      lambda       -0.1275910E-02
   maximum displ.:     0.4742691 α      in ANC's #7, #3, #5, ...

........................................................................
.............................. CYCLE   37 ..............................
........................................................................

 iter      E             dE          RMSdq      gap      omega  full diag
   1   -418.8887138 -0.418889E+03  0.697E-02    0.05       0.0  T
   2   -418.8839831  0.473070E-02  0.108E-01    0.05       1.0  T
   3   -418.8737554  0.102277E-01  0.185E-01    0.04       1.0  T
   4   -418.8794086 -0.565320E-02  0.133E-01    0.07       1.0  T
   5   -418.8485653  0.308433E-01  0.252E-01    0.02       1.0  T
   6   -418.8830005 -0.344352E-01  0.103E-01    0.06       1.0  T
   7   -418.8885149 -0.551438E-02  0.242E-02    0.04       1.0  T
   8   -418.8887090 -0.194102E-03  0.141E-02    0.05       1.0  T
   9   -418.8887757 -0.667327E-04  0.782E-03    0.05       1.0  T
  10   -418.8887973 -0.215475E-04  0.345E-03    0.05       2.0  T
  11   -418.8888029 -0.568125E-05  0.166E-03    0.05       4.2  T
  12   -418.8888037 -0.753857E-06  0.106E-03    0.05       6.6  T
  13   -418.8888042 -0.532356E-06  0.423E-04    0.05      16.6  T
  14   -418.8888042  0.159353E-07  0.356E-04    0.05      19.8  T
     SCC iter.                  ...        0 min,  2.094 sec
     gradient                   ...        0 min,  0.170 sec
 * total energy  :  -414.2492257 Eh     change       -0.1159762E-02 Eh
   gradient norm :     0.0064479 Eh/α   predicted    -0.1057561E-02 (  -8.81%)
   displ. norm   :     0.8114080 α      lambda       -0.1188954E-02
   maximum displ.:     0.4690888 α      in ANC's #7, #3, #5, ...

........................................................................
.............................. CYCLE   38 ..............................
........................................................................

 iter      E             dE          RMSdq      gap      omega  full diag
   1   -418.8913273 -0.418891E+03  0.727E-02    0.05       0.0  T
   2   -418.8847725  0.655477E-02  0.127E-01    0.05       1.0  T
   3   -418.8759984  0.877413E-02  0.188E-01    0.03       1.0  T
   4   -418.8484899  0.275085E-01  0.273E-01    0.11       1.0  T
   5   -418.8746041 -0.261142E-01  0.160E-01    0.02       1.0  T
   6   -418.8813655 -0.676137E-02  0.131E-01    0.07       1.0  T
   7   -418.8911355 -0.977008E-02  0.241E-02    0.05       1.0  T
   8   -418.8912649 -0.129394E-03  0.166E-02    0.05       1.0  T
   9   -418.8913970 -0.132092E-03  0.723E-03    0.05       1.0  T
  10   -418.8914125 -0.154572E-04  0.404E-03    0.05       1.7  T
  11   -418.8914218 -0.930518E-05  0.152E-03    0.05       4.6  T
  12   -418.8914221 -0.294367E-06  0.120E-03    0.05       5.9  T
  13   -418.8914228 -0.699745E-06  0.521E-04    0.05      13.5  T
  14   -418.8914228  0.380771E-08  0.386E-04    0.05      18.2  T
     SCC iter.                  ...        0 min,  2.058 sec
     gradient                   ...        0 min,  0.174 sec
 * total energy  :  -414.2503093 Eh     change       -0.1083616E-02 Eh
   gradient norm :     0.0074422 Eh/α   predicted    -0.9858705E-03 (  -9.02%)
   displ. norm   :     0.8144689 α      lambda       -0.1149806E-02
[...]
   153  16 S    3.919 --   164 O    1.813   165 O    1.063   143 C    0.903
   154   5 B    3.301 --   149 O    0.805   150 O    0.797   123 O    0.783
                           124 O    0.762
   155   8 O    2.027 --   127 S    1.846
   156   8 O    2.158 --   127 S    1.036   157 C    0.979
   157   6 C    3.935 --   156 O    0.979   189 H    0.978   188 H    0.975
                           190 H    0.971
   158   8 O    2.202 --   159 C    0.965   126 S    0.946   151 S    0.149
   159   6 C    3.915 --   185 H    0.979   186 H    0.968   158 O    0.965
                           187 H    0.962
   160   8 O    2.041 --   126 S    1.858
   161   8 O    1.965 --   151 S    1.737
   162   8 O    2.164 --   151 S    1.053   163 C    0.974
   163   6 C    3.932 --   183 H    0.978   182 H    0.975   162 O    0.974
                           184 H    0.972
   164   8 O    2.005 --   153 S    1.813
   165   8 O    2.180 --   153 S    1.063   166 C    0.973
   166   6 C    3.930 --   175 H    0.979   173 H    0.974   165 O    0.973
                           174 H    0.971
   167   8 O    2.045 --   152 S    1.844
   168   8 O    2.135 --   152 S    1.017   169 C    0.968
   169   6 C    3.924 --   176 H    0.979   177 H    0.972   178 H    0.970
                           168 O    0.968
   170   8 O    2.041 --   125 S    1.853
   171   8 O    2.179 --   125 S    0.998   172 C    0.962
   172   6 C    3.913 --   179 H    0.980   181 H    0.965   180 H    0.965
                           171 O    0.962
   173   1 H    0.995 --   166 C    0.974
   174   1 H    0.996 --   166 C    0.971
   175   1 H    0.999 --   166 C    0.979
   176   1 H    0.997 --   169 C    0.979
   177   1 H    0.995 --   169 C    0.972
   178   1 H    0.993 --   169 C    0.970
   179   1 H    0.998 --   172 C    0.980
   180   1 H    0.992 --   172 C    0.965
   181   1 H    0.994 --   172 C    0.965
   182   1 H    0.995 --   163 C    0.975
   183   1 H    0.998 --   163 C    0.978
   184   1 H    0.996 --   163 C    0.972
   185   1 H    0.998 --   159 C    0.979
   186   1 H    0.994 --   159 C    0.968
   187   1 H    0.991 --   159 C    0.962
   188   1 H    0.996 --   157 C    0.975
   189   1 H    0.999 --   157 C    0.978
   190   1 H    0.996 --   157 C    0.971
   191   1 H    0.991 --   142 C    0.956
   192   1 H    0.995 --   144 C    0.962
   193   1 H    0.991 --   148 C    0.956
   194   1 H    0.994 --   132 C    0.959
   195   1 H    0.995 --   146 C    0.952
   196   1 H    0.994 --   128 C    0.959
   197   1 H    0.995 --   102 C    0.958
   198   1 H    0.995 --   120 C    0.958
   199   1 H    0.993 --   122 C    0.959
   200   1 H    0.991 --   106 C    0.959
   201   1 H    0.989 --   118 C    0.955
   202   1 H    0.993 --   116 C    0.962
 ---------------------------------------------------------------------------

Topologies differ in bond orders
Writing corrected topology to xtbtopo.mol

molecular dipole:
                 x           y           z       tot (Debye)
 q only:       -0.304      -2.949       0.755
   full:       -0.839      -2.104       0.809       6.114
molecular quadrupole (traceless):
                xx          xy          yy          xz          yz          zz
 q only:      -36.921      38.005      23.039       9.189       5.157      13.883
  q+dip:      -44.415      62.237      16.824     -12.501      -6.206      27.591
   full:      -51.794      67.512       3.559     -28.706      -9.561      48.234

           -------------------------------------------------
          |                Geometry Summary                 |
           -------------------------------------------------

      molecular mass/u    :     2147.8552923
   center of mass at/Å    :       -1.0502239       0.5461882       3.3294472
  moments of inertia/u·Å² :        0.3820603E+05   0.6592363E+05   0.8387138E+05
rotational constants/cm⁻¹ :        0.4412296E-03   0.2557146E-03   0.2009939E-03

 * 184 selected distances

     #   Z          #   Z                                           value/Å
     1   6 C        2   6 C                                       1.3968138
     2   6 C        3   6 C                                       1.4223668
     4   6 C        5   6 C                                       1.4203010
     1   6 C        6   6 C                                       1.3898463
     5   6 C        6   6 C                                       1.3594618
     7   6 C        8   6 C                                       1.4166836
     8   6 C        9   6 C                                       1.4210793
     4   6 C       10   7 N                                       1.3236375
     9   6 C       10   7 N                                       1.3294797
    12   6 C       13   7 N                                       1.3265643
     8   6 C       14   6 C                                       1.4226246
    13   7 N       14   6 C                                       1.3263974
    14   6 C       15   6 C                                       1.4092322
    15   6 C       16   6 C                                       1.3821204
     9   6 C       17   6 C                                       1.4118931
    16   6 C       17   6 C                                       1.3794048
    11   6 C       18   6 C                                       1.4200159
    18   6 C       19   6 C                                       1.4006927
    19   6 C       20   6 C                                       1.3880196
    12   6 C       21   6 C                                       1.4169695
    20   6 C       21   6 C                                       1.3642132
     2   6 C       22   8 O                                       1.3297214
    18   6 C       23   8 O                                       1.3327866
    27   6 C       28   6 C                                       1.3998456
    28   6 C       29   6 C                                       1.4262308
    30   6 C       31   6 C                                       1.4157200
    27   6 C       32   6 C                                       1.3872620
    31   6 C       32   6 C                                       1.3603438
    33   6 C       34   6 C                                       1.4180379
    34   6 C       35   6 C                                       1.4237917
    30   6 C       36   7 N                                       1.3262347
    35   6 C       36   7 N                                       1.3269452
    38   6 C       39   7 N                                       1.3231738
    34   6 C       40   6 C                                       1.4264617
    39   7 N       40   6 C                                       1.3263246
    40   6 C       41   6 C                                       1.4091139
    41   6 C       42   6 C                                       1.3781176
    35   6 C       43   6 C                                       1.4125574
    42   6 C       43   6 C                                       1.3768673
    37   6 C       44   6 C                                       1.4193218
    44   6 C       45   6 C                                       1.3989615
    45   6 C       46   6 C                                       1.3889603
    38   6 C       47   6 C                                       1.4175141
    46   6 C       47   6 C                                       1.3619816
    28   6 C       48   8 O                                       1.3326414
    44   6 C       49   8 O                                       1.3344369
    22   8 O       53   5 B                                       1.4483703
    23   8 O       53   5 B                                       1.4623971
    48   8 O       53   5 B                                       1.4771281
    49   8 O       53   5 B                                       1.4609895
    26  16 S       54   8 O                                       1.4452601
    55   8 O       56   6 C                                       1.4124111
    57   8 O       58   6 C                                       1.4068404
    25  16 S       59   8 O                                       1.4512391
    50  16 S       60   8 O                                       1.4637421
    61   8 O       62   6 C                                       1.4098343
    52  16 S       63   8 O                                       1.4464604
    64   8 O       65   6 C                                       1.4112803
    51  16 S       66   8 O                                       1.4455733
    67   8 O       68   6 C                                       1.4062450
    24  16 S       69   8 O                                       1.4508876
    70   8 O       71   6 C                                       1.4015127
    65   6 C       72   1 H                                       1.0885860
    65   6 C       73   1 H                                       1.0942782
    65   6 C       74   1 H                                       1.0917142
    68   6 C       75   1 H                                       1.0887049
    68   6 C       76   1 H                                       1.0949162
    68   6 C       77   1 H                                       1.0924199
    71   6 C       78   1 H                                       1.0903655
    71   6 C       79   1 H                                       1.0947681
    71   6 C       80   1 H                                       1.0948003
    62   6 C       81   1 H                                       1.0895231
    62   6 C       82   1 H                                       1.0941852
    62   6 C       83   1 H                                       1.0937116
    58   6 C       84   1 H                                       1.0932208
    58   6 C       85   1 H                                       1.0940834
    58   6 C       86   1 H                                       1.0903686
    56   6 C       87   1 H                                       1.0881170
    56   6 C       88   1 H                                       1.0923542
    56   6 C       89   1 H                                       1.0938041
    41   6 C       90   1 H                                       1.0796023
    43   6 C       91   1 H                                       1.0784474
    47   6 C       92   1 H                                       1.0773850
    31   6 C       93   1 H                                       1.0775101
    45   6 C       94   1 H                                       1.0779618
    27   6 C       95   1 H                                       1.0787204
     1   6 C       96   1 H                                       1.0769112
    19   6 C       97   1 H                                       1.0786999
    21   6 C       98   1 H                                       1.0771747
     5   6 C       99   1 H                                       1.0779510
    17   6 C      100   1 H                                       1.0785711
    15   6 C      101   1 H                                       1.0785847
   102   6 C      103   6 C                                       1.3914321
   103   6 C      104   6 C                                       1.4112847
   105   6 C      106   6 C                                       1.4169471
   102   6 C      107   6 C                                       1.3907742
   106   6 C      107   6 C                                       1.3649685
   108   6 C      109   6 C                                       1.4128596
   109   6 C      110   6 C                                       1.4273469
   105   6 C      111   7 N                                       1.3274037
   110   6 C      111   7 N                                       1.3257156
   113   6 C      114   7 N                                       1.3273020
   109   6 C      115   6 C                                       1.4230147
   114   7 N      115   6 C                                       1.3292153
   115   6 C      116   6 C                                       1.4098848
   116   6 C      117   6 C                                       1.3793333
   110   6 C      118   6 C                                       1.4133013
   117   6 C      118   6 C                                       1.3755448
   112   6 C      119   6 C                                       1.4246277
   119   6 C      120   6 C                                       1.4031719
   120   6 C      121   6 C                                       1.3880171
   113   6 C      122   6 C                                       1.4175530
   121   6 C      122   6 C                                       1.3640013
   103   6 C      123   8 O                                       1.3339994
   119   6 C      124   8 O                                       1.3320521
   128   6 C      129   6 C                                       1.3941366
   129   6 C      130   6 C                                       1.4186788
   131   6 C      132   6 C                                       1.4168412
   128   6 C      133   6 C                                       1.3858918
   132   6 C      133   6 C                                       1.3607363
   134   6 C      135   6 C                                       1.4196825
   135   6 C      136   6 C                                       1.4250560
   131   6 C      137   7 N                                       1.3294711
   136   6 C      137   7 N                                       1.3257472
   139   6 C      140   7 N                                       1.3263861
   135   6 C      141   6 C                                       1.4227769
   140   7 N      141   6 C                                       1.3237050
   141   6 C      142   6 C                                       1.4124921
   142   6 C      143   6 C                                       1.3747063
   136   6 C      144   6 C                                       1.4122685
   143   6 C      144   6 C                                       1.3780421
   138   6 C      145   6 C                                       1.4322415
   145   6 C      146   6 C                                       1.4019801
   146   6 C      147   6 C                                       1.3846265
   139   6 C      148   6 C                                       1.4175482
   147   6 C      148   6 C                                       1.3618976
   129   6 C      149   8 O                                       1.3339617
   145   6 C      150   8 O                                       1.3241700
   123   8 O      154   5 B                                       1.4677694
   124   8 O      154   5 B                                       1.4817391 (max)
   149   8 O      154   5 B                                       1.4501265
   150   8 O      154   5 B                                       1.4494305
   127  16 S      155   8 O                                       1.4464313
   156   8 O      157   6 C                                       1.4041183
   158   8 O      159   6 C                                       1.4113896
   126  16 S      160   8 O                                       1.4501225
   151  16 S      161   8 O                                       1.4603346
   162   8 O      163   6 C                                       1.4064104
   153  16 S      164   8 O                                       1.4530178
   165   8 O      166   6 C                                       1.4057880
   152  16 S      167   8 O                                       1.4476307
   168   8 O      169   6 C                                       1.4114054
   125  16 S      170   8 O                                       1.4499609
   171   8 O      172   6 C                                       1.4118524
   166   6 C      173   1 H                                       1.0887415
   166   6 C      174   1 H                                       1.0944987
   166   6 C      175   1 H                                       1.0942025
   169   6 C      176   1 H                                       1.0936094
   169   6 C      177   1 H                                       1.0937849
Note: The following floating-point exceptions are signalling: IEEE_UNDERFLOW_FLAG
normal termination of xtb
   169   6 C      178   1 H                                       1.0884790
   172   6 C      179   1 H                                       1.0922133
   172   6 C      180   1 H                                       1.0882324
   172   6 C      181   1 H                                       1.0936889
   163   6 C      182   1 H                                       1.0895771
   163   6 C      183   1 H                                       1.0944089
   163   6 C      184   1 H                                       1.0937954
   159   6 C      185   1 H                                       1.0942662
   159   6 C      186   1 H                                       1.0931801
   159   6 C      187   1 H                                       1.0913365
   157   6 C      188   1 H                                       1.0891838
   157   6 C      189   1 H                                       1.0947658
   157   6 C      190   1 H                                       1.0945655
   142   6 C      191   1 H                                       1.0795313
   144   6 C      192   1 H                                       1.0788241
   148   6 C      193   1 H                                       1.0773750
   132   6 C      194   1 H                                       1.0761270 (min)
   146   6 C      195   1 H                                       1.0762031
   128   6 C      196   1 H                                       1.0797098
   102   6 C      197   1 H                                       1.0785811
   120   6 C      198   1 H                                       1.0778389
   122   6 C      199   1 H                                       1.0776971
   106   6 C      200   1 H                                       1.0772247
   118   6 C      201   1 H                                       1.0796804
   116   6 C      202   1 H                                       1.0775478

 * 6 distinct bonds (by element types)

   Z      Z             #   av. dist./Å        max./Å        min./Å
   1 H    6 C          60     1.0866052     1.0949162     1.0761270
   6 C    6 C          68     1.4011249     1.4322415     1.3594618
   6 C    7 N          16     1.3264815     1.3294797     1.3231738
   5 B    8 O           8     1.4622438     1.4817391     1.4483703
   6 C    8 O          20     1.3776429     1.4124111     1.3241700
   8 O   16 S          12     1.4508884     1.4637421     1.4452601


optimized geometry written to: xtbopt.mol


           -------------------------------------------------
          | TOTAL ENERGY             -414.311817730508 Eh   |
          | GRADIENT NORM               0.000736694436 Eh/α |
          | HOMO-LUMO GAP               0.063062249743 eV   |
           -------------------------------------------------
########################################################################
[WARNING] Runtime exception occurred
-2- restart_readRestart: Dimension missmatch in restart file.
-1- restart_readRestart: Number of electron missmatch in restart file.
########################################################################

------------------------------------------------------------------------
 * finished run on 2024/10/31 at 14:33:31.021     
------------------------------------------------------------------------
 total:
 * wall-time:     0 d,  0 h,  8 min, 57.805 sec
 *  cpu-time:     0 d,  0 h, 31 min, 45.372 sec
 * ratio c/w:     3.543 speedup
 SCF:
 * wall-time:     0 d,  0 h,  0 min,  6.658 sec
 *  cpu-time:     0 d,  0 h,  0 min, 23.697 sec
 * ratio c/w:     3.559 speedup
 ANC optimizer:
 * wall-time:     0 d,  0 h,  8 min, 51.068 sec
 *  cpu-time:     0 d,  0 h, 31 min, 21.558 sec
 * ratio c/w:     3.543 speedup

