      -----------------------------------------------------------      
     |                   =====================                   |     
     |                           x T B                           |     
     |                   =====================                   |     
     |                         S. Grimme                         |     
     |          Mulliken Center for Theoretical Chemistry        |     
     |                    University of Bonn                     |     
      -----------------------------------------------------------      

   * xtb version 6.6.1 (8d0f1dd) compiled by 'runner@Mac-1690902418499.local' on 2023-08-01

   xtb is free software: you can redistribute it and/or modify it under
   the terms of the GNU Lesser General Public License as published by
   the Free Software Foundation, either version 3 of the License, or
   (at your option) any later version.
   
   xtb is distributed in the hope that it will be useful,
   but WITHOUT ANY WARRANTY; without even the implied warranty of
   MERCHANTABILITY or FITNESS FOR A PARTICULAR PURPOSE.  See the
   GNU Lesser General Public License for more details.
   
   Cite this work as:
   * C. Bannwarth, E. Caldeweyher, S. Ehlert, A. Hansen, P. Pracht,
     J. Seibert, S. Spicher, S. Grimme, WIREs Comput. Mol. Sci., 2020, 11,
     e01493. DOI: 10.1002/wcms.1493
   
   for GFN2-xTB:
   * C. Bannwarth, S. Ehlert and S. Grimme., J. Chem. Theory Comput., 2019,
     15, 1652-1671. DOI: 10.1021/acs.jctc.8b01176
   for GFN1-xTB:
   * S. Grimme, C. Bannwarth, P. Shushkov, J. Chem. Theory Comput., 2017,
     13, 1989-2009. DOI: 10.1021/acs.jctc.7b00118
   for GFN0-xTB:
   * P. Pracht, E. Caldeweyher, S. Ehlert, S. Grimme, ChemRxiv, 2019, preprint.
     DOI: 10.26434/chemrxiv.8326202.v1
   for GFN-FF:
   * S. Spicher and S. Grimme, Angew. Chem. Int. Ed., 2020, 59, 15665-15673.
     DOI: 10.1002/anie.202004239
   
   for ALPB and GBSA implicit solvation:
   * S. Ehlert, M. Stahn, S. Spicher, S. Grimme, J. Chem. Theory Comput.,
     2021, 17, 4250-4261. DOI: 10.1021/acs.jctc.1c00471
   
   for DFT-D4:
   * E. Caldeweyher, C. Bannwarth and S. Grimme, J. Chem. Phys., 2017,
     147, 034112. DOI: 10.1063/1.4993215
   * E. Caldeweyher, S. Ehlert, A. Hansen, H. Neugebauer, S. Spicher,
     C. Bannwarth and S. Grimme, J. Chem. Phys., 2019, 150, 154122.
     DOI: 10.1063/1.5090222
   * E. Caldeweyher, J.-M. Mewes, S. Ehlert and S. Grimme, Phys. Chem. Chem. Phys.
     2020, 22, 8499-8512. DOI: 10.1039/D0CP00502A
   
   for sTDA-xTB:
   * S. Grimme and C. Bannwarth, J. Chem. Phys., 2016, 145, 054103.
     DOI: 10.1063/1.4959605
   
   in the mass-spec context:
   * V. Asgeirsson, C. Bauer and S. Grimme, Chem. Sci., 2017, 8, 4879.
     DOI: 10.1039/c7sc00601b
   * J. Koopman and S. Grimme, ACS Omega 2019, 4, 12, 15120-15133.
     DOI: 10.1021/acsomega.9b02011
   
   for metadynamics refer to:
   * S. Grimme, J. Chem. Theory Comput., 2019, 155, 2847-2862
     DOI: 10.1021/acs.jctc.9b00143
   
   for SPH calculations refer to:
   * S. Spicher and S. Grimme, J. Chem. Theory Comput., 2021, 17, 1701-1714
     DOI: 10.1021/acs.jctc.0c01306
   
   with help from (in alphabetical order)
   P. Atkinson, C. Bannwarth, F. Bohle, G. Brandenburg, E. Caldeweyher
   M. Checinski, S. Dohm, S. Ehlert, S. Ehrlich, I. Gerasimov, C. Hölzer
   A. Katbashev, J. Koopman, C. Lavigne, S. Lehtola, F. März, M. Müller,
   F. Musil, H. Neugebauer, J. Pisarek, C. Plett, P. Pracht, F. Pultar,
   J. Seibert, P. Shushkov, S. Spicher, M. Stahn, M. Steiner, T. Strunk,
   J. Stückrath, T. Rose, and J. Unsleber
   
 * started run on 2024/10/31 at 14:16:10.823     

           -------------------------------------------------
          |                Calculation Setup                |
           -------------------------------------------------

          program call               : xtb Base1SO2Me.mol --opt --gfn2 --chrg 0 --uhf 1 --tight
          coordinate file            : Base1SO2Me.mol
          omp threads                :                     8

   ID    Z sym.   atoms
    1    6 C      1-9, 11, 12, 14-21, 27-35, 37, 38, 40-47, 56, 58, 62, 65,
                  68, 71
    2    7 N      10, 13, 36, 39
    3    8 O      22, 23, 48, 49, 54, 55, 57, 59-61, 63, 64, 66, 67, 69, 70
    4   16 S      24-26, 50-52
    5    5 B      53
    6    1 H      72-101

molecular fragmentation (1/2 indicates fragments):
111111111111111111111111112222222222222222222222222211111112222222221112
22222111222111111222222112211
# atoms in fragment 1/2:    49    52
 fragment masses (1/2) :      540.35      533.57
CMA distance (Bohr)    :  15.103
constraining FC (au)   :  0.0500
########################################################################
[WARNING] Please study the warnings concerning your input carefully
-1- prog_main_parseArguments: Unknown option '--tight' provided
########################################################################

           -------------------------------------------------
          |                 G F N 2 - x T B                 |
           -------------------------------------------------

        Reference                      10.1021/acs.jctc.8b01176
      * Hamiltonian:
        H0-scaling (s, p, d)           1.850000    2.230000    2.230000
        zeta-weighting                 0.500000
      * Dispersion:
        s8                             2.700000
        a1                             0.520000
        a2                             5.000000
        s9                             5.000000
      * Repulsion:
        kExp                           1.500000    1.000000
        rExp                           1.000000
      * Coulomb:
        alpha                          2.000000
        third order                    shell-resolved
        anisotropic                    true
        a3                             3.000000
        a5                             4.000000
        cn-shift                       1.200000
        cn-exp                         4.000000
        max-rad                        5.000000


          ...................................................
          :                      SETUP                      :
          :.................................................:
          :  # basis functions                 350          :
          :  # atomic orbitals                 344          :
          :  # shells                          178          :
          :  # electrons                       361          :
          :  max. iterations                   250          :
          :  Hamiltonian                  GFN2-xTB          :
          :  restarted?                      false          :
          :  GBSA solvation                  false          :
          :  PC potential                    false          :
          :  electronic temp.          300.0000000     K    :
          :  accuracy                    1.0000000          :
          :  -> integral cutoff          0.2500000E+02      :
          :  -> integral neglect         0.1000000E-07      :
          :  -> SCF convergence          0.1000000E-05 Eh   :
          :  -> wf. convergence          0.1000000E-03 e    :
          :  Broyden damping             0.4000000          :
          ...................................................

 iter      E             dE          RMSdq      gap      omega  full diag
   1   -205.2108498 -0.205211E+03  0.641E+00    0.03       0.0  T
   2   -199.7769500  0.543390E+01  0.857E+00    0.02       1.0  T
   3   -205.0742235 -0.529727E+01  0.427E+00    0.16       1.0  T
   4   -197.5874390  0.748678E+01  0.597E+00    0.01       1.0  T
   5   -193.3992034  0.418824E+01  0.593E+00    0.04       1.0  T
   6   -204.1766515 -0.107774E+02  0.401E+00    0.22       1.0  T
   7   -206.1427808 -0.196613E+01  0.201E+00    0.18       1.0  T
   8   -206.2059315 -0.631506E-01  0.180E+00    0.09       1.0  T
   9   -206.2137842 -0.785275E-02  0.178E+00    0.10       1.0  T
  10   -206.2135010  0.283152E-03  0.139E+00    0.15       1.0  T
  11   -206.3838866 -0.170386E+00  0.111E+00    0.11       1.0  T
  12   -206.3411929  0.426937E-01  0.125E+00    0.07       1.0  T
  13   -206.3598163 -0.186234E-01  0.102E+00    0.07       1.0  T
  14   -206.4781925 -0.118376E+00  0.839E-01    0.10       1.0  T
  15   -206.5033536 -0.251611E-01  0.588E-01    0.06       1.0  T
  16   -206.5233858 -0.200322E-01  0.534E-01    0.03       1.0  T
  17   -206.4905539  0.328319E-01  0.695E-01    0.05       1.0  T
  18   -206.5094524 -0.188984E-01  0.562E-01    0.01       1.0  T
  19   -206.3997303  0.109722E+00  0.849E-01    0.10       1.0  T
  20   -206.4362496 -0.365193E-01  0.700E-01    0.09       1.0  T
  21   -206.4378548 -0.160520E-02  0.859E-01    0.05       1.0  T
  22   -206.5116826 -0.738278E-01  0.518E-01    0.03       1.0  T
  23   -206.5011391  0.105435E-01  0.558E-01    0.03       1.0  T
  24   -206.5256838 -0.245447E-01  0.354E-01    0.02       1.0  T
  25   -206.5276017 -0.191790E-02  0.262E-01    0.03       1.0  T
  26   -206.5310451 -0.344340E-02  0.230E-01    0.03       1.0  T
  27   -206.5402386 -0.919346E-02  0.116E-01    0.01       1.0  T
  28   -206.5413517 -0.111313E-02  0.728E-02    0.01       1.0  T
  29   -206.5413436  0.806590E-05  0.539E-02    0.01       1.0  T
  30   -206.5418403 -0.496693E-03  0.263E-02    0.01       1.0  T
  31   -206.5418642 -0.239284E-04  0.236E-02    0.01       1.0  T
  32   -206.5419147 -0.504212E-04  0.675E-03    0.01       1.5  T
  33   -206.5419073  0.738898E-05  0.749E-03    0.01       1.3  T
  34   -206.5419178 -0.105525E-04  0.294E-03    0.01       3.4  T
  35   -206.5419186 -0.796908E-06  0.208E-03    0.01       4.8  T
  36   -206.5419184  0.233453E-06  0.221E-03    0.01       4.5  T
  37   -206.5419193 -0.949952E-06  0.892E-04    0.01      11.2  T
  38   -206.5419194 -0.429571E-07  0.623E-04    0.01      16.0  T

   *** convergence criteria satisfied after 38 iterations ***

         #    Occupation            Energy/Eh            Energy/eV
      -------------------------------------------------------------
         1        2.0000           -0.8144571             -22.1625
       ...           ...                  ...                  ...
       175        1.9973           -0.3356848              -9.1344
       176        1.9962           -0.3353863              -9.1263
       177        1.9058           -0.3322696              -9.0415
       178        1.8801           -0.3320234              -9.0348
       179        1.7286           -0.3311456              -9.0109
       180        1.5919           -0.3306586              -8.9977
       181        1.0221           -0.3293117              -8.9610 (HOMO)
       182        0.8780           -0.3290116              -8.9529 (LUMO)
       183                         -0.2904269              -7.9029
       184                         -0.2894061              -7.8751
       185                         -0.2883800              -7.8472
       186                         -0.2858460              -7.7783
       ...                                ...                  ...
       344                          1.3033251              35.4653
      -------------------------------------------------------------
                  HL-Gap            0.0003001 Eh            0.0082 eV
             Fermi-level           -0.3292658 Eh           -8.9598 eV

 SCC (total)                   0 d,  0 h,  0 min,  2.325 sec
 SCC setup                      ...        0 min,  0.001 sec (  0.051%)
 Dispersion                     ...        0 min,  0.002 sec (  0.072%)
 classical contributions        ...        0 min,  0.000 sec (  0.019%)
 integral evaluation            ...        0 min,  0.008 sec (  0.354%)
 iterations                     ...        0 min,  2.271 sec ( 97.687%)
 molecular gradient             ...        0 min,  0.035 sec (  1.522%)
 printout                       ...        0 min,  0.007 sec (  0.294%)

         :::::::::::::::::::::::::::::::::::::::::::::::::::::
         ::                     SUMMARY                     ::
         :::::::::::::::::::::::::::::::::::::::::::::::::::::
         :: total energy            -204.903894859726 Eh    ::
         :: gradient norm              0.661156897954 Eh/a0 ::
         :: HOMO-LUMO gap              0.008167036584 eV    ::
         ::.................................................::
         :: SCC energy              -206.541919386954 Eh    ::
         :: -> isotropic ES            0.450386109384 Eh    ::
         :: -> anisotropic ES          0.034414365829 Eh    ::
         :: -> anisotropic XC          0.079429195780 Eh    ::
         :: -> dispersion             -0.162157747782 Eh    ::
         :: repulsion energy           1.636917964163 Eh    ::
         :: add. restraining           0.000000000000 Eh    ::
         :: total charge               0.000000000001 e     ::
         :::::::::::::::::::::::::::::::::::::::::::::::::::::

      ----------------------------------------------------------- 
     |                   =====================                   |
     |                        A N C O P T                        |
     |                   =====================                   |
     |               Approximate Normal Coordinate               |
     |                Rational Function Optimizer                |
      ----------------------------------------------------------- 

          ...................................................
          :                      SETUP                      :
          :.................................................:
          :   optimization level            normal          :
          :   max. optcycles                   303          :
          :   ANC micro-cycles                  20          :
          :   degrees of freedom               297          :
          :.................................................:
          :   RF solver                   davidson          :
          :   write xtbopt.log                true          :
          :   linear?                        false          :
          :   energy convergence         0.5000000E-05 Eh   :
          :   grad. convergence          0.1000000E-02 Eh/α :
          :   maxmium RF displ.          1.0000000          :
          :   Hlow (freq-cutoff)         0.1000000E-01      :
          :   Hmax (freq-cutoff)         5.0000000          :
          :   S6 in model hess.         20.0000000          :
          ...................................................

generating ANC from model Hessian ...
Using Lindh-Hessian (1995)
 Shifting diagonal of input Hessian by    1.0410959510220044E-002
 Lowest  eigenvalues of input Hessian
    0.010000    0.010394    0.000000    0.000000    0.000000    0.000000
    0.000000    0.000000    0.010428    0.010459    0.010522    0.010565
    0.010607    0.010656    0.010715    0.010788    0.010820    0.010868
 Highest eigenvalues
    3.661941    3.671356    3.671710    3.671718    3.682514    3.682862


........................................................................
.............................. CYCLE    1 ..............................
........................................................................

 iter      E             dE          RMSdq      gap      omega  full diag
   1   -206.5419195 -0.206542E+03  0.204E-04    0.01       0.0  T
   2   -206.5419191  0.369528E-06  0.183E-03    0.01       5.4  T
   3   -206.5419194 -0.317101E-06  0.641E-04    0.01      15.5  T
   4   -206.5419194 -0.190265E-07  0.424E-04    0.01      23.4  T
     SCC iter.                  ...        0 min,  0.295 sec
     gradient                   ...        0 min,  0.036 sec
 * total energy  :  -204.9038949 Eh     change       -0.4003078E-07 Eh
   gradient norm :     0.6611546 Eh/α   predicted     0.0000000E+00 (-100.00%)
   displ. norm   :     0.7846687 α      lambda       -0.4662578E+00
   maximum displ.:     0.1948021 α      in ANC's #142, #117, #144, ...

........................................................................
.............................. CYCLE    2 ..............................
........................................................................

 iter      E             dE          RMSdq      gap      omega  full diag
   1   -206.7639221 -0.206764E+03  0.211E+00    0.04       0.0  T
   2   -206.2057064  0.558216E+00  0.268E+00    0.16       1.0  T
   3   -206.6552765 -0.449570E+00  0.143E+00    0.14       1.0  T
   4   -206.5285894  0.126687E+00  0.166E+00    0.09       1.0  T
   5   -206.7340255 -0.205436E+00  0.156E+00    0.09       1.0  T
   6   -206.8864786 -0.152453E+00  0.977E-01    0.01       1.0  T
   7   -206.8594057  0.270728E-01  0.107E+00    0.02       1.0  T
   8   -206.8712062 -0.118004E-01  0.883E-01    0.02       1.0  T
   9   -206.8664633  0.474291E-02  0.980E-01    0.03       1.0  T
  10   -206.8759671 -0.950382E-02  0.650E-01    0.10       1.0  T
  11   -206.9294315 -0.534645E-01  0.611E-01    0.07       1.0  T
  12   -206.9569641 -0.275326E-01  0.378E-01    0.02       1.0  T
  13   -206.9129429  0.440212E-01  0.626E-01    0.05       1.0  T
  14   -206.9544962 -0.415533E-01  0.335E-01    0.03       1.0  T
  15   -206.9629066 -0.841041E-02  0.183E-01    0.02       1.0  T
  16   -206.9652390 -0.233243E-02  0.132E-01    0.01       1.0  T
  17   -206.9677304 -0.249137E-02  0.342E-02    0.01       1.0  T
  18   -206.9677001  0.303280E-04  0.319E-02    0.01       1.0  T
  19   -206.9675827  0.117333E-03  0.461E-02    0.01       1.0  T
  20   -206.9678063 -0.223549E-03  0.148E-02    0.01       1.0  T
  21   -206.9678196 -0.133042E-04  0.999E-03    0.01       1.0  T
  22   -206.9677830  0.365981E-04  0.176E-02    0.01       1.0  T
  23   -206.9678281 -0.451035E-04  0.805E-03    0.01       1.2  T
  24   -206.9678357 -0.764764E-05  0.384E-03    0.01       2.6  T
  25   -206.9678383 -0.258109E-05  0.184E-03    0.01       5.4  T
  26   -206.9678385 -0.156504E-06  0.113E-03    0.01       8.8  T
  27   -206.9678386 -0.125245E-06  0.404E-04    0.01      24.6  T
  28   -206.9678386  0.488177E-08  0.288E-04    0.01      34.6  T
     SCC iter.                  ...        0 min,  1.824 sec
     gradient                   ...        0 min,  0.032 sec
 * total energy  :  -205.3540312 Eh     change       -0.4501363E+00 Eh
   gradient norm :     0.6047433 Eh/α   predicted    -0.3766831E+00 ( -16.32%)
   displ. norm   :     0.9737610 α      lambda       -0.5810792E+00
   maximum displ.:     0.2638937 α      in ANC's #180, #142, #183, ...

........................................................................
.............................. CYCLE    3 ..............................
........................................................................

 iter      E             dE          RMSdq      gap      omega  full diag
   1   -207.2723920 -0.207272E+03  0.178E+00    0.04       0.0  T
   2   -206.7765091  0.495883E+00  0.255E+00    0.12       1.0  T
   3   -207.2088174 -0.432308E+00  0.182E+00    0.03       1.0  T
   4   -207.2335478 -0.247304E-01  0.119E+00    0.12       1.0  T
   5   -207.0506463  0.182901E+00  0.135E+00    0.22       1.0  T
   6   -207.3046012 -0.253955E+00  0.104E+00    0.10       1.0  T
   7   -207.4339433 -0.129342E+00  0.647E-01    0.08       1.0  T
   8   -207.3615863  0.723571E-01  0.971E-01    0.02       1.0  T
   9   -207.4441844 -0.825981E-01  0.678E-01    0.02       1.0  T
  10   -207.4351839  0.900042E-02  0.638E-01    0.01       1.0  T
  11   -207.4591943 -0.240103E-01  0.465E-01    0.04       1.0  T
  12   -207.4730811 -0.138868E-01  0.312E-01    0.02       1.0  T
  13   -207.4729221  0.158953E-03  0.258E-01    0.04       1.0  T
  14   -207.4799561 -0.703398E-02  0.175E-01    0.01       1.0  T
  15   -207.4805657 -0.609658E-03  0.144E-01    0.01       1.0  T
  16   -207.4814802 -0.914438E-03  0.998E-02    0.01       1.0  T
  17   -207.4823287 -0.848544E-03  0.663E-02    0.01       1.0  T
  18   -207.4824885 -0.159790E-03  0.514E-02    0.01       1.0  T
  19   -207.4824609  0.276400E-04  0.460E-02    0.01       1.0  T
  20   -207.4826012 -0.140369E-03  0.352E-02    0.01       1.0  T
  21   -207.4827178 -0.116544E-03  0.241E-02    0.01       1.0  T
  22   -207.4827940 -0.761857E-04  0.953E-03    0.01       1.0  T
  23   -207.4828044 -0.104307E-04  0.512E-03    0.01       1.9  T
  24   -207.4828065 -0.211223E-05  0.299E-03    0.01       3.3  T
  25   -207.4828065  0.328114E-08  0.255E-03    0.01       3.9  T
  26   -207.4828071 -0.609974E-06  0.106E-03    0.01       9.4  T
  27   -207.4828072 -0.903598E-07  0.458E-04    0.01      21.7  T
  28   -207.4828072 -0.776103E-08  0.210E-04    0.01      47.5  T
     SCC iter.                  ...        0 min,  1.947 sec
     gradient                   ...        0 min,  0.035 sec
 * total energy  :  -205.8897396 Eh     change       -0.5357084E+00 Eh
   gradient norm :     0.5195240 Eh/α   predicted    -0.5660325E+00 (   5.66%)
   displ. norm   :     0.9092042 α      lambda       -0.4501529E+00
   maximum displ.:     0.2369158 α      in ANC's #180, #142, #183, ...

........................................................................
.............................. CYCLE    4 ..............................
........................................................................

 iter      E             dE          RMSdq      gap      omega  full diag
   1   -207.8443019 -0.207844E+03  0.828E-01    0.03       0.0  T
   2   -207.4341733  0.410129E+00  0.198E+00    0.15       1.0  T
   3   -207.7969427 -0.362769E+00  0.103E+00    0.04       1.0  T
   4   -207.7397116  0.572311E-01  0.803E-01    0.26       1.0  T
   5   -207.5971595  0.142552E+00  0.978E-01    0.19       1.0  T
   6   -207.9023028 -0.305143E+00  0.364E-01    0.01       1.0  T
   7   -207.8054157  0.968871E-01  0.775E-01    0.06       1.0  T
   8   -207.8542280 -0.488124E-01  0.599E-01    0.04       1.0  T
   9   -207.8893924 -0.351643E-01  0.303E-01    0.05       1.0  T
  10   -207.9112292 -0.218369E-01  0.165E-01    0.01       1.0  T
  11   -207.9129510 -0.172180E-02  0.117E-01    0.01       1.0  T
  12   -207.9125982  0.352817E-03  0.115E-01    0.02       1.0  T
  13   -207.9139350 -0.133677E-02  0.701E-02    0.01       1.0  T
  14   -207.9128586  0.107639E-02  0.751E-02    0.02       1.0  T
  15   -207.9142895 -0.143092E-02  0.240E-02    0.01       1.0  T
  16   -207.9142911 -0.161635E-05  0.211E-02    0.00       1.0  T
  17   -207.9143471 -0.559217E-04  0.981E-03    0.01       1.0  T
  18   -207.9143476 -0.574968E-06  0.778E-03    0.01       1.3  T
  19   -207.9143296  0.179884E-04  0.100E-02    0.00       1.0  T
  20   -207.9143522 -0.225203E-04  0.348E-03    0.01       2.9  T
  21   -207.9143477  0.446881E-05  0.479E-03    0.01       2.1  T
  22   -207.9143537 -0.597450E-05  0.147E-03    0.01       6.8  T
  23   -207.9143539 -0.260086E-06  0.446E-04    0.01      22.3  T
  24   -207.9143539  0.828729E-07  0.680E-04    0.01      14.6  T
     SCC iter.                  ...        0 min,  1.482 sec
     gradient                   ...        0 min,  0.032 sec
 * total energy  :  -206.2709094 Eh     change       -0.3811698E+00 Eh
   gradient norm :     0.4130910 Eh/α   predicted    -0.4111366E+00 (   7.86%)
   displ. norm   :     0.8565160 α      lambda       -0.3022072E+00
   maximum displ.:     0.2352725 α      in ANC's #142, #117, #131, ...

........................................................................
.............................. CYCLE    5 ..............................
........................................................................

 iter      E             dE          RMSdq      gap      omega  full diag
   1   -208.2505290 -0.208251E+03  0.531E-01    0.02       0.0  T
   2   -208.0275206  0.223008E+00  0.106E+00    0.12       1.0  T
   3   -208.0085838  0.189367E-01  0.973E-01    0.16       1.0  T
   4   -208.1581871 -0.149603E+00  0.608E-01    0.19       1.0  T
   5   -208.1327777  0.254094E-01  0.754E-01    0.17       1.0  T
   6   -208.1683784 -0.356007E-01  0.704E-01    0.05       1.0  T
   7   -208.2495588 -0.811804E-01  0.251E-01    0.04       1.0  T
   8   -208.2622080 -0.126492E-01  0.152E-01    0.04       1.0  T
   9   -208.2641806 -0.197252E-02  0.113E-01    0.03       1.0  T
  10   -208.2661843 -0.200377E-02  0.745E-02    0.00       1.0  T
  11   -208.2650634  0.112088E-02  0.744E-02    0.02       1.0  T
  12   -208.2667029 -0.163945E-02  0.196E-02    0.01       1.0  T
  13   -208.2664756  0.227300E-03  0.309E-02    0.00       1.0  T
  14   -208.2667410 -0.265409E-03  0.100E-02    0.01       1.0  T
  15   -208.2667308  0.102042E-04  0.114E-02    0.01       1.0  T
  16   -208.2667621 -0.313339E-04  0.239E-03    0.01       4.2  T
  17   -208.2667608  0.129434E-05  0.314E-03    0.01       3.2  T
  18   -208.2667612 -0.376157E-06  0.269E-03    0.01       3.7  T
  19   -208.2667631 -0.189643E-05  0.976E-04    0.01      10.2  T
  20   -208.2667632 -0.121607E-06  0.735E-04    0.01      13.5  T
  21   -208.2667634 -0.144796E-06  0.249E-04    0.01      39.9  T
     SCC iter.                  ...        0 min,  1.218 sec
     gradient                   ...        0 min,  0.036 sec
 * total energy  :  -206.5309517 Eh     change       -0.2600423E+00 Eh
   gradient norm :     0.3292009 Eh/α   predicted    -0.2619577E+00 (   0.74%)
   displ. norm   :     0.8234471 α      lambda       -0.2161325E+00
   maximum displ.:     0.2120504 α      in ANC's #142, #117, #92, ...

........................................................................
.............................. CYCLE    6 ..............................
........................................................................

 iter      E             dE          RMSdq      gap      omega  full diag
   1   -208.5633258 -0.208563E+03  0.438E-01    0.01       0.0  T
   2   -208.3101246  0.253201E+00  0.906E-01    0.15       1.0  T
   3   -208.2725355  0.375891E-01  0.933E-01    0.20       1.0  T
   4   -208.5593742 -0.286839E+00  0.318E-01    0.04       1.0  T
   5   -208.5649013 -0.552708E-02  0.163E-01    0.03       1.0  T
   6   -208.5661877 -0.128639E-02  0.147E-01    0.00       1.0  T
   7   -208.5674954 -0.130770E-02  0.119E-01    0.01       1.0  T
   8   -208.5681060 -0.610652E-03  0.872E-02    0.02       1.0  T
   9   -208.5686091 -0.503091E-03  0.678E-02    0.02       1.0  T
  10   -208.5689918 -0.382636E-03  0.434E-02    0.00       1.0  T
  11   -208.5691623 -0.170585E-03  0.257E-02    0.01       1.0  T
  12   -208.5692375 -0.751332E-04  0.110E-02    0.01       1.0  T
  13   -208.5692364  0.103437E-05  0.812E-03    0.01       1.2  T
  14   -208.5692411 -0.463058E-05  0.466E-03    0.01       2.1  T
  15   -208.5692467 -0.567103E-05  0.159E-03    0.01       6.2  T
  16   -208.5692461  0.675186E-06  0.174E-03    0.01       5.7  T
  17   -208.5692471 -0.996382E-06  0.325E-04    0.01      30.6  T
  18   -208.5692470  0.145352E-07  0.298E-04    0.01      33.4  T
     SCC iter.                  ...        0 min,  1.087 sec
     gradient                   ...        0 min,  0.032 sec
 * total energy  :  -206.7084157 Eh     change       -0.1774640E+00 Eh
   gradient norm :     0.2374383 Eh/α   predicted    -0.1813423E+00 (   2.19%)
   displ. norm   :     0.7849986 α      lambda       -0.1417406E+00
   maximum displ.:     0.2031728 α      in ANC's #142, #144, #64, ...

........................................................................
.............................. CYCLE    7 ..............................
........................................................................

 iter      E             dE          RMSdq      gap      omega  full diag
   1   -208.8131836 -0.208813E+03  0.423E-01    0.01       0.0  T
   2   -208.6171801  0.196003E+00  0.791E-01    0.17       1.0  T
   3   -208.4678274  0.149353E+00  0.101E+00    0.21       1.0  T
   4   -208.8061035 -0.338276E+00  0.313E-01    0.02       1.0  T
   5   -208.8138343 -0.773082E-02  0.150E-01    0.01       1.0  T
   6   -208.8144106 -0.576318E-03  0.131E-01    0.02       1.0  T
   7   -208.8155685 -0.115789E-02  0.984E-02    0.01       1.0  T
   8   -208.8159883 -0.419839E-03  0.785E-02    0.01       1.0  T
   9   -208.8160521 -0.637922E-04  0.694E-02    0.01       1.0  T
  10   -208.8163977 -0.345618E-03  0.464E-02    0.01       1.0  T
  11   -208.8164720 -0.743076E-04  0.337E-02    0.01       1.0  T
  12   -208.8164275  0.445926E-04  0.321E-02    0.00       1.0  T
  13   -208.8164417 -0.142795E-04  0.260E-02    0.00       1.0  T
  14   -208.8165251 -0.833878E-04  0.124E-02    0.01       1.0  T
  15   -208.8165575 -0.323677E-04  0.433E-03    0.01       2.3  T
  16   -208.8165613 -0.382668E-05  0.394E-03    0.01       2.5  T
  17   -208.8165626 -0.124700E-05  0.194E-03    0.01       5.1  T
  18   -208.8165635 -0.917311E-06  0.288E-04    0.01      34.5  T
  19   -208.8165635  0.274778E-07  0.419E-04    0.01      23.7  T
     SCC iter.                  ...        0 min,  1.152 sec
     gradient                   ...        0 min,  0.035 sec
 * total energy  :  -206.8177094 Eh     change       -0.1092937E+00 Eh
   gradient norm :     0.1561298 Eh/α   predicted    -0.1145422E+00 (   4.80%)
   displ. norm   :     0.7825096 α      lambda       -0.8921983E-01
   maximum displ.:     0.1803620 α      in ANC's #64, #92, #28, ...

........................................................................
.............................. CYCLE    8 ..............................
........................................................................

 iter      E             dE          RMSdq      gap      omega  full diag
   1   -209.0063831 -0.209006E+03  0.329E-01    0.00       0.0  T
   2   -208.8642978  0.142085E+00  0.658E-01    0.19       1.0  T
   3   -208.7011652  0.163133E+00  0.938E-01    0.22       1.0  T
   4   -208.9930013 -0.291836E+00  0.295E-01    0.05       1.0  T
   5   -208.9973381 -0.433684E-02  0.199E-01    0.04       1.0  T
   6   -209.0017382 -0.440006E-02  0.183E-01    0.01       1.0  T
   7   -209.0075861 -0.584799E-02  0.870E-02    0.01       1.0  T
   8   -209.0077505 -0.164311E-03  0.678E-02    0.02       1.0  T
   9   -209.0076556  0.949074E-04  0.665E-02    0.02       1.0  T
  10   -209.0078177 -0.162186E-03  0.543E-02    0.02       1.0  T
  11   -209.0081499 -0.332175E-03  0.341E-02    0.01       1.0  T
  12   -209.0082268 -0.769309E-04  0.313E-02    0.01       1.0  T
  13   -209.0082297 -0.281472E-05  0.285E-02    0.01       1.0  T
  14   -209.0082589 -0.291927E-04  0.128E-02    0.01       1.0  T
  15   -209.0082800 -0.211786E-04  0.947E-03    0.01       1.1  T
  16   -209.0082785  0.149475E-05  0.493E-03    0.01       2.0  T
  17   -209.0082852 -0.667204E-05  0.263E-03    0.01       3.8  T
  18   -209.0082860 -0.777794E-06  0.494E-04    0.01      20.2  T
  19   -209.0082860 -0.167509E-07  0.457E-04    0.01      21.8  T
     SCC iter.                  ...        0 min,  1.121 sec
     gradient                   ...        0 min,  0.040 sec
 * total energy  :  -206.8742355 Eh     change       -0.5652612E-01 Eh
   gradient norm :     0.1467386 Eh/α   predicted    -0.7192553E-01 (  27.24%)
   displ. norm   :     0.7429908 α      lambda       -0.7066420E-01
   maximum displ.:     0.2101171 α      in ANC's #64, #73, #78, ...

........................................................................
.............................. CYCLE    9 ..............................
........................................................................

 iter      E             dE          RMSdq      gap      omega  full diag
   1   -209.1028314 -0.209103E+03  0.328E-01    0.01       0.0  T
   2   -209.0919110  0.109204E-01  0.274E-01    0.05       1.0  T
   3   -208.7567926  0.335118E+00  0.100E+00    0.25       1.0  T
   4   -209.0582929 -0.301500E+00  0.455E-01    0.09       1.0  T
   5   -209.0632695 -0.497651E-02  0.385E-01    0.13       1.0  T
   6   -209.0942951 -0.310256E-01  0.170E-01    0.04       1.0  T
   7   -209.1028472 -0.855215E-02  0.656E-02    0.01       1.0  T
   8   -209.1029422 -0.949864E-04  0.519E-02    0.02       1.0  T
   9   -209.1034568 -0.514569E-03  0.259E-02    0.01       1.0  T
  10   -209.1035628 -0.105974E-03  0.196E-02    0.01       1.0  T
  11   -209.1035762 -0.134186E-04  0.150E-02    0.01       1.0  T
  12   -209.1035728  0.341992E-05  0.131E-02    0.01       1.0  T
  13   -209.1035654  0.733229E-05  0.115E-02    0.01       1.0  T
  14   -209.1035939 -0.284586E-04  0.361E-03    0.01       2.8  T
  15   -209.1035972 -0.331115E-05  0.659E-04    0.01      15.1  T
  16   -209.1035973 -0.540198E-07  0.483E-04    0.01      20.6  T
  17   -209.1035973 -0.220473E-08  0.409E-04    0.01      24.3  T
     SCC iter.                  ...        0 min,  0.944 sec
     gradient                   ...        0 min,  0.037 sec
 * total energy  :  -206.9127823 Eh     change       -0.3854681E-01 Eh
   gradient norm :     0.0916078 Eh/α   predicted    -0.5483671E-01 (  42.26%)
   displ. norm   :     0.7265314 α      lambda       -0.3811982E-01
   maximum displ.:     0.1824025 α      in ANC's #73, #64, #28, ...

........................................................................
.............................. CYCLE   10 ..............................
........................................................................

 iter      E             dE          RMSdq      gap      omega  full diag
   1   -209.1541200 -0.209154E+03  0.316E-01    0.01       0.0  T
   2   -208.9628504  0.191270E+00  0.745E-01    0.21       1.0  T
   3   -208.9375489  0.253016E-01  0.788E-01    0.26       1.0  T
   4   -209.1515534 -0.214005E+00  0.214E-01    0.01       1.0  T
   5   -209.1538646 -0.231124E-02  0.126E-01    0.01       1.0  T
   6   -209.1536657  0.198903E-03  0.129E-01    0.01       1.0  T
   7   -209.1554928 -0.182713E-02  0.845E-02    0.01       1.0  T
   8   -209.1557162 -0.223404E-03  0.663E-02    0.02       1.0  T
   9   -209.1558535 -0.137265E-03  0.541E-02    0.01       1.0  T
  10   -209.1560906 -0.237074E-03  0.369E-02    0.01       1.0  T
  11   -209.1561891 -0.985343E-04  0.252E-02    0.01       1.0  T
  12   -209.1561733  0.158477E-04  0.244E-02    0.00       1.0  T
  13   -209.1561533  0.199602E-04  0.209E-02    0.00       1.0  T
  14   -209.1562259 -0.725568E-04  0.705E-03    0.01       1.4  T
  15   -209.1562276 -0.174341E-05  0.526E-03    0.01       1.9  T
  16   -209.1562272  0.452117E-06  0.363E-03    0.01       2.7  T
  17   -209.1562303 -0.316989E-05  0.110E-03    0.01       9.0  T
  18   -209.1562304 -0.661163E-07  0.402E-04    0.01      24.8  T
  19   -209.1562304 -0.374951E-07  0.277E-04    0.01      35.9  T
     SCC iter.                  ...        0 min,  1.053 sec
     gradient                   ...        0 min,  0.034 sec
 * total energy  :  -206.9367717 Eh     change       -0.2398934E-01 Eh
   gradient norm :     0.1024441 Eh/α   predicted    -0.2912066E-01 (  21.39%)
   displ. norm   :     0.7349620 α      lambda       -0.3933718E-01
   maximum displ.:     0.2259420 α      in ANC's #64, #73, #14, ...

........................................................................
.............................. CYCLE   11 ..............................
........................................................................

 iter      E             dE          RMSdq      gap      omega  full diag
   1   -209.2101079 -0.209210E+03  0.302E-01    0.00       0.0  T
   2   -209.2030363  0.707153E-02  0.234E-01    0.05       1.0  T
   3   -208.9244647  0.278572E+00  0.906E-01    0.28       1.0  T
   4   -209.1872443 -0.262780E+00  0.327E-01    0.07       1.0  T
   5   -209.1936460 -0.640174E-02  0.261E-01    0.06       1.0  T
   6   -209.2108593 -0.172133E-01  0.520E-02    0.01       1.0  T
   7   -209.2100603  0.799036E-03  0.568E-02    0.02       1.0  T
   8   -209.2109603 -0.900044E-03  0.303E-02    0.01       1.0  T
   9   -209.2110349 -0.745773E-04  0.215E-02    0.01       1.0  T
  10   -209.2110366 -0.169833E-05  0.168E-02    0.01       1.0  T
  11   -209.2110502 -0.136041E-04  0.115E-02    0.01       1.0  T
  12   -209.2110358  0.143931E-04  0.115E-02    0.00       1.0  T
  13   -209.2110591 -0.232901E-04  0.534E-03    0.01       1.9  T
  14   -209.2110645 -0.540884E-05  0.235E-03    0.01       4.2  T
  15   -209.2110662 -0.173087E-05  0.803E-04    0.01      12.4  T
  16   -209.2110663 -0.714449E-07  0.359E-04    0.01      27.7  T
  17   -209.2110664 -0.349723E-07  0.175E-04    0.01      57.0  T
     SCC iter.                  ...        0 min,  0.888 sec
     gradient                   ...        0 min,  0.033 sec
 * total energy  :  -206.9600905 Eh     change       -0.2331885E-01 Eh
   gradient norm :     0.0873783 Eh/α   predicted    -0.3029296E-01 (  29.91%)
   displ. norm   :     0.6640528 α      lambda       -0.2626145E-01
   maximum displ.:     0.1625997 α      in ANC's #14, #73, #33, ...

........................................................................
.............................. CYCLE   12 ..............................
........................................................................

 iter      E             dE          RMSdq      gap      omega  full diag
   1   -209.2532054 -0.209253E+03  0.248E-01    0.01       0.0  T
   2   -209.2527885  0.416848E-03  0.152E-01    0.01       1.0  T
   3   -209.1285825  0.124206E+00  0.603E-01    0.23       1.0  T
   4   -209.2201291 -0.915466E-01  0.315E-01    0.11       1.0  T
   5   -209.2527562 -0.326272E-01  0.801E-02    0.01       1.0  T
   6   -209.2528311 -0.748769E-04  0.577E-02    0.02       1.0  T
   7   -209.2532768 -0.445739E-03  0.407E-02    0.01       1.0  T
   8   -209.2534440 -0.167163E-03  0.286E-02    0.01       1.0  T
   9   -209.2534966 -0.526525E-04  0.198E-02    0.01       1.0  T
  10   -209.2535576 -0.609998E-04  0.881E-03    0.01       1.1  T
  11   -209.2535780 -0.203567E-04  0.337E-03    0.01       2.9  T
  12   -209.2535760  0.200687E-05  0.386E-03    0.01       2.6  T
  13   -209.2535792 -0.323821E-05  0.204E-03    0.01       4.9  T
  14   -209.2535805 -0.126025E-05  0.754E-04    0.01      13.2  T
  15   -209.2535806 -0.787329E-07  0.254E-04    0.01      39.1  T
  16   -209.2535806  0.924277E-08  0.255E-04    0.01      38.9  T
     SCC iter.                  ...        0 min,  1.046 sec
     gradient                   ...        0 min,  0.033 sec
 * total energy  :  -206.9763027 Eh     change       -0.1621224E-01 Eh
   gradient norm :     0.0775286 Eh/α   predicted    -0.1892093E-01 (  16.71%)
   displ. norm   :     0.7052813 α      lambda       -0.2542329E-01
   maximum displ.:     0.1963842 α      in ANC's #33, #1, #14, ...

........................................................................
.............................. CYCLE   13 ..............................
........................................................................

 iter      E             dE          RMSdq      gap      omega  full diag
   1   -209.2644125 -0.209264E+03  0.305E-01    0.03       0.0  T
   2   -208.9319377  0.332475E+00  0.976E-01    0.27       1.0  T
   3   -209.2251882 -0.293251E+00  0.395E-01    0.16       1.0  T
   4   -209.2651939 -0.400057E-01  0.192E-01    0.02       1.0  T
   5   -209.2660714 -0.877500E-03  0.126E-01    0.03       1.0  T
   6   -209.2681371 -0.206570E-02  0.920E-02    0.01       1.0  T
   7   -209.2694981 -0.136102E-02  0.659E-02    0.01       1.0  T
   8   -209.2694011  0.970053E-04  0.588E-02    0.01       1.0  T
   9   -209.2697866 -0.385495E-03  0.207E-02    0.01       1.0  T
  10   -209.2698321 -0.455105E-04  0.764E-03    0.01       1.3  T
  11   -209.2698387 -0.655560E-05  0.470E-03    0.01       2.1  T
  12   -209.2698409 -0.223207E-05  0.218E-03    0.01       4.6  T
  13   -209.2698407  0.252250E-06  0.188E-03    0.01       5.3  T
  14   -209.2698414 -0.759024E-06  0.639E-04    0.01      15.6  T
  15   -209.2698415 -0.472043E-07  0.310E-04    0.01      32.1  T
     SCC iter.                  ...        0 min,  0.953 sec
     gradient                   ...        0 min,  0.033 sec
 * total energy  :  -206.9880717 Eh     change       -0.1176894E-01 Eh
   gradient norm :     0.0825117 Eh/α   predicted    -0.1903469E-01 (  61.74%)
   displ. norm   :     0.6875417 α      lambda       -0.2698105E-01
   maximum displ.:     0.1843808 α      in ANC's #1, #14, #23, ...

........................................................................
.............................. CYCLE   14 ..............................
........................................................................

 iter      E             dE          RMSdq      gap      omega  full diag
   1   -209.2849662 -0.209285E+03  0.326E-01    0.01       0.0  T
   2   -209.2758425  0.912378E-02  0.254E-01    0.05       1.0  T
   3   -208.9326668  0.343176E+00  0.102E+00    0.30       1.0  T
   4   -209.2790555 -0.346389E+00  0.197E-01    0.04       1.0  T
   5   -209.2781194  0.936062E-03  0.179E-01    0.04       1.0  T
   6   -209.2844971 -0.637771E-02  0.752E-02    0.02       1.0  T
   7   -209.2859743 -0.147715E-02  0.460E-02    0.01       1.0  T
   8   -209.2861570 -0.182716E-03  0.317E-02    0.01       1.0  T
   9   -209.2862091 -0.521383E-04  0.231E-02    0.01       1.0  T
  10   -209.2861769  0.322042E-04  0.223E-02    0.01       1.0  T
  11   -209.2861647  0.122182E-04  0.198E-02    0.01       1.0  T
  12   -209.2862257 -0.609731E-04  0.946E-03    0.01       1.1  T
  13   -209.2862420 -0.163788E-04  0.315E-03    0.01       3.2  T
  14   -209.2862437 -0.163598E-05  0.158E-03    0.01       6.3  T
  15   -209.2862444 -0.735188E-06  0.587E-04    0.01      17.0  T
  16   -209.2862445 -0.392015E-07  0.136E-04    0.01      73.3  T
     SCC iter.                  ...        0 min,  0.936 sec
     gradient                   ...        0 min,  0.033 sec
 * total energy  :  -206.9996721 Eh     change       -0.1160038E-01 Eh
   gradient norm :     0.0978674 Eh/α   predicted    -0.1986767E-01 (  71.27%)
   displ. norm   :     0.5757591 α      lambda       -0.2169021E-01
   maximum displ.:     0.1465298 α      in ANC's #14, #66, #29, ...

........................................................................
.............................. CYCLE   15 ..............................
........................................................................

 iter      E             dE          RMSdq      gap      omega  full diag
   1   -209.2864855 -0.209286E+03  0.261E-01    0.01       0.0  T
   2   -209.2846739  0.181163E-02  0.181E-01    0.03       1.0  T
   3   -209.1010566  0.183617E+00  0.728E-01    0.28       1.0  T
   4   -209.2788045 -0.177748E+00  0.173E-01    0.06       1.0  T
   5   -209.2817543 -0.294980E-02  0.152E-01    0.04       1.0  T
   6   -209.2872149 -0.546059E-02  0.394E-02    0.01       1.0  T
   7   -209.2870219  0.193021E-03  0.460E-02    0.01       1.0  T
   8   -209.2870167  0.515306E-05  0.413E-02    0.01       1.0  T
   9   -209.2871391 -0.122419E-03  0.299E-02    0.01       1.0  T
  10   -209.2873023 -0.163144E-03  0.122E-02    0.01       1.0  T
  11   -209.2873506 -0.483663E-04  0.257E-03    0.01       3.9  T
  12   -209.2873514 -0.791464E-06  0.111E-03    0.01       9.0  T
  13   -209.2873514  0.344647E-07  0.109E-03    0.01       9.1  T
  14   -209.2873515 -0.146019E-06  0.526E-04    0.01      18.9  T
  15   -209.2873516 -0.236625E-07  0.514E-04    0.01      19.4  T
     SCC iter.                  ...        0 min,  0.824 sec
     gradient                   ...        0 min,  0.034 sec
 * total energy  :  -207.0107434 Eh     change       -0.1107137E-01 Eh
   gradient norm :     0.0742479 Eh/α   predicted    -0.1444025E-01 (  30.43%)
   displ. norm   :     0.6413787 α      lambda       -0.1596746E-01
   maximum displ.:     0.2218687 α      in ANC's #14, #33, #18, ...

........................................................................
.............................. CYCLE   16 ..............................
........................................................................

 iter      E             dE          RMSdq      gap      omega  full diag
   1   -209.2910501 -0.209291E+03  0.243E-01    0.02       0.0  T
   2   -209.2556596  0.353905E-01  0.371E-01    0.14       1.0  T
   3   -209.1886346  0.670250E-01  0.571E-01    0.30       1.0  T
   4   -209.2903832 -0.101749E+00  0.123E-01    0.01       1.0  T
   5   -209.2885334  0.184977E-02  0.130E-01    0.03       1.0  T
   6   -209.2918904 -0.335698E-02  0.550E-02    0.01       1.0  T
   7   -209.2922346 -0.344242E-03  0.221E-02    0.01       1.0  T
   8   -209.2919107  0.323922E-03  0.405E-02    0.02       1.0  T
   9   -209.2922743 -0.363625E-03  0.149E-02    0.01       1.0  T
  10   -209.2923274 -0.530376E-04  0.335E-03    0.01       3.0  T
  11   -209.2923283 -0.875557E-06  0.172E-03    0.01       5.8  T
  12   -209.2923285 -0.226706E-06  0.991E-04    0.01      10.0  T
  13   -209.2923286 -0.101478E-06  0.512E-04    0.01      19.4  T
     SCC iter.                  ...        0 min,  0.756 sec
     gradient                   ...        0 min,  0.036 sec
 * total energy  :  -207.0171610 Eh     change       -0.6417562E-02 Eh
   gradient norm :     0.0651444 Eh/α   predicted    -0.1126798E-01 (  75.58%)
   displ. norm   :     0.6054662 α      lambda       -0.1575122E-01
   maximum displ.:     0.1812792 α      in ANC's #14, #31, #23, ...

........................................................................
.............................. CYCLE   17 ..............................
........................................................................

 iter      E             dE          RMSdq      gap      omega  full diag
   1   -209.3192359 -0.209319E+03  0.233E-01    0.01       0.0  T
   2   -209.3187779  0.458021E-03  0.137E-01    0.02       1.0  T
   3   -209.2399504  0.788275E-01  0.494E-01    0.21       1.0  T
   4   -209.3085385 -0.685881E-01  0.195E-01    0.06       1.0  T
   5   -209.3178419 -0.930334E-02  0.933E-02    0.02       1.0  T
   6   -209.3191641 -0.132228E-02  0.431E-02    0.01       1.0  T
   7   -209.3194403 -0.276150E-03  0.265E-02    0.01       1.0  T
   8   -209.3195289 -0.885752E-04  0.182E-02    0.01       1.0  T
   9   -209.3195555 -0.266769E-04  0.133E-02    0.01       1.0  T
  10   -209.3195949 -0.393373E-04  0.515E-03    0.01       1.9  T
  11   -209.3196022 -0.728601E-05  0.114E-03    0.01       8.7  T
  12   -209.3196016  0.551332E-06  0.160E-03    0.01       6.2  T
  13   -209.3196023 -0.692998E-06  0.472E-04    0.01      21.1  T
  14   -209.3196023 -0.295503E-07  0.178E-04    0.01      55.9  T
     SCC iter.                  ...        0 min,  0.748 sec
     gradient                   ...        0 min,  0.032 sec
 * total energy  :  -207.0229605 Eh     change       -0.5799555E-02 Eh
   gradient norm :     0.0796020 Eh/α   predicted    -0.1076273E-01 (  85.58%)
   displ. norm   :     0.5259487 α      lambda       -0.1600829E-01
   maximum displ.:     0.1564993 α      in ANC's #80, #32, #8, ...

........................................................................
.............................. CYCLE   18 ..............................
........................................................................

 iter      E             dE          RMSdq      gap      omega  full diag
   1   -209.3052381 -0.209305E+03  0.280E-01    0.02       0.0  T
   2   -209.1978528  0.107385E+00  0.578E-01    0.22       1.0  T
   3   -209.1635310  0.343218E-01  0.654E-01    0.31       1.0  T
   4   -209.3045824 -0.141051E+00  0.169E-01    0.03       1.0  T
   5   -209.3072704 -0.268799E-02  0.818E-02    0.02       1.0  T
   6   -209.3060849  0.118551E-02  0.861E-02    0.02       1.0  T
   7   -209.3069578 -0.872925E-03  0.563E-02    0.01       1.0  T
   8   -209.3076114 -0.653535E-03  0.247E-02    0.01       1.0  T
   9   -209.3075783  0.330938E-04  0.236E-02    0.01       1.0  T
  10   -209.3075617  0.165919E-04  0.226E-02    0.01       1.0  T
  11   -209.3075831 -0.213634E-04  0.197E-02    0.01       1.0  T
  12   -209.3076203 -0.372222E-04  0.132E-02    0.01       1.0  T
  13   -209.3076667 -0.464485E-04  0.319E-03    0.01       3.1  T
  14   -209.3076691 -0.232717E-05  0.250E-03    0.01       4.0  T
  15   -209.3076696 -0.543629E-06  0.182E-03    0.01       5.5  T
  16   -209.3076695  0.106610E-06  0.118E-03    0.01       8.4  T
  17   -209.3076698 -0.284624E-06  0.293E-04    0.01      33.9  T
  18   -209.3076698 -0.224449E-07  0.210E-04    0.01      47.4  T
     SCC iter.                  ...        0 min,  1.057 sec
     gradient                   ...        0 min,  0.032 sec
 * total energy  :  -207.0272526 Eh     change       -0.4292105E-02 Eh
   gradient norm :     0.0873679 Eh/α   predicted    -0.1021828E-01 ( 138.07%)
   displ. norm   :     0.4654563 α      lambda       -0.1240950E-01
   maximum displ.:     0.1690098 α      in ANC's #14, #23, #8, ...

........................................................................
.............................. CYCLE   19 ..............................
........................................................................

 iter      E             dE          RMSdq      gap      omega  full diag
   1   -209.3119210 -0.209312E+03  0.190E-01    0.02       0.0  T
   2   -209.3105352  0.138580E-02  0.142E-01    0.03       1.0  T
   3   -209.2529090  0.576261E-01  0.436E-01    0.19       1.0  T
   4   -209.2960398 -0.431308E-01  0.248E-01    0.08       1.0  T
   5   -209.3118152 -0.157754E-01  0.644E-02    0.01       1.0  T
   6   -209.3122906 -0.475374E-03  0.338E-02    0.01       1.0  T
   7   -209.3124776 -0.186993E-03  0.167E-02    0.01       1.0  T
   8   -209.3125000 -0.224114E-04  0.119E-02    0.01       1.0  T
   9   -209.3125101 -0.101336E-04  0.877E-03    0.01       1.1  T
  10   -209.3125281 -0.179223E-04  0.285E-03    0.01       3.5  T
  11   -209.3125299 -0.184657E-05  0.113E-03    0.01       8.8  T
  12   -209.3125299 -0.362224E-07  0.888E-04    0.01      11.2  T
  13   -209.3125300 -0.715076E-07  0.675E-04    0.01      14.7  T
     SCC iter.                  ...        0 min,  0.755 sec
     gradient                   ...        0 min,  0.033 sec
 * total energy  :  -207.0330228 Eh     change       -0.5770188E-02 Eh
   gradient norm :     0.0489608 Eh/α   predicted    -0.7549006E-02 (  30.83%)
   displ. norm   :     0.5197666 α      lambda       -0.9797310E-02
   maximum displ.:     0.1700140 α      in ANC's #18, #14, #8, ...

........................................................................
.............................. CYCLE   20 ..............................
........................................................................

 iter      E             dE          RMSdq      gap      omega  full diag
   1   -209.3324857 -0.209332E+03  0.208E-01    0.02       0.0  T
   2   -209.3109514  0.215343E-01  0.297E-01    0.11       1.0  T
   3   -209.2665950  0.443564E-01  0.471E-01    0.24       1.0  T
   4   -209.3327853 -0.661903E-01  0.916E-02    0.02       1.0  T
   5   -209.3312080  0.157737E-02  0.104E-01    0.02       1.0  T
   6   -209.3333831 -0.217519E-02  0.344E-02    0.01       1.0  T
   7   -209.3335193 -0.136157E-03  0.178E-02    0.01       1.0  T
   8   -209.3335500 -0.306719E-04  0.126E-02    0.01       1.0  T
   9   -209.3335575 -0.751618E-05  0.903E-03    0.01       1.1  T
  10   -209.3335786 -0.210984E-04  0.237E-03    0.01       4.2  T
  11   -209.3335792 -0.562259E-06  0.144E-03    0.02       6.9  T
  12   -209.3335796 -0.413291E-06  0.556E-04    0.01      17.9  T
  13   -209.3335796 -0.391558E-07  0.258E-04    0.01      38.6  T
     SCC iter.                  ...        0 min,  0.638 sec
     gradient                   ...        0 min,  0.034 sec
 * total energy  :  -207.0336070 Eh     change       -0.5841352E-03 Eh
   gradient norm :     0.0857567 Eh/α   predicted    -0.6222065E-02 ( 965.18%)
   displ. norm   :     0.3934132 α      lambda       -0.1164046E-01
   maximum displ.:     0.1270787 α      in ANC's #23, #14, #8, ...
 * RMSD in coord.:     0.8997291 α      energy gain  -0.2129712E+01 Eh

generating ANC from model Hessian ...
Using Lindh-Hessian (1995)
 Shifting diagonal of input Hessian by    9.9524318031914121E-003
 Lowest  eigenvalues of input Hessian
    0.000000    0.000000    0.000000    0.000000    0.000000    0.000000
    0.010000    0.010007    0.010087    0.010132    0.010207    0.010315
    0.010455    0.010467    0.010604    0.010697    0.010765    0.010992
 Highest eigenvalues
    2.612728    2.642364    2.648387    2.658892    2.661416    2.687587


........................................................................
.............................. CYCLE   21 ..............................
........................................................................

 iter      E             dE          RMSdq      gap      omega  full diag
   1   -209.3288065 -0.209329E+03  0.172E-01    0.02       0.0  T
   2   -209.3073863  0.214202E-01  0.284E-01    0.09       1.0  T
   3   -209.2832448  0.241415E-01  0.394E-01    0.21       1.0  T
   4   -209.3285594 -0.453146E-01  0.877E-02    0.02       1.0  T
   5   -209.3282753  0.284137E-03  0.746E-02    0.02       1.0  T
   6   -209.3291357 -0.860406E-03  0.367E-02    0.02       1.0  T
   7   -209.3294143 -0.278665E-03  0.106E-02    0.02       1.0  T
   8   -209.3294169 -0.257403E-05  0.102E-02    0.02       1.0  T
   9   -209.3294237 -0.683565E-05  0.800E-03    0.02       1.2  T
  10   -209.3294413 -0.175726E-04  0.161E-03    0.02       6.2  T
  11   -209.3294417 -0.425024E-06  0.699E-04    0.02      14.2  T
  12   -209.3294418 -0.477980E-07  0.359E-04    0.02      27.7  T
     SCC iter.                  ...        0 min,  0.694 sec
     gradient                   ...        0 min,  0.032 sec
 * total energy  :  -207.0389550 Eh     change       -0.5348066E-02 Eh
   gradient norm :     0.0411644 Eh/α   predicted     0.0000000E+00 (-100.00%)
   displ. norm   :     0.3426507 α      lambda       -0.4664527E-02
   maximum displ.:     0.1331657 α      in ANC's #20, #8, #15, ...

........................................................................
.............................. CYCLE   22 ..............................
........................................................................

 iter      E             dE          RMSdq      gap      omega  full diag
   1   -209.3378365 -0.209338E+03  0.922E-02    0.02       0.0  T
   2   -209.3352853  0.255120E-02  0.104E-01    0.03       1.0  T
   3   -209.3095199  0.257655E-01  0.308E-01    0.14       1.0  T
   4   -209.3371040 -0.275841E-01  0.535E-02    0.03       1.0  T
   5   -209.3378671 -0.763113E-03  0.129E-02    0.02       1.0  T
   6   -209.3378648  0.222541E-05  0.109E-02    0.02       1.0  T
   7   -209.3378864 -0.215133E-04  0.442E-03    0.02       2.3  T
   8   -209.3378887 -0.235665E-05  0.217E-03    0.02       4.6  T
   9   -209.3378893 -0.579883E-06  0.107E-03    0.02       9.3  T
  10   -209.3378894 -0.841017E-07  0.591E-04    0.02      16.8  T
  11   -209.3378894 -0.379487E-07  0.337E-04    0.02      29.5  T
     SCC iter.                  ...        0 min,  0.652 sec
     gradient                   ...        0 min,  0.033 sec
 * total energy  :  -207.0425967 Eh     change       -0.3641710E-02 Eh
   gradient norm :     0.0194437 Eh/α   predicted    -0.2607634E-02 ( -28.40%)
   displ. norm   :     0.5690554 α      lambda       -0.4078434E-02
   maximum displ.:     0.2359790 α      in ANC's #8, #20, #15, ...

........................................................................
.............................. CYCLE   23 ..............................
........................................................................

 iter      E             dE          RMSdq      gap      omega  full diag
   1   -209.3438648 -0.209344E+03  0.127E-01    0.02       0.0  T
   2   -209.3373878  0.647707E-02  0.159E-01    0.04       1.0  T
   3   -209.3071951  0.301927E-01  0.352E-01    0.18       1.0  T
   4   -209.3413322 -0.341372E-01  0.956E-02    0.04       1.0  T
   5   -209.3438597 -0.252749E-02  0.236E-02    0.02       1.0  T
   6   -209.3438985 -0.387497E-04  0.169E-02    0.02       1.0  T
   7   -209.3439564 -0.579578E-04  0.541E-03    0.02       1.8  T
   8   -209.3439586 -0.213009E-05  0.305E-03    0.02       3.3  T
   9   -209.3439596 -0.105596E-05  0.185E-03    0.02       5.4  T
  10   -209.3439602 -0.614550E-06  0.804E-04    0.02      12.4  T
  11   -209.3439602  0.178678E-07  0.576E-04    0.02      17.3  T
     SCC iter.                  ...        0 min,  0.573 sec
     gradient                   ...        0 min,  0.031 sec
 * total energy  :  -207.0456457 Eh     change       -0.3048980E-02 Eh
   gradient norm :     0.0127408 Eh/α   predicted    -0.2700079E-02 ( -11.44%)
   displ. norm   :     0.5937602 α      lambda       -0.2539299E-02
   maximum displ.:     0.2664291 α      in ANC's #8, #20, #15, ...

........................................................................
.............................. CYCLE   24 ..............................
........................................................................

 iter      E             dE          RMSdq      gap      omega  full diag
   1   -209.3450963 -0.209345E+03  0.118E-01    0.02       0.0  T
   2   -209.3395488  0.554742E-02  0.147E-01    0.04       1.0  T
   3   -209.3111310  0.284178E-01  0.339E-01    0.17       1.0  T
   4   -209.3430005 -0.318695E-01  0.865E-02    0.04       1.0  T
   5   -209.3451319 -0.213142E-02  0.173E-02    0.02       1.0  T
   6   -209.3450940  0.379447E-04  0.174E-02    0.02       1.0  T
   7   -209.3451648 -0.708664E-04  0.555E-03    0.02       1.8  T
   8   -209.3451676 -0.274544E-05  0.358E-03    0.02       2.8  T
   9   -209.3451692 -0.161018E-05  0.190E-03    0.02       5.2  T
  10   -209.3451698 -0.638026E-06  0.734E-04    0.02      13.6  T
  11   -209.3451697  0.100652E-06  0.743E-04    0.02      13.4  T
     SCC iter.                  ...        0 min,  0.602 sec
     gradient                   ...        0 min,  0.033 sec
 * total energy  :  -207.0477174 Eh     change       -0.2071704E-02 Eh
   gradient norm :     0.0173559 Eh/α   predicted    -0.1717267E-02 ( -17.11%)
   displ. norm   :     0.6505258 α      lambda       -0.2342335E-02
   maximum displ.:     0.3049082 α      in ANC's #8, #20, #15, ...

........................................................................
.............................. CYCLE   25 ..............................
........................................................................

 iter      E             dE          RMSdq      gap      omega  full diag
   1   -209.3458629 -0.209346E+03  0.119E-01    0.02       0.0  T
   2   -209.3420544  0.380846E-02  0.127E-01    0.03       1.0  T
   3   -209.3079818  0.340727E-01  0.357E-01    0.19       1.0  T
   4   -209.3441415 -0.361598E-01  0.799E-02    0.04       1.0  T
   5   -209.3458556 -0.171412E-02  0.223E-02    0.02       1.0  T
   6   -209.3458247  0.309584E-04  0.207E-02    0.02       1.0  T
   7   -209.3459278 -0.103080E-03  0.628E-03    0.02       1.6  T
   8   -209.3459288 -0.104740E-05  0.494E-03    0.02       2.0  T
   9   -209.3459333 -0.453846E-05  0.195E-03    0.02       5.1  T
  10   -209.3459339 -0.600343E-06  0.861E-04    0.02      11.6  T
  11   -209.3459338  0.113838E-06  0.877E-04    0.02      11.3  T
     SCC iter.                  ...        0 min,  0.543 sec
     gradient                   ...        0 min,  0.034 sec
 * total energy  :  -207.0496967 Eh     change       -0.1979310E-02 Eh
   gradient norm :     0.0166621 Eh/α   predicted    -0.1666821E-02 ( -15.79%)
   displ. norm   :     0.6802166 α      lambda       -0.2293018E-02
   maximum displ.:     0.3332056 α      in ANC's #8, #20, #13, ...

........................................................................
.............................. CYCLE   26 ..............................
........................................................................

 iter      E             dE          RMSdq      gap      omega  full diag
   1   -209.3484709 -0.209348E+03  0.120E-01    0.02       0.0  T
   2   -209.3477902  0.680674E-03  0.796E-02    0.02       1.0  T
   3   -209.3096330  0.381572E-01  0.360E-01    0.20       1.0  T
   4   -209.3481680 -0.385350E-01  0.456E-02    0.02       1.0  T
   5   -209.3480344  0.133616E-03  0.474E-02    0.03       1.0  T
   6   -209.3485011 -0.466716E-03  0.145E-02    0.02       1.0  T
   7   -209.3485410 -0.398847E-04  0.650E-03    0.02       1.5  T
   8   -209.3485418 -0.730869E-06  0.463E-03    0.02       2.2  T
   9   -209.3485457 -0.390209E-05  0.183E-03    0.02       5.4  T
  10   -209.3485462 -0.580781E-06  0.872E-04    0.02      11.4  T
  11   -209.3485462  0.304325E-08  0.688E-04    0.02      14.5  T
     SCC iter.                  ...        0 min,  0.729 sec
     gradient                   ...        0 min,  0.032 sec
 * total energy  :  -207.0516368 Eh     change       -0.1940060E-02 Eh
   gradient norm :     0.0132584 Eh/α   predicted    -0.1677000E-02 ( -13.56%)
   displ. norm   :     0.6996951 α      lambda       -0.2054567E-02
   maximum displ.:     0.3565540 α      in ANC's #8, #1, #13, ...

........................................................................
.............................. CYCLE   27 ..............................
........................................................................

 iter      E             dE          RMSdq      gap      omega  full diag
   1   -209.3520668 -0.209352E+03  0.124E-01    0.02       0.0  T
   2   -209.3519617  0.105182E-03  0.693E-02    0.02       1.0  T
   3   -209.3366238  0.153379E-01  0.230E-01    0.09       1.0  T
   4   -209.3408327 -0.420887E-02  0.196E-01    0.06       1.0  T
   5   -209.3518839 -0.110513E-01  0.371E-02    0.03       1.0  T
   6   -209.3521471 -0.263136E-03  0.107E-02    0.02       1.0  T
   7   -209.3521556 -0.850805E-05  0.642E-03    0.02       1.6  T
   8   -209.3521591 -0.348902E-05  0.305E-03    0.02       3.3  T
   9   -209.3521606 -0.155197E-05  0.992E-04    0.02      10.0  T
  10   -209.3521606 -0.954037E-08  0.747E-04    0.02      13.3  T
  11   -209.3521607 -0.445746E-07  0.404E-04    0.02      24.6  T
     SCC iter.                  ...        0 min,  0.643 sec
     gradient                   ...        0 min,  0.035 sec
 * total energy  :  -207.0533630 Eh     change       -0.1726149E-02 Eh
   gradient norm :     0.0121607 Eh/α   predicted    -0.1530233E-02 ( -11.35%)
   displ. norm   :     0.7127572 α      lambda       -0.1723884E-02
   maximum displ.:     0.3750891 α      in ANC's #8, #1, #2, ...

........................................................................
.............................. CYCLE   28 ..............................
........................................................................

 iter      E             dE          RMSdq      gap      omega  full diag
   1   -209.3547616 -0.209355E+03  0.123E-01    0.02       0.0  T
   2   -209.3535288  0.123277E-02  0.904E-02    0.02       1.0  T
   3   -209.3141573  0.393715E-01  0.368E-01    0.21       1.0  T
   4   -209.3541441 -0.399867E-01  0.611E-02    0.02       1.0  T
   5   -209.3541790 -0.349652E-04  0.521E-02    0.03       1.0  T
   6   -209.3547504 -0.571410E-03  0.206E-02    0.02       1.0  T
   7   -209.3548531 -0.102628E-03  0.658E-03    0.02       1.5  T
   8   -209.3548490  0.406946E-05  0.633E-03    0.02       1.6  T
   9   -209.3548571 -0.816027E-05  0.235E-03    0.02       4.2  T
  10   -209.3548584 -0.121614E-05  0.800E-04    0.02      12.4  T
  11   -209.3548584 -0.396023E-07  0.517E-04    0.02      19.2  T
  12   -209.3548584 -0.390776E-07  0.231E-04    0.02      43.0  T
     SCC iter.                  ...        0 min,  0.706 sec
     gradient                   ...        0 min,  0.032 sec
 * total energy  :  -207.0548305 Eh     change       -0.1467559E-02 Eh
   gradient norm :     0.0122115 Eh/α   predicted    -0.1299838E-02 ( -11.43%)
   displ. norm   :     0.7056797 α      lambda       -0.1541310E-02
   maximum displ.:     0.3817709 α      in ANC's #8, #1, #2, ...

........................................................................
.............................. CYCLE   29 ..............................
........................................................................

 iter      E             dE          RMSdq      gap      omega  full diag
   1   -209.3591972 -0.209359E+03  0.116E-01    0.02       0.0  T
   2   -209.3548111  0.438611E-02  0.133E-01    0.04       1.0  T
   3   -209.3255010  0.293101E-01  0.338E-01    0.18       1.0  T
   4   -209.3576087 -0.321078E-01  0.821E-02    0.03       1.0  T
   5   -209.3587676 -0.115883E-02  0.452E-02    0.03       1.0  T
   6   -209.3591685 -0.400961E-03  0.212E-02    0.02       1.0  T
   7   -209.3592790 -0.110443E-03  0.730E-03    0.02       1.4  T
   8   -209.3592802 -0.128105E-05  0.607E-03    0.02       1.6  T
   9   -209.3592887 -0.841179E-05  0.201E-03    0.02       4.9  T
  10   -209.3592895 -0.849982E-06  0.669E-04    0.02      14.9  T
  11   -209.3592895 -0.509888E-08  0.477E-04    0.02      20.8  T
     SCC iter.                  ...        0 min,  0.539 sec
     gradient                   ...        0 min,  0.034 sec
 * total energy  :  -207.0561581 Eh     change       -0.1327570E-02 Eh
   gradient norm :     0.0112536 Eh/α   predicted    -0.1154448E-02 ( -13.04%)
   displ. norm   :     0.7365396 α      lambda       -0.1492325E-02
   maximum displ.:     0.3970314 α      in ANC's #8, #1, #2, ...

........................................................................
.............................. CYCLE   30 ..............................
........................................................................

 iter      E             dE          RMSdq      gap      omega  full diag
   1   -209.3603666 -0.209360E+03  0.116E-01    0.03       0.0  T
   2   -209.3484603  0.119063E-01  0.205E-01    0.06       1.0  T
   3   -209.3379996  0.104607E-01  0.278E-01    0.13       1.0  T
   4   -209.3585419 -0.205423E-01  0.861E-02    0.04       1.0  T
   5   -209.3601088 -0.156688E-02  0.391E-02    0.03       1.0  T
   6   -209.3604246 -0.315789E-03  0.171E-02    0.02       1.0  T
   7   -209.3604703 -0.457247E-04  0.101E-02    0.02       1.0  T
   8   -209.3604935 -0.232472E-04  0.351E-03    0.02       2.8  T
   9   -209.3604959 -0.234260E-05  0.138E-03    0.02       7.2  T
  10   -209.3604962 -0.337150E-06  0.612E-04    0.02      16.2  T
  11   -209.3604962 -0.145184E-07  0.388E-04    0.02      25.6  T
     SCC iter.                  ...        0 min,  0.560 sec
     gradient                   ...        0 min,  0.033 sec
 * total energy  :  -207.0574741 Eh     change       -0.1316047E-02 Eh
   gradient norm :     0.0121152 Eh/α   predicted    -0.1150954E-02 ( -12.54%)
   displ. norm   :     0.7647547 α      lambda       -0.1711521E-02
   maximum displ.:     0.3936260 α      in ANC's #8, #1, #2, ...

........................................................................
.............................. CYCLE   31 ..............................
........................................................................

 iter      E             dE          RMSdq      gap      omega  full diag
   1   -209.3694353 -0.209369E+03  0.120E-01    0.03       0.0  T
   2   -209.3516598  0.177754E-01  0.249E-01    0.08       1.0  T
   3   -209.3515870  0.728773E-04  0.251E-01    0.11       1.0  T
   4   -209.3680195 -0.164325E-01  0.767E-02    0.04       1.0  T
   5   -209.3693741 -0.135459E-02  0.312E-02    0.03       1.0  T
   6   -209.3695529 -0.178789E-03  0.151E-02    0.02       1.0  T
   7   -209.3695870 -0.341481E-04  0.875E-03    0.02       1.1  T
   8   -209.3696035 -0.164483E-04  0.326E-03    0.02       3.1  T
   9   -209.3696054 -0.191450E-05  0.113E-03    0.02       8.8  T
  10   -209.3696055 -0.149783E-06  0.603E-04    0.02      16.5  T
  11   -209.3696055 -0.923336E-08  0.326E-04    0.02      30.6  T
     SCC iter.                  ...        0 min,  0.663 sec
     gradient                   ...        0 min,  0.032 sec
 * total energy  :  -207.0588412 Eh     change       -0.1367085E-02 Eh
   gradient norm :     0.0149683 Eh/α   predicted    -0.1356254E-02 (  -0.79%)
   displ. norm   :     0.7883289 α      lambda       -0.1700716E-02
   maximum displ.:     0.3935250 α      in ANC's #8, #2, #7, ...

........................................................................
.............................. CYCLE   32 ..............................
........................................................................

 iter      E             dE          RMSdq      gap      omega  full diag
   1   -209.3636456 -0.209364E+03  0.123E-01    0.03       0.0  T
   2   -209.3431055  0.205401E-01  0.266E-01    0.08       1.0  T
   3   -209.3465524 -0.344699E-02  0.247E-01    0.11       1.0  T
   4   -209.3626120 -0.160595E-01  0.672E-02    0.04       1.0  T
   5   -209.3636861 -0.107414E-02  0.268E-02    0.03       1.0  T
   6   -209.3637680 -0.818974E-04  0.175E-02    0.02       1.0  T
   7   -209.3638074 -0.393750E-04  0.110E-02    0.02       1.0  T
   8   -209.3638381 -0.306937E-04  0.279E-03    0.03       3.6  T
   9   -209.3638392 -0.111337E-05  0.121E-03    0.03       8.2  T
  10   -209.3638393 -0.160362E-06  0.673E-04    0.03      14.8  T
  11   -209.3638393 -0.524594E-08  0.418E-04    0.03      23.8  T
     SCC iter.                  ...        0 min,  0.659 sec
     gradient                   ...        0 min,  0.035 sec
 * total energy  :  -207.0602520 Eh     change       -0.1410826E-02 Eh
   gradient norm :     0.0138838 Eh/α   predicted    -0.1378824E-02 (  -2.27%)
   displ. norm   :     0.7367643 α      lambda       -0.1499551E-02
   maximum displ.:     0.3295269 α      in ANC's #8, #7, #2, ...

........................................................................
.............................. CYCLE   33 ..............................
........................................................................

 iter      E             dE          RMSdq      gap      omega  full diag
   1   -209.3640902 -0.209364E+03  0.114E-01    0.03       0.0  T
   2   -209.3476420  0.164482E-01  0.239E-01    0.07       1.0  T
   3   -209.3479502 -0.308218E-03  0.239E-01    0.10       1.0  T
   4   -209.3632540 -0.153037E-01  0.611E-02    0.04       1.0  T
   5   -209.3640938 -0.839766E-03  0.242E-02    0.03       1.0  T
   6   -209.3641786 -0.848537E-04  0.147E-02    0.02       1.0  T
   7   -209.3642276 -0.489898E-04  0.587E-03    0.02       1.7  T
   8   -209.3642355 -0.792136E-05  0.210E-03    0.02       4.7  T
   9   -209.3642355 -0.279667E-08  0.179E-03    0.02       5.6  T
  10   -209.3642361 -0.592498E-06  0.803E-04    0.02      12.4  T
  11   -209.3642362 -0.336220E-07  0.486E-04    0.02      20.5  T
     SCC iter.                  ...        0 min,  0.669 sec
     gradient                   ...        0 min,  0.035 sec
 * total energy  :  -207.0615666 Eh     change       -0.1314529E-02 Eh
   gradient norm :     0.0121720 Eh/α   predicted    -0.1156771E-02 ( -12.00%)
   displ. norm   :     0.7500830 α      lambda       -0.1531731E-02
   maximum displ.:     0.3002048 α      in ANC's #8, #7, #1, ...

........................................................................
.............................. CYCLE   34 ..............................
........................................................................

 iter      E             dE          RMSdq      gap      omega  full diag
   1   -209.3648001 -0.209365E+03  0.117E-01    0.03       0.0  T
   2   -209.3587593  0.604079E-02  0.154E-01    0.04       1.0  T
   3   -209.3370622  0.216971E-01  0.309E-01    0.16       1.0  T
   4   -209.3626824 -0.256202E-01  0.884E-02    0.04       1.0  T
   5   -209.3645656 -0.188318E-02  0.343E-02    0.03       1.0  T
   6   -209.3648374 -0.271806E-03  0.131E-02    0.02       1.0  T
   7   -209.3648608 -0.234294E-04  0.803E-03    0.02       1.2  T
   8   -209.3648711 -0.102933E-04  0.397E-03    0.02       2.5  T
   9   -209.3648725 -0.135504E-05  0.233E-03    0.02       4.3  T
  10   -209.3648736 -0.109913E-05  0.954E-04    0.02      10.4  T
  11   -209.3648736 -0.143767E-07  0.661E-04    0.02      15.0  T
  12   -209.3648736 -0.442293E-07  0.351E-04    0.02      28.4  T
     SCC iter.                  ...        0 min,  0.579 sec
     gradient                   ...        0 min,  0.032 sec
 * total energy  :  -207.0628315 Eh     change       -0.1264976E-02 Eh
   gradient norm :     0.0121630 Eh/α   predicted    -0.1196760E-02 (  -5.39%)
   displ. norm   :     0.7501968 α      lambda       -0.1389771E-02
   maximum displ.:     0.2838712 α      in ANC's #7, #8, #2, ...

........................................................................
.............................. CYCLE   35 ..............................
........................................................................

 iter      E             dE          RMSdq      gap      omega  full diag
   1   -209.3710294 -0.209371E+03  0.117E-01    0.02       0.0  T
   2   -209.3667489  0.428050E-02  0.134E-01    0.03       1.0  T
   3   -209.3397900  0.269588E-01  0.327E-01    0.18       1.0  T
   4   -209.3686801 -0.288900E-01  0.943E-02    0.04       1.0  T
   5   -209.3704910 -0.181095E-02  0.461E-02    0.03       1.0  T
   6   -209.3710629 -0.571922E-03  0.120E-02    0.02       1.0  T
   7   -209.3710427  0.202333E-04  0.127E-02    0.02       1.0  T
   8   -209.3710856 -0.429294E-04  0.340E-03    0.02       2.9  T
   9   -209.3710863 -0.685288E-06  0.219E-03    0.02       4.5  T
  10   -209.3710872 -0.876548E-06  0.100E-03    0.02       9.9  T
  11   -209.3710872 -0.442658E-07  0.648E-04    0.02      15.3  T
  12   -209.3710873 -0.102121E-07  0.464E-04    0.02      21.4  T
     SCC iter.                  ...        0 min,  0.766 sec
     gradient                   ...        0 min,  0.032 sec
 * total energy  :  -207.0638469 Eh     change       -0.1015394E-02 Eh
   gradient norm :     0.0157378 Eh/α   predicted    -0.1085965E-02 (   6.95%)
   displ. norm   :     0.7780772 α      lambda       -0.1308915E-02
   maximum displ.:     0.3427114 α      in ANC's #8, #1, #7, ...

........................................................................
.............................. CYCLE   36 ..............................
........................................................................

 iter      E             dE          RMSdq      gap      omega  full diag
   1   -209.3630407 -0.209363E+03  0.114E-01    0.02       0.0  T
   2   -209.3615800  0.146072E-02  0.921E-02    0.02       1.0  T
   3   -209.3233970  0.381829E-01  0.363E-01    0.21       1.0  T
   4   -209.3617716 -0.383746E-01  0.689E-02    0.04       1.0  T
   5   -209.3630125 -0.124093E-02  0.193E-02    0.02       1.0  T
   6   -209.3630117  0.806833E-06  0.177E-02    0.02       1.0  T
   7   -209.3630678 -0.561283E-04  0.751E-03    0.02       1.3  T
   8   -209.3630764 -0.852620E-05  0.474E-03    0.02       2.1  T
   9   -209.3630805 -0.415768E-05  0.227E-03    0.02       4.4  T
  10   -209.3630814 -0.865667E-06  0.112E-03    0.02       8.9  T
  11   -209.3630815 -0.116739E-06  0.708E-04    0.02      14.1  T
  12   -209.3630816 -0.688597E-07  0.308E-04    0.02      32.3  T
     SCC iter.                  ...        0 min,  0.826 sec
     gradient                   ...        0 min,  0.032 sec
 * total energy  :  -207.0648445 Eh     change       -0.9975555E-03 Eh
   gradient norm :     0.0150149 Eh/α   predicted    -0.1050673E-02 (   5.32%)
   displ. norm   :     0.6190842 α      lambda       -0.1122899E-02
   maximum displ.:     0.2366185 α      in ANC's #7, #2, #1, ...

........................................................................
.............................. CYCLE   37 ..............................
........................................................................

 iter      E             dE          RMSdq      gap      omega  full diag
   1   -209.3689399 -0.209369E+03  0.959E-02    0.02       0.0  T
   2   -209.3613758  0.756416E-02  0.167E-01    0.07       1.0  T
   3   -209.3485411  0.128346E-01  0.263E-01    0.08       1.0  T
   4   -209.3688900 -0.203488E-01  0.265E-02    0.02       1.0  T
   5   -209.3689899 -0.999296E-04  0.154E-02    0.02       1.0  T
   6   -209.3690175 -0.276038E-04  0.778E-03    0.02       1.3  T
   7   -209.3690210 -0.355712E-05  0.473E-03    0.02       2.1  T
   8   -209.3690234 -0.232755E-05  0.294E-03    0.02       3.4  T
   9   -209.3690246 -0.122548E-05  0.138E-03    0.02       7.2  T
  10   -209.3690249 -0.284973E-06  0.682E-04    0.02      14.6  T
  11   -209.3690249 -0.900189E-08  0.446E-04    0.02      22.3  T
     SCC iter.                  ...        0 min,  0.731 sec
     gradient                   ...        0 min,  0.032 sec
 * total energy  :  -207.0656530 Eh     change       -0.8085010E-03 Eh
   gradient norm :     0.0157834 Eh/α   predicted    -0.7766373E-03 (  -3.94%)
   displ. norm   :     0.6601780 α      lambda       -0.1111010E-02
   maximum displ.:     0.2631863 α      in ANC's #2, #7, #1, ...

........................................................................
.............................. CYCLE   38 ..............................
........................................................................

 iter      E             dE          RMSdq      gap      omega  full diag
   1   -209.3720983 -0.209372E+03  0.101E-01    0.02       0.0  T
   2   -209.3704313  0.166703E-02  0.917E-02    0.04       1.0  T
   3   -209.3263392  0.440920E-01  0.388E-01    0.15       1.0  T
   4   -209.3720425 -0.457033E-01  0.245E-02    0.02       1.0  T
   5   -209.3720920 -0.495252E-04  0.163E-02    0.02       1.0  T
   6   -209.3721195 -0.274978E-04  0.109E-02    0.02       1.0  T
   7   -209.3721383 -0.187497E-04  0.447E-03    0.02       2.2  T
   8   -209.3721384 -0.899999E-07  0.372E-03    0.02       2.7  T
   9   -209.3721406 -0.217560E-05  0.199E-03    0.02       5.0  T
  10   -209.3721415 -0.932627E-06  0.657E-04    0.02      15.1  T
  11   -209.3721414  0.593871E-07  0.626E-04    0.02      15.9  T
     SCC iter.                  ...        0 min,  0.615 sec
     gradient                   ...        0 min,  0.035 sec
 * total energy  :  -207.0664043 Eh     change       -0.7512770E-03 Eh
   gradient norm :     0.0132593 Eh/α   predicted    -0.7976178E-03 (   6.17%)
   displ. norm   :     0.6646617 α      lambda       -0.9544851E-03
   maximum displ.:     0.2761671 α      in ANC's #2, #1, #7, ...

........................................................................
.............................. CYCLE   39 ..............................
........................................................................

 iter      E             dE          RMSdq      gap      omega  full diag
   1   -209.3712165 -0.209371E+03  0.983E-02    0.02       0.0  T
   2   -209.3708580  0.358476E-03  0.622E-02    0.03       1.0  T
   3   -209.3260213  0.448367E-01  0.385E-01    0.15       1.0  T
   4   -209.3710992 -0.450779E-01  0.288E-02    0.02       1.0  T
   5   -209.3710756  0.235660E-04  0.281E-02    0.02       1.0  T
   6   -209.3712373 -0.161649E-03  0.881E-03    0.02       1.1  T
   7   -209.3712443 -0.699012E-05  0.456E-03    0.02       2.2  T
   8   -209.3712463 -0.201196E-05  0.279E-03    0.02       3.6  T
   9   -209.3712471 -0.860883E-06  0.131E-03    0.02       7.6  T
  10   -209.3712474 -0.305145E-06  0.564E-04    0.02      17.6  T
  11   -209.3712473  0.131730E-06  0.721E-04    0.02      13.8  T
     SCC iter.                  ...        0 min,  0.577 sec
     gradient                   ...        0 min,  0.034 sec
 * total energy  :  -207.0670814 Eh     change       -0.6771219E-03 Eh
   gradient norm :     0.0138106 Eh/α   predicted    -0.6880820E-03 (   1.62%)
   displ. norm   :     0.5914950 α      lambda       -0.8937545E-03
[...]
    48   8 O        1.638    -0.403    20.921     6.174
    49   8 O        1.638    -0.396    20.785     6.154
    50  16 S        3.130     0.730   114.781    18.032
    51  16 S        2.852     0.688   116.102    18.135
    52  16 S        2.846     0.690   116.028    18.129
    53   5 B        3.202     0.626    13.244     6.069
    54   8 O        0.860    -0.495    23.682     6.525
    55   8 O        1.706    -0.373    20.323     6.087
    56   6 C        3.739     0.045    19.889     6.364
    57   8 O        1.912    -0.401    20.829     6.164
    58   6 C        3.705     0.032    20.177     6.422
    59   8 O        0.860    -0.522    24.279     6.606
    60   8 O        0.963    -0.559    25.058     6.714
    61   8 O        1.706    -0.378    20.402     6.098
    62   6 C        3.718     0.042    19.978     6.385
    63   8 O        0.860    -0.496    23.688     6.525
    64   8 O        1.706    -0.373    20.320     6.086
    65   6 C        3.739     0.046    19.884     6.362
    66   8 O        0.860    -0.498    23.733     6.532
    67   8 O        1.706    -0.371    20.283     6.081
    68   6 C        3.747     0.044    19.900     6.363
    69   8 O        0.860    -0.503    23.841     6.546
    70   8 O        1.706    -0.380    20.450     6.106
    71   6 C        3.734     0.048    19.852     6.359
    72   1 H        0.925     0.063     2.165     2.301
    73   1 H        0.924     0.064     2.153     2.295
    74   1 H        0.924     0.035     2.512     2.479
    75   1 H        0.925     0.063     2.161     2.299
    76   1 H        0.924     0.062     2.172     2.305
    77   1 H        0.924     0.042     2.417     2.431
    78   1 H        0.925     0.055     2.254     2.348
    79   1 H        0.924     0.036     2.498     2.472
    80   1 H        0.924     0.062     2.179     2.308
    81   1 H        0.925     0.064     2.155     2.296
    82   1 H        0.924     0.041     2.436     2.441
    83   1 H        0.924     0.062     2.181     2.310
    84   1 H        0.924     0.055     2.264     2.353
    85   1 H        0.924     0.088     1.894     2.152
    86   1 H        0.924     0.053     2.279     2.361
    87   1 H        0.925     0.063     2.159     2.298
    88   1 H        0.924     0.035     2.511     2.478
    89   1 H        0.924     0.064     2.150     2.293
    90   1 H        0.926     0.096     1.821     2.110
    91   1 H        0.926     0.076     2.017     2.221
    92   1 H        0.926     0.095     1.834     2.118
    93   1 H        0.926     0.070     2.082     2.257
    94   1 H        0.926     0.076     2.022     2.224
    95   1 H        0.926     0.075     2.031     2.229
    96   1 H        0.926     0.065     2.145     2.290
    97   1 H        0.926     0.062     2.171     2.304
    98   1 H        0.926     0.081     1.968     2.194
    99   1 H        0.926     0.091     1.870     2.138
   100   1 H        0.926     0.098     1.802     2.099
   101   1 H        0.926     0.079     1.986     2.204

 Mol. C6AA /au·bohr⁶  :     187204.070897
 Mol. C8AA /au·bohr⁸  :    5159287.176826
 Mol. α(0) /au        :        680.390902


Wiberg/Mayer (AO) data.
largest (>0.10) Wiberg bond orders for each atom

 ---------------------------------------------------------------------------
     #   Z sym  total        # sym  WBO       # sym  WBO       # sym  WBO
 ---------------------------------------------------------------------------
     1   6 C    3.901 --     2 C    1.382     6 C    1.335    96 H    0.955
     2   6 C    3.943 --     1 C    1.382     3 C    1.262    22 O    1.103
     3   6 C    3.956 --     2 C    1.262     7 C    1.222     4 C    1.178
     4   6 C    3.971 --    10 N    1.382     5 C    1.218     3 C    1.178
     5   6 C    3.919 --     6 C    1.524     4 C    1.218    99 H    0.956
     6   6 C    3.960 --     5 C    1.524     1 C    1.335    24 S    0.899
     7   6 C    3.982 --     8 C    1.308     3 C    1.222    11 C    1.205
     8   6 C    3.983 --     7 C    1.308     9 C    1.197    14 C    1.197
     9   6 C    3.979 --    10 N    1.342    17 C    1.254     8 C    1.197
    10   7 N    2.977 --     4 C    1.382     9 C    1.342
    11   6 C    3.957 --    18 C    1.273     7 C    1.205    12 C    1.177
    12   6 C    3.970 --    13 N    1.384    21 C    1.220    11 C    1.177
    13   7 N    2.980 --    12 C    1.384    14 C    1.334
    14   6 C    3.980 --    13 N    1.334    15 C    1.264     8 C    1.197
    15   6 C    3.851 --    16 C    1.430    14 C    1.264   101 H    0.962
    16   6 C    3.963 --    17 C    1.440    15 C    1.430    26 S    0.895
    17   6 C    3.846 --    16 C    1.440     9 C    1.254   100 H    0.955
    18   6 C    3.938 --    19 C    1.346    11 C    1.273    23 O    1.123
    19   6 C    3.883 --    20 C    1.358    18 C    1.346    97 H    0.958
    20   6 C    3.959 --    21 C    1.506    19 C    1.358    25 S    0.901
    21   6 C    3.903 --    20 C    1.506    12 C    1.220    98 H    0.959
    22   8 O    2.129 --     2 C    1.103    53 B    0.782
    23   8 O    2.138 --    18 C    1.123    53 B    0.772
    24  16 S    3.900 --    69 O    1.857    70 O    1.031     6 C    0.899
    25  16 S    3.889 --    59 O    1.827    57 O    0.964    20 C    0.901
    26  16 S    3.915 --    54 O    1.861    55 O    1.048    16 C    0.895
    27   6 C    3.902 --    28 C    1.373    32 C    1.345    95 H    0.960
    28   6 C    3.937 --    27 C    1.373    29 C    1.256    48 O    1.111
    29   6 C    3.959 --    28 C    1.256    33 C    1.227    30 C    1.186
    30   6 C    3.973 --    36 N    1.366    31 C    1.236    29 C    1.186
    31   6 C    3.922 --    32 C    1.513    30 C    1.236    93 H    0.963
    32   6 C    3.960 --    31 C    1.513    27 C    1.345    50 S    0.902
    33   6 C    3.982 --    34 C    1.313    29 C    1.227    37 C    1.199
    34   6 C    3.982 --    33 C    1.313    35 C    1.193    40 C    1.192
    35   6 C    3.978 --    36 N    1.355    43 C    1.248    34 C    1.193
    36   7 N    2.966 --    30 C    1.366    35 C    1.355
    37   6 C    3.951 --    44 C    1.265    33 C    1.199    38 C    1.167
    38   6 C    3.970 --    39 N    1.393    47 C    1.215    37 C    1.167
    39   7 N    2.995 --    38 C    1.393    40 C    1.333
    40   6 C    3.979 --    39 N    1.333    41 C    1.266    34 C    1.192
    41   6 C    3.845 --    42 C    1.424    40 C    1.266    90 H    0.956
    42   6 C    3.964 --    43 C    1.444    41 C    1.424    52 S    0.896
    43   6 C    3.848 --    42 C    1.444    35 C    1.248    91 H    0.962
    44   6 C    3.926 --    45 C    1.366    37 C    1.265    49 O    1.120
    45   6 C    3.885 --    44 C    1.366    46 C    1.343    94 H    0.949
    46   6 C    3.961 --    47 C    1.517    45 C    1.343    51 S    0.897
    47   6 C    3.909 --    46 C    1.517    38 C    1.215    92 H    0.955
    48   8 O    2.139 --    28 C    1.111    53 B    0.790
    49   8 O    2.171 --    44 C    1.120    53 B    0.803
    50  16 S    3.947 --    60 O    1.726    61 O    1.064    32 C    0.902
                            57 O    0.131
    51  16 S    3.926 --    66 O    1.853    67 O    1.059    46 C    0.897
    52  16 S    3.917 --    63 O    1.860    64 O    1.049    42 C    0.896
    53   5 B    3.303 --    49 O    0.803    48 O    0.790    22 O    0.782
                            23 O    0.772
    54   8 O    2.046 --    26 S    1.861
    55   8 O    2.172 --    26 S    1.048    56 C    0.976
    56   6 C    3.932 --    88 H    0.979    55 O    0.976    87 H    0.974
                            89 H    0.970
    57   8 O    2.199 --    58 C    0.965    25 S    0.964    50 S    0.131
    58   6 C    3.918 --    84 H    0.978    86 H    0.975    57 O    0.965
                            85 H    0.956
    59   8 O    2.020 --    25 S    1.827
    60   8 O    1.972 --    50 S    1.726
    61   8 O    2.172 --    50 S    1.064    62 C    0.973
    62   6 C    3.931 --    82 H    0.978    81 H    0.975    61 O    0.973
                            83 H    0.972
    63   8 O    2.045 --    52 S    1.860
    64   8 O    2.172 --    52 S    1.049    65 C    0.976
    65   6 C    3.933 --    74 H    0.979    64 O    0.976    72 H    0.974
                            73 H    0.970
    66   8 O    2.036 --    51 S    1.853
    67   8 O    2.178 --    51 S    1.059    68 C    0.972
    68   6 C    3.931 --    77 H    0.978    75 H    0.975    67 O    0.972
                            76 H    0.971
    69   8 O    2.038 --    24 S    1.857
    70   8 O    2.163 --    24 S    1.031    71 C    0.979
    71   6 C    3.936 --    70 O    0.979    79 H    0.978    78 H    0.974
                            80 H    0.970
    72   1 H    0.996 --    65 C    0.974
    73   1 H    0.996 --    65 C    0.970
    74   1 H    0.999 --    65 C    0.979
    75   1 H    0.996 --    68 C    0.975
    76   1 H    0.996 --    68 C    0.971
    77   1 H    0.998 --    68 C    0.978
    78   1 H    0.996 --    71 C    0.974
    79   1 H    0.998 --    71 C    0.978
    80   1 H    0.996 --    71 C    0.970
    81   1 H    0.995 --    62 C    0.975
    82   1 H    0.998 --    62 C    0.978
    83   1 H    0.996 --    62 C    0.972
    84   1 H    0.997 --    58 C    0.978
    85   1 H    0.992 --    58 C    0.956
    86   1 H    0.997 --    58 C    0.975
    87   1 H    0.996 --    56 C    0.974
    88   1 H    0.999 --    56 C    0.979
    89   1 H    0.996 --    56 C    0.970
    90   1 H    0.990 --    41 C    0.956
    91   1 H    0.993 --    43 C    0.962
    92   1 H    0.990 --    47 C    0.955
    93   1 H    0.994 --    31 C    0.963
    94   1 H    0.993 --    45 C    0.949
    95   1 H    0.994 --    27 C    0.960
    96   1 H    0.995 --     1 C    0.955
    97   1 H    0.995 --    19 C    0.958
    98   1 H    0.993 --    21 C    0.959
    99   1 H    0.991 --     5 C    0.956
   100   1 H    0.990 --    17 C    0.955
   101   1 H    0.993 --    15 C    0.962
 ---------------------------------------------------------------------------

Topologies differ in bond orders
Writing corrected topology to xtbtopo.mol

molecular dipole:
                 x           y           z       tot (Debye)
 q only:        0.249      -2.325       0.426
   full:       -0.234      -1.828       0.545       4.884
molecular quadrupole (traceless):
                xx          xy          yy          xz          yz          zz
 q only:       -7.413      18.824      -8.686       3.329      17.437      16.099
  q+dip:       -8.366      27.982     -13.234       7.382       7.950      21.600
   full:      -11.218      30.466     -20.954       2.490       8.406      32.172

           -------------------------------------------------
          |                Geometry Summary                 |
           -------------------------------------------------

      molecular mass/u    :     1073.9276462
   center of mass at/Å    :       -1.0009670       0.5555001       0.3263394
  moments of inertia/u·Å² :        0.1594711E+05   0.2664731E+05   0.3710865E+05
rotational constants/cm⁻¹ :        0.1057097E-02   0.6326204E-03   0.4542777E-03

 * 93 selected distances

     #   Z          #   Z                                           value/Å
     1   6 C        2   6 C                                       1.3899490
     2   6 C        3   6 C                                       1.4164551
     4   6 C        5   6 C                                       1.4182545
     1   6 C        6   6 C                                       1.3918576
     5   6 C        6   6 C                                       1.3621965
     3   6 C        7   6 C                                       1.4337527
     7   6 C        8   6 C                                       1.4139815
     8   6 C        9   6 C                                       1.4256878
     4   6 C       10   7 N                                       1.3259399
     9   6 C       10   7 N                                       1.3285570
    12   6 C       13   7 N                                       1.3264071
     8   6 C       14   6 C                                       1.4235761
    13   7 N       14   6 C                                       1.3295405
    14   6 C       15   6 C                                       1.4104717
    15   6 C       16   6 C                                       1.3800835
     9   6 C       17   6 C                                       1.4116537
    16   6 C       17   6 C                                       1.3778056
    11   6 C       18   6 C                                       1.4216540
    18   6 C       19   6 C                                       1.4024524
    19   6 C       20   6 C                                       1.3879630
    12   6 C       21   6 C                                       1.4177240
    20   6 C       21   6 C                                       1.3643162
     2   6 C       22   8 O                                       1.3356871
    18   6 C       23   8 O                                       1.3350450
    27   6 C       28   6 C                                       1.3931055
    28   6 C       29   6 C                                       1.4226903
    30   6 C       31   6 C                                       1.4167305
    27   6 C       32   6 C                                       1.3883028
    31   6 C       32   6 C                                       1.3619011
    33   6 C       34   6 C                                       1.4150637
    34   6 C       35   6 C                                       1.4250779
    30   6 C       36   7 N                                       1.3294690
    35   6 C       36   7 N                                       1.3255441
    38   6 C       39   7 N                                       1.3235634
    34   6 C       40   6 C                                       1.4251334
    39   7 N       40   6 C                                       1.3291635
    40   6 C       41   6 C                                       1.4082681
    41   6 C       42   6 C                                       1.3801309
    35   6 C       43   6 C                                       1.4139957
    42   6 C       43   6 C                                       1.3778119
    37   6 C       44   6 C                                       1.4229445
    44   6 C       45   6 C                                       1.3965745
    45   6 C       46   6 C                                       1.3901535
    38   6 C       47   6 C                                       1.4182480
    46   6 C       47   6 C                                       1.3614595
    28   6 C       48   8 O                                       1.3324619
    44   6 C       49   8 O                                       1.3331517
    22   8 O       53   5 B                                       1.4710953
    23   8 O       53   5 B                                       1.4789140 (max)
    48   8 O       53   5 B                                       1.4625628
    49   8 O       53   5 B                                       1.4562976
    26  16 S       54   8 O                                       1.4461405
    55   8 O       56   6 C                                       1.4051525
    57   8 O       58   6 C                                       1.4067933
    25  16 S       59   8 O                                       1.4544553
    50  16 S       60   8 O                                       1.4619503
    61   8 O       62   6 C                                       1.4064546
    52  16 S       63   8 O                                       1.4463649
    64   8 O       65   6 C                                       1.4053439
    51  16 S       66   8 O                                       1.4483177
    67   8 O       68   6 C                                       1.4061679
    24  16 S       69   8 O                                       1.4468297
    70   8 O       71   6 C                                       1.4027934
    65   6 C       72   1 H                                       1.0888071
    65   6 C       73   1 H                                       1.0950122
    65   6 C       74   1 H                                       1.0943413
    68   6 C       75   1 H                                       1.0883328
    68   6 C       76   1 H                                       1.0949734
    68   6 C       77   1 H                                       1.0929155
    71   6 C       78   1 H                                       1.0897821
    71   6 C       79   1 H                                       1.0943358
    71   6 C       80   1 H                                       1.0951315
    62   6 C       81   1 H                                       1.0897757
    62   6 C       82   1 H                                       1.0942149
    62   6 C       83   1 H                                       1.0938361
    58   6 C       84   1 H                                       1.0912131
    58   6 C       85   1 H                                       1.0956690
    58   6 C       86   1 H                                       1.0921371
    56   6 C       87   1 H                                       1.0888096
    56   6 C       88   1 H                                       1.0944392
    56   6 C       89   1 H                                       1.0950308
    41   6 C       90   1 H                                       1.0796020
    43   6 C       91   1 H                                       1.0784742
    47   6 C       92   1 H                                       1.0781289
    31   6 C       93   1 H                                       1.0771973
    45   6 C       94   1 H                                       1.0756569 (min)
    27   6 C       95   1 H                                       1.0793990
     1   6 C       96   1 H                                       1.0776405
    19   6 C       97   1 H                                       1.0772927
    21   6 C       98   1 H                                       1.0776498
     5   6 C       99   1 H                                       1.0784907
    17   6 C      100   1 H                                       1.0798845
    15   6 C      101   1 H                                       1.0783837

 * 6 distinct bonds (by element types)

   Z      Z             #   av. dist./Å        max./Å        min./Å
   1 H    6 C          30     1.0868852     1.0956690     1.0756569
   6 C    6 C          35     1.4019265     1.4337527     1.3614595
   6 C    7 N           8     1.3272730     1.3295405     1.3235634
   5 B    8 O           4     1.4672174     1.4789140     1.4562976
   6 C    8 O          10     1.3769051     1.4067933     1.3324619
   8 O   16 S           6     1.4506764     1.4619503     1.4461405


optimized geometry written to: xtbopt.mol


           -------------------------------------------------
          | TOTAL ENERGY             -207.100590314094 Eh   |
          | GRADIENT NORM               0.000173635498 Eh/α |
          | HOMO-LUMO GAP               0.053095750972 eV   |
           -------------------------------------------------

------------------------------------------------------------------------
 * finished run on 2024/10/31 at 14:18:17.966     
------------------------------------------------------------------------
 total:
 * wall-time:     0 d,  0 h,  2 min,  7.141 sec
 *  cpu-time:     0 d,  0 h,  6 min, 45.744 sec
 * ratio c/w:     3.191 speedup
 SCF:
 * wall-time:     0 d,  0 h,  0 min,  2.326 sec
 *  cpu-time:     0 d,  0 h,  0 min,  7.188 sec
 * ratio c/w:     3.090 speedup
 ANC optimizer:
Note: The following floating-point exceptions are signalling: IEEE_UNDERFLOW_FLAG
normal termination of xtb
 * wall-time:     0 d,  0 h,  2 min,  4.782 sec
 *  cpu-time:     0 d,  0 h,  6 min, 38.518 sec
 * ratio c/w:     3.194 speedup

