202
 energy: -39.273903232227 gnorm: 0.307935932549 xtb: 6.7.1 (edcfbbe)
C           -0.31980000000000        3.91070000000000        1.68300000000000
C            0.28770000000000        2.66100000000000        1.64710000000000
C            1.59810000000000        2.53560000000000        1.12440000000000
C            2.24360000000000        3.74390000000000        0.66830000000000
C            1.50020000000000        4.94370000000000        0.52950000000000
C            0.24330000000000        5.01490000000000        1.04990000000000
C            2.38460000000000        1.33740000000000        1.15870000000000
C            3.78260000000000        1.54020000000000        1.09580000000000
C            4.31820000000000        2.79740000000000        0.68980000000000
N            3.53990000000000        3.83550000000000        0.40440000000000
C            1.95270000000000       -0.03430000000000        1.26110000000000
C            2.95470000000000       -0.97550000000000        1.70810000000000
N            4.24050000000000       -0.68760000000000        1.86290000000000
C            4.68300000000000        0.49670000000000        1.45190000000000
C            6.07500000000000        0.72000000000000        1.40060000000000
C            6.56290000000000        1.92280000000000        0.93170000000000
C            5.71650000000000        2.94570000000000        0.56320000000000
C            0.72480000000000       -0.58580000000000        0.80360000000000
C            0.57050000000000       -1.97980000000000        0.78170000000000
C            1.48590000000000       -2.84520000000000        1.36440000000000
C            2.64630000000000       -2.34810000000000        1.88210000000000
O           -0.39670000000000        1.61740000000000        2.12290000000000
O           -0.27230000000000        0.12210000000000        0.26850000000000
S           -0.84220000000000        6.46550000000000        0.70700000000000
S            1.35090000000000       -4.67740000000000        1.39140000000000
S            8.39390000000000        2.17870000000000        0.85230000000000
C           -2.05270000000000       -2.15540000000000        2.09100000000000
C           -2.54080000000000       -1.05830000000000        1.38470000000000
C           -3.35600000000000       -1.25000000000000        0.23450000000000
C           -3.52590000000000       -2.61650000000000       -0.20240000000000
C           -2.97440000000000       -3.69750000000000        0.52810000000000
C           -2.27720000000000       -3.46040000000000        1.67380000000000
C           -4.11730000000000       -0.24240000000000       -0.45660000000000
C           -5.01900000000000       -0.72080000000000       -1.43650000000000
C           -4.95190000000000       -2.06680000000000       -1.89980000000000
N           -4.20750000000000       -2.97560000000000       -1.28630000000000
C           -4.20370000000000        1.17490000000000       -0.18740000000000
C           -5.47980000000000        1.78450000000000       -0.50900000000000
N           -6.34110000000000        1.27170000000000       -1.37380000000000
C           -6.05070000000000        0.11340000000000       -1.95680000000000
C           -6.84150000000000       -0.33340000000000       -3.03340000000000
C           -6.64280000000000       -1.59190000000000       -3.56390000000000
C           -5.73350000000000       -2.46580000000000       -3.00900000000000
C           -3.19090000000000        2.07140000000000        0.25390000000000
C           -3.56590000000000        3.35100000000000        0.66870000000000
C           -4.87940000000000        3.80420000000000        0.62770000000000
C           -5.83580000000000        3.05290000000000        0.01540000000000
O           -2.18980000000000        0.14040000000000        1.84920000000000
O           -1.88310000000000        1.81800000000000        0.19260000000000
S           -1.48510000000000       -4.84800000000000        2.55660000000000
S           -5.29870000000000        5.41270000000000        1.42800000000000
S           -7.67670000000000       -2.16030000000000       -4.98810000000000
B           -1.19700000000000        0.91610000000000        1.10690000000000
O            8.52850000000000        3.44420000000000        0.16560000000000
O            8.58170000000000        2.45570000000000        2.48690000000000
C            8.21620000000000        3.72620000000000        2.96290000000000
O           -0.16330000000000       -4.81980000000000        0.62140000000000
C           -0.17590000000000       -5.22580000000000       -0.72550000000000
O            2.32150000000000       -5.04480000000000        0.37240000000000
O           -0.29460000000000       -4.23090000000000        3.13910000000000
O           -2.59760000000000       -4.96010000000000        3.78860000000000
C           -2.57600000000000       -3.99910000000000        4.81530000000000
O           -8.44960000000000       -0.98750000000000       -5.33330000000000
O           -8.64900000000000       -3.17580000000000       -4.08990000000000
C           -9.65750000000000       -2.57200000000000       -3.31980000000000
O           -6.61210000000000        5.72260000000000        0.90220000000000
O           -4.17640000000000        6.35610000000000        0.64230000000000
C           -4.47370000000000        6.71080000000000       -0.68560000000000
O            0.06290000000000        7.46690000000000        0.18600000000000
O           -1.57640000000000        5.71320000000000       -0.59450000000000
C           -0.82510000000000        5.59280000000000       -1.77310000000000
H          -10.48520000000000       -3.27610000000000       -3.25100000000000
H          -10.00020000000000       -1.65380000000000       -3.80820000000000
H           -9.28700000000000       -2.33470000000000       -2.31780000000000
H           -3.97480000000000        7.65630000000000       -0.89000000000000
H           -5.55550000000000        6.83020000000000       -0.80500000000000
H           -4.11180000000000        5.94270000000000       -1.37360000000000
H           -1.51560000000000        5.64320000000000       -2.61480000000000
H           -0.29020000000000        4.63840000000000       -1.79230000000000
H           -0.10840000000000        6.41770000000000       -1.84430000000000
H           -2.94170000000000       -4.47940000000000        5.72260000000000
H           -3.21790000000000       -3.14940000000000        4.56360000000000
H           -1.55080000000000       -3.65210000000000        4.97310000000000
H           -0.71880000000000       -6.16810000000000       -0.81450000000000
H            0.85690000000000       -5.36610000000000       -1.06340000000000
H           -0.65990000000000       -4.45910000000000       -1.33440000000000
H            8.84890000000000        3.95120000000000        3.82000000000000
H            7.16420000000000        3.73690000000000        3.26470000000000
H            8.37840000000000        4.47750000000000        2.18300000000000
H           -7.60220000000000        0.31630000000000       -3.43950000000000
H           -5.62040000000000       -3.47190000000000       -3.38060000000000
H           -6.83300000000000        3.42710000000000       -0.15160000000000
H           -3.14300000000000       -4.69380000000000        0.15470000000000
H           -2.79540000000000        4.02930000000000        0.98960000000000
H           -1.42920000000000       -1.96220000000000        2.95070000000000
H           -1.27040000000000        3.98730000000000        2.18470000000000
H           -0.30600000000000       -2.37000000000000        0.29170000000000
H            3.41040000000000       -2.99000000000000        2.28900000000000
H            1.97240000000000        5.80110000000000        0.07660000000000
H            6.11560000000000        3.87410000000000        0.18250000000000
H            6.73500000000000       -0.07040000000000        1.72100000000000
C           -0.31980000000000        3.91070000000000        9.68300000000000
C            0.28770000000000        2.66100000000000        9.64710000000000
C            1.59810000000000        2.53560000000000        9.12440000000000
C            2.24360000000000        3.74390000000000        8.66830000000000
C            1.50020000000000        4.94370000000000        8.52950000000000
C            0.24330000000000        5.01490000000000        9.04990000000000
C            2.38460000000000        1.33740000000000        9.15870000000000
C            3.78260000000000        1.54020000000000        9.09580000000000
C            4.31820000000000        2.79740000000000        8.68980000000000
N            3.53990000000000        3.83550000000000        8.40440000000000
C            1.95270000000000       -0.03430000000000        9.26110000000000
C            2.95470000000000       -0.97550000000000        9.70810000000000
N            4.24050000000000       -0.68760000000000        9.86290000000000
C            4.68300000000000        0.49670000000000        9.45190000000000
C            6.07500000000000        0.72000000000000        9.40060000000000
C            6.56290000000000        1.92280000000000        8.93170000000000
C            5.71650000000000        2.94570000000000        8.56320000000000
C            0.72480000000000       -0.58580000000000        8.80360000000000
C            0.57050000000000       -1.97980000000000        8.78170000000000
C            1.48590000000000       -2.84520000000000        9.36440000000000
C            2.64630000000000       -2.34810000000000        9.88210000000000
O           -0.39670000000000        1.61740000000000       10.12290000000000
O           -0.27230000000000        0.12210000000000        8.26850000000000
S           -0.84220000000000        6.46550000000000        8.70700000000000
S            1.35090000000000       -4.67740000000000        9.39140000000000
S            8.39390000000000        2.17870000000000        8.85230000000000
C           -2.05270000000000       -2.15540000000000       10.09100000000000
C           -2.54080000000000       -1.05830000000000        9.38470000000000
C           -3.35600000000000       -1.25000000000000        8.23450000000000
C           -3.52590000000000       -2.61650000000000        7.79760000000000
C           -2.97440000000000       -3.69750000000000        8.52810000000000
C           -2.27720000000000       -3.46040000000000        9.67380000000000
C           -4.11730000000000       -0.24240000000000        7.54340000000000
C           -5.01900000000000       -0.72080000000000        6.56350000000000
C           -4.95190000000000       -2.06680000000000        6.10020000000000
N           -4.20750000000000       -2.97560000000000        6.71370000000000
C           -4.20370000000000        1.17490000000000        7.81260000000000
C           -5.47980000000000        1.78450000000000        7.49100000000000
N           -6.34110000000000        1.27170000000000        6.62620000000000
C           -6.05070000000000        0.11340000000000        6.04320000000000
C           -6.84150000000000       -0.33340000000000        4.96660000000000
C           -6.64280000000000       -1.59190000000000        4.43610000000000
C           -5.73350000000000       -2.46580000000000        4.99100000000000
C           -3.19090000000000        2.07140000000000        8.25390000000000
C           -3.56590000000000        3.35100000000000        8.66870000000000
C           -4.87940000000000        3.80420000000000        8.62770000000000
C           -5.83580000000000        3.05290000000000        8.01540000000000
O           -2.18980000000000        0.14040000000000        9.84920000000000
O           -1.88310000000000        1.81800000000000        8.19260000000000
S           -1.48510000000000       -4.84800000000000       10.55660000000000
S           -5.29870000000000        5.41270000000000        9.42800000000000
S           -7.67670000000000       -2.16030000000000        3.01190000000000
B           -1.19700000000000        0.91610000000000        9.10690000000000
O            8.52850000000000        3.44420000000000        8.16560000000000
O            8.58170000000000        2.45570000000000       10.48690000000000
C            8.21620000000000        3.72620000000000       10.96290000000000
O           -0.16330000000000       -4.81980000000000        8.62140000000000
C           -0.17590000000000       -5.22580000000000        7.27450000000000
O            2.32150000000000       -5.04480000000000        8.37240000000000
O           -0.29460000000000       -4.23090000000000       11.13910000000000
O           -2.59760000000000       -4.96010000000000       11.78860000000000
C           -2.57600000000000       -3.99910000000000       12.81530000000000
O           -8.44960000000000       -0.98750000000000        2.66670000000000
O           -8.64900000000000       -3.17580000000000        3.91010000000000
C           -9.65750000000000       -2.57200000000000        4.68020000000000
O           -6.61210000000000        5.72260000000000        8.90220000000000
O           -4.17640000000000        6.35610000000000        8.64230000000000
C           -4.47370000000000        6.71080000000000        7.31440000000000
O            0.06290000000000        7.46690000000000        8.18600000000000
O           -1.57640000000000        5.71320000000000        7.40550000000000
C           -0.82510000000000        5.59280000000000        6.22690000000000
H          -10.48520000000000       -3.27610000000000        4.74900000000000
H          -10.00020000000000       -1.65380000000000        4.19180000000000
H           -9.28700000000000       -2.33470000000000        5.68220000000000
H           -3.97480000000000        7.65630000000000        7.11000000000000
H           -5.55550000000000        6.83020000000000        7.19500000000000
H           -4.11180000000000        5.94270000000000        6.62640000000000
H           -1.51560000000000        5.64320000000000        5.38520000000000
H           -0.29020000000000        4.63840000000000        6.20770000000000
H           -0.10840000000000        6.41770000000000        6.15570000000000
H           -2.94170000000000       -4.47940000000000       13.72260000000000
H           -3.21790000000000       -3.14940000000000       12.56360000000000
H           -1.55080000000000       -3.65210000000000       12.97310000000000
H           -0.71880000000000       -6.16810000000000        7.18550000000000
H            0.85690000000000       -5.36610000000000        6.93660000000000
H           -0.65990000000000       -4.45910000000000        6.66560000000000
H            8.84890000000000        3.95120000000000       11.82000000000000
H            7.16420000000000        3.73690000000000       11.26470000000000
H            8.37840000000000        4.47750000000000       10.18300000000000
H           -7.60220000000000        0.31630000000000        4.56050000000000
H           -5.62040000000000       -3.47190000000000        4.61940000000000
H           -6.83300000000000        3.42710000000000        7.84840000000000
H           -3.14300000000000       -4.69380000000000        8.15470000000000
H           -2.79540000000000        4.02930000000000        8.98960000000000
H           -1.42920000000000       -1.96220000000000       10.95070000000000
H           -1.27040000000000        3.98730000000000       10.18470000000000
H           -0.30600000000000       -2.37000000000000        8.29170000000000
H            3.41040000000000       -2.99000000000000       10.28900000000000
H            1.97240000000000        5.80110000000000        8.07660000000000
H            6.11560000000000        3.87410000000000        8.18250000000000
H            6.73500000000000       -0.07040000000000        9.72100000000000
202
 energy: -39.335008378263 gnorm: 0.210862565377 xtb: 6.7.1 (edcfbbe)
C           -0.32039747783266        3.91371129092351        1.67800987977467
C            0.29516177297729        2.66719954784991        1.64734602969940
C            1.60923607720815        2.54228633730147        1.11705463648045
C            2.24571395585382        3.74812564737073        0.66420537993453
C            1.49984902343646        4.94338411014563        0.53313546666788
C            0.23456583150533        5.01234645099050        1.03959719324595
C            2.39485535996999        1.33826218823132        1.15793941231052
C            3.79001640210917        1.54236970890877        1.09591596110961
C            4.32688143723728        2.79849919398010        0.68626133323737
N            3.55057938212481        3.84410867929527        0.39798883235324
C            1.96622162030087       -0.03998574279639        1.26998249060879
C            2.96051792140793       -0.97909009780379        1.71141515133092
N            4.25532225641076       -0.68980524257354        1.86867996236921
C            4.69104754162868        0.50089705981801        1.45547079341384
C            6.07636362464471        0.72524551657268        1.39969130355108
C            6.56794605698467        1.92589498401341        0.93589636618689
C            5.72051990883415        2.94470083061168        0.56441664850095
C            0.73206969947310       -0.59753214618640        0.80703792103863
C            0.57358949933551       -1.98790519283938        0.78519500405544
C            1.50044039661497       -2.85364570595712        1.34407085670076
C            2.65209588385941       -2.34934239719410        1.87088363408890
O           -0.39238688784829        1.61071317664552        2.13115455964694
O           -0.27891573689175        0.12255114186994        0.27267433527349
S           -0.84869855322126        6.45489987904819        0.71195319945389
S            1.37198357580994       -4.68456078405019        1.36496406683900
S            8.38835384473386        2.16691171148678        0.85772676390400
C           -2.05980882957935       -2.15827542900661        2.09778399246015
C           -2.54887360785062       -1.06553929958414        1.38511492328469
C           -3.36055885651427       -1.26042384678870        0.22678142430602
C           -3.52502834041272       -2.62133915414910       -0.20324178672109
C           -2.97385446399378       -3.69421164498785        0.53381601269709
C           -2.27386872326705       -3.45903239948439        1.68271251621395
C           -4.12302572713865       -0.24663737350160       -0.46132704496275
C           -5.02322468425987       -0.72405729513685       -1.43921334485474
C           -4.95368269257732       -2.06878180287225       -1.90624855762982
N           -4.20826547485081       -2.98615755703328       -1.29403488325347
C           -4.22136718697507        1.17552018387672       -0.18715189443355
C           -5.48846549214182        1.78947622109931       -0.50891741402774
N           -6.35566038247883        1.27633763839973       -1.38330785947022
C           -6.05617694812916        0.11128300902039       -1.96100816555079
C           -6.84173232200803       -0.33729058993843       -3.03610991537472
C           -6.64993608104248       -1.59553227081062       -3.56265341680259
C           -5.73492429148050       -2.46335863287823       -3.00895029131800
C           -3.20214328213763        2.07855713025248        0.26004674495275
C           -3.57206917557233        3.35644347308653        0.67548413238018
C           -4.87917687643662        3.81113835566312        0.63073745378067
C           -5.83372783889063        3.05780627882480        0.01437627769314
O           -2.19783677833967        0.14881669627333        1.85196572513146
O           -1.87703011881191        1.82217120421481        0.19979423729243
S           -1.50962247891027       -4.84713942621264        2.59926275317340
S           -5.29109834463021        5.40752327777038        1.43443727247375
S           -7.66653441498420       -2.16855937983793       -4.98206383969099
B           -1.19539822951379        0.91725691837485        1.11442678775360
O            8.50239288879396        3.45949681677165        0.18258399063166
O            8.58910294429914        2.45325428160066        2.49206321786924
C            8.21708009683746        3.72332551225052        2.95645317696716
O           -0.14143076534284       -4.81530555051198        0.58986724614146
C           -0.15999208654161       -5.22763857096187       -0.75035650322411
O            2.34216710130540       -5.03692912782290        0.32410659551072
O           -0.35577909204409       -4.18710153104457        3.24672359651590
O           -2.63961577641574       -4.96739346165280        3.80614001678449
C           -2.58630467777258       -3.99981000172299        4.81590040704565
O           -8.45565263276101       -0.97863962347914       -5.30105946337286
O           -8.65240493220092       -3.18344961908779       -4.09270246731393
C           -9.65277435187770       -2.56904905272402       -3.32517555342593
O           -6.60781261862719        5.71528488309753        0.87146587173700
O           -4.17338922513495        6.36125031781882        0.64724645029386
C           -4.47722571114943        6.70590586575325       -0.67859348204725
O            0.08380797621032        7.44308755443089        0.16797973054397
O           -1.58973627748925        5.72233415460804       -0.60019204262280
C           -0.82564047161844        5.59829696981485       -1.76812938212741
H          -10.48650225041309       -3.27001809111821       -3.24882448708178
H           -9.99249741821490       -1.65280535597411       -3.81699703649385
H           -9.27835680670041       -2.33273280124539       -2.32498524615094
H           -3.97774604509850        7.65299217303607       -0.89328722481138
H           -5.55854061586152        6.82557966367946       -0.79493913270378
H           -4.11374642478993        5.93529968791711       -1.36335652656847
H           -1.50917902561551        5.64424268138750       -2.61827158075626
H           -0.29330261005525        4.64238386828977       -1.77953139291752
H           -0.10952212046726        6.42230835412664       -1.83551609282700
H           -2.94910625804048       -4.46659807346224        5.73060029909270
H           -3.21843832909497       -3.14787673570966        4.55953823930765
H           -1.55547981814662       -3.66175743587231        4.95789975146942
H           -0.71027130986189       -6.16810600985490       -0.82561616913289
H            0.86826232549717       -5.37012384337952       -1.08580020822088
H           -0.65115702653214       -4.46090115749458       -1.35188076289314
H            8.84550970438732        3.95561964303829        3.81881131996145
H            7.16509396524711        3.72980944630012        3.25610425226509
H            8.38139388715582        4.47079141343495        2.17467388278607
H           -7.60158323385688        0.30993800171566       -3.44117161614970
H           -5.62554964558507       -3.46834213026962       -3.37961990638443
H           -6.82962274115280        3.43430844536857       -0.14694634265425
H           -3.13634572347647       -4.69197961426454        0.16280429996762
H           -2.80048285481422        4.03287890693630        0.98946799655265
H           -1.43494557266410       -1.96323586048116        2.95285060290698
H           -1.27073177509569        3.98877230093675        2.17633374189621
H           -0.30268717118273       -2.37722863913567        0.29819687985517
H            3.41151800399845       -2.99338535237056        2.28102064005830
H            1.96600756379277        5.80157998042603        0.07899285314126
H            6.11972110346130        3.87146042698459        0.18779332113558
H            6.73629670161047       -0.06362901389241        1.71856162406321
C           -0.32018185567503        3.91369223150230        9.67757490291569
C            0.29548039876129        2.66720984771069        9.64696628099835
C            1.60948004610435        2.54234183754174        9.11656539288069
C            2.24592230703818        3.74820145700472        8.66371289570876
C            1.49998572749802        4.94343950314822        8.53263909093784
C            0.23470986501918        5.01237047911209        9.03912701995461
C            2.39507691962470        1.33831703106738        9.15746063403281
C            3.79021759005910        1.54243373694196        9.09546189187693
C            4.32705880291624        2.79855821145399        8.68578402720492
N            3.55078182707176        3.84417975921862        8.39744657693794
C            1.96644961701572       -0.03993859357073        9.26952771816883
C            2.96073953201346       -0.97901136998874        9.71100675032778
N            4.25552354869174       -0.68968829416831        9.86837686590875
C            4.69125820276455        0.50098618134894        9.45508979364090
C            6.07658222506586        0.72535128910506        9.39933033836158
C            6.56813561634011        1.92596932531204        8.93539125885617
C            5.72066970203186        2.94473039035380        8.56392793457745
C            0.73232676526565       -0.59754128747053        8.80657382637349
C            0.57383141461360       -1.98791254162756        8.78481063307448
C            1.50063011792200       -2.85360773809357        9.34383096218606
C            2.65230033026463       -2.34924769285667        9.87058269822839
O           -0.39193182476087        1.61065050391841       10.13073742148367
O           -0.27867982292073        0.12250326511914        8.27229708374120
S           -0.84854054303081        6.45508022883641        8.71160978065480
S            1.37213327917646       -4.68454796504944        9.36531223676996
S            8.38852481510482        2.16711769817795        8.85682772121634
C           -2.05885048284680       -2.15792773609374       10.09659062302700
C           -2.54832929752552       -1.06512099159857        9.38451047565768
C           -3.36033712073200       -1.25989500982011        8.22650663079971
C           -3.52608859788957       -2.62073742338617        7.79762003116086
C           -2.97425977116758       -3.69394987154886        8.53389521276538
C           -2.27345440593186       -3.45863967978684        9.68181787775108
C           -4.12272920012972       -0.24613483084804        7.53821411875085
C           -5.02326261841451       -0.72333045619818        6.56056788174863
C           -4.95510124151107       -2.06802392329951        6.09487550407395
N           -4.21050402767081       -2.98504663777682        6.70808994154310
C           -4.22098555376929        1.17595404139909        7.81229438380701
C           -5.48815490684043        1.78992541073079        7.49062454002591
N           -6.35556887522064        1.27677740497640        6.61641518688090
C           -6.05599662609304        0.11187650707536        6.03856898227921
C           -6.84150867648433       -0.33684882330650        4.96343274319690
C           -6.64978527820437       -1.59509588543668        4.43703240377676
C           -5.73591550556042       -2.46304171258688        4.99163932415052
C           -3.20179921763887        2.07887699211298        8.25971070205425
C           -3.57174332327537        3.35672613217793        8.67524845909987
C           -4.87882871794822        3.81144558317999        8.63061799133125
C           -5.83338862344101        3.05819061380284        8.01415712729673
O           -2.19700433834736        0.14904080379263        9.85148443784444
O           -1.87670709879201        1.82252696091792        8.19954599299854
S           -1.51062237972908       -4.84662053476374       10.59917393751020
S           -5.29078958352754        5.40787740056919        9.43437936108663
S           -7.66557607629168       -2.16856032866979        3.01736781029387
B           -1.19493435140916        0.91746468543696        9.11390621663417
O            8.50228847998253        3.45952863645859        8.18117876898767
O            8.58957543974780        2.45369807661936       10.49116642499984
C            8.21722736417791        3.72361396678574       10.95554414918551
O           -0.14090957866466       -4.81572815919845        8.58999415730477
C           -0.15830118786812       -5.22873277377980        7.25030409887541
O            2.34238596428760       -5.03696965432035        8.32460505051820
O           -0.35531712552931       -4.18652465604877       11.24333783540776
O           -2.64032713024969       -4.96507035866738       11.80741429225997
C           -2.58715118194191       -3.99940569883908       12.82099046179656
O           -8.45469211662272       -0.97887138279854        2.69744083472822
O           -8.65197417548802       -3.18323607158593        3.90677247096935
C           -9.65239988076167       -2.56903310115939        4.67459297649170
O           -6.60747332640633        5.71494390488614        8.87121864791656
O           -4.17330409050958        6.36126319421165        8.64669521707285
C           -4.47729471580480        6.70605340718359        7.32106684865618
O            0.08403349029990        7.44285289730570        8.16730203080415
O           -1.58952809743984        5.72236900950004        7.39956225900477
C           -0.82545167696712        5.59816162512867        6.23155249851593
H          -10.48611018039144       -3.27006411051106        4.75110797677947
H           -9.99235855451667       -1.65276878208709        4.18308484331138
H           -9.27801075238554       -2.33285064297525        5.67479402273421
H           -3.97770135210395        7.65315384645014        7.10658779099758
H           -5.55863444219549        6.82584888688051        7.20496450982914
H           -4.11385918661496        5.93550140586147        6.63628756245889
H           -1.50888086101999        5.64409129053583        5.38141341005054
H           -0.29320505140991        4.64216637842964        6.22016805593267