202
 energy: -414.080611985952 gnorm: 0.357743353632 xtb: 6.7.1 (edcfbbe)
C           -0.75140000000000        4.39290000000000        1.71880000000000
C           -0.01820000000000        3.44080000000000        2.41870000000000
C            1.41490000000000        3.46620000000000        2.30490000000000
C            2.01090000000000        4.62650000000000        1.71810000000000
C            1.20080000000000        5.56030000000000        1.04800000000000
C           -0.15670000000000        5.42560000000000        1.02800000000000
C            2.28620000000000        2.42650000000000        2.77000000000000
C            3.63890000000000        2.78140000000000        2.90380000000000
C            4.10780000000000        4.04520000000000        2.43730000000000
N            3.32460000000000        4.91640000000000        1.78710000000000
C            1.96310000000000        1.05010000000000        3.03290000000000
C            2.95310000000000        0.26600000000000        3.70880000000000
N            4.20930000000000        0.67840000000000        3.97070000000000
C            4.56900000000000        1.87690000000000        3.49320000000000
C            5.91260000000000        2.25650000000000        3.60500000000000
C            6.34570000000000        3.48390000000000        3.16470000000000
C            5.46040000000000        4.37000000000000        2.59990000000000
C            0.81670000000000        0.35320000000000        2.50280000000000
C            0.70880000000000       -1.01230000000000        2.72660000000000
C            1.58710000000000       -1.70480000000000        3.53250000000000
C            2.68580000000000       -1.07620000000000        4.02950000000000
O           -0.71510000000000        2.54860000000000        3.21840000000000
O           -0.18250000000000        0.89650000000000        1.70910000000000
S           -1.17610000000000        6.61500000000000        0.12480000000000
S            1.28720000000000       -3.45610000000000        3.89030000000000
S            8.10010000000000        3.93360000000000        3.31900000000000
C           -2.04010000000000       -1.77740000000000        3.07670000000000
C           -2.60210000000000       -0.62880000000000        2.52000000000000
C           -3.49720000000000       -0.77020000000000        1.38730000000000
C           -3.59200000000000       -2.06710000000000        0.78900000000000
C           -2.83580000000000       -3.13520000000000        1.30330000000000
C           -2.08690000000000       -2.99930000000000        2.43390000000000
C           -4.46170000000000        0.20590000000000        0.94680000000000
C           -5.47070000000000       -0.22860000000000        0.07470000000000
C           -5.36530000000000       -1.49480000000000       -0.56670000000000
N           -4.41950000000000       -2.38470000000000       -0.23280000000000
C           -4.63770000000000        1.54300000000000        1.43080000000000
C           -5.93200000000000        2.14260000000000        1.36090000000000
N           -6.90960000000000        1.68330000000000        0.55710000000000
C           -6.62770000000000        0.58050000000000       -0.15690000000000
C           -7.55800000000000        0.15460000000000       -1.11130000000000
C           -7.39420000000000       -1.02570000000000       -1.79610000000000
C           -6.32600000000000       -1.85130000000000       -1.52340000000000
C           -3.55850000000000        2.35480000000000        1.90890000000000
C           -3.86780000000000        3.45570000000000        2.70020000000000
C           -5.17020000000000        3.91270000000000        2.81590000000000
C           -6.17400000000000        3.30940000000000        2.10780000000000
O           -2.17120000000000        0.53990000000000        3.13170000000000
O           -2.27570000000000        2.11080000000000        1.44930000000000
S           -1.10830000000000       -4.41240000000000        3.03680000000000
S           -5.57440000000000        5.34660000000000        3.84370000000000
S           -8.62210000000000       -1.49610000000000       -3.04120000000000
B           -1.34090000000000        1.51330000000000        2.39210000000000
O            7.85760000000000        5.41170000000000        3.54340000000000
O            8.29460000000000        3.40110000000000        4.90870000000000
C            8.94450000000000        4.35470000000000        5.68500000000000
O            1.60540000000000       -4.03260000000000        2.33490000000000
C            2.94250000000000       -3.90500000000000        1.98040000000000
O            2.59200000000000       -3.77740000000000        4.59980000000000
O           -1.27370000000000       -4.16410000000000        4.52890000000000
O           -2.29350000000000       -5.58460000000000        2.74310000000000
C           -3.26550000000000       -5.57790000000000        3.72620000000000
O           -9.60150000000000       -0.36360000000000       -2.82420000000000
O           -9.34730000000000       -2.72300000000000       -2.14930000000000
C          -10.10090000000000       -2.23300000000000       -1.09280000000000
O           -6.36970000000000        6.12160000000000        2.81560000000000
O           -4.06510000000000        6.07790000000000        3.73160000000000
C           -3.90470000000000        6.75910000000000        2.53270000000000
O           -0.65910000000000        6.33620000000000       -1.27260000000000
O           -2.59260000000000        5.70340000000000        0.15010000000000
C           -2.59900000000000        4.69690000000000       -0.80860000000000
H          -10.60210000000000       -3.06720000000000       -0.59390000000000
H          -10.83940000000000       -1.52650000000000       -1.48610000000000
H           -9.43870000000000       -1.72370000000000       -0.38840000000000
H           -2.95200000000000        7.29530000000000        2.54620000000000
H           -4.73230000000000        7.46710000000000        2.42030000000000
H           -3.92000000000000        6.04290000000000        1.70610000000000
H           -3.55170000000000        4.16230000000000       -0.75690000000000
H           -1.77370000000000        4.00300000000000       -0.62480000000000
H           -2.47580000000000        5.15740000000000       -1.79390000000000
H           -4.13540000000000       -6.14930000000000        3.39020000000000
H           -3.52890000000000       -4.53550000000000        3.91310000000000
H           -2.84400000000000       -6.01520000000000        4.63610000000000
H            3.55670000000000       -4.36610000000000        2.76050000000000
H            3.19860000000000       -2.84710000000000        1.88030000000000
H            3.10590000000000       -4.41540000000000        1.02740000000000
H            9.03680000000000        3.97410000000000        6.70710000000000
H            8.35160000000000        5.27530000000000        5.67340000000000
H            9.93660000000000        4.54660000000000        5.26690000000000
H           -8.43460000000000        0.75140000000000       -1.29630000000000
H           -6.23880000000000       -2.80060000000000       -2.02120000000000
H           -7.15760000000000        3.74580000000000        2.09750000000000
H           -2.91440000000000       -4.09930000000000        0.83270000000000
H           -3.07690000000000        4.00890000000000        3.16070000000000
H           -1.47740000000000       -1.67670000000000        3.98920000000000
H           -1.81900000000000        4.30880000000000        1.69290000000000
H           -0.06640000000000       -1.54560000000000        2.21210000000000
H            3.40480000000000       -1.64200000000000        4.59640000000000
H            1.66690000000000        6.38950000000000        0.54520000000000
H            5.81020000000000        5.34000000000000        2.29260000000000
H            6.60750000000000        1.58020000000000        4.06930000000000
C            0.33270000000000        3.55280000000000        6.78550000000000
C            0.83470000000000        2.31200000000000        7.15600000000000
C            2.18780000000000        1.97540000000000        6.81790000000000
C            2.99720000000000        3.01570000000000        6.26220000000000
C            2.40760000000000        4.22680000000000        5.85640000000000
C            1.10040000000000        4.49510000000000        6.13190000000000
C            2.81660000000000        0.72380000000000        7.14390000000000
C            4.22230000000000        0.76400000000000        7.20170000000000
C            4.94050000000000        1.90240000000000        6.72960000000000
N            4.34070000000000        2.97180000000000        6.19240000000000
C            2.20510000000000       -0.55230000000000        7.42650000000000
C            3.04080000000000       -1.55120000000000        8.02150000000000
N            4.36780000000000       -1.42960000000000        8.22020000000000
C            4.95820000000000       -0.32830000000000        7.74330000000000
C            6.35500000000000       -0.25120000000000        7.80640000000000
C            7.03100000000000        0.84460000000000        7.32680000000000
C            6.33900000000000        1.90220000000000        6.79000000000000
C            0.87190000000000       -0.96020000000000        7.04620000000000
C            0.43930000000000       -2.24280000000000        7.36980000000000
C            1.21020000000000       -3.11780000000000        8.11160000000000
C            2.49730000000000       -2.78810000000000        8.40320000000000
O            0.01320000000000        1.49830000000000        7.91040000000000
O           -0.03410000000000       -0.19240000000000        6.33140000000000
S            0.40970000000000        6.11260000000000        5.70660000000000
S            0.57660000000000       -4.70410000000000        8.74980000000000
S            8.83760000000000        0.90140000000000        7.40320000000000
C           -2.25820000000000       -2.19700000000000        8.47130000000000
C           -2.52620000000000       -1.15230000000000        7.59050000000000
C           -3.34130000000000       -1.39610000000000        6.42410000000000
C           -3.64120000000000       -2.76610000000000        6.13300000000000
C           -3.21440000000000       -3.78720000000000        7.00230000000000
C           -2.57000000000000       -3.50410000000000        8.16850000000000
C           -4.05490000000000       -0.39200000000000        5.67160000000000
C           -5.01810000000000       -0.86480000000000        4.76150000000000
C           -5.06860000000000       -2.24700000000000        4.41680000000000
N           -4.38610000000000       -3.17970000000000        5.08810000000000
C           -4.10670000000000        1.02970000000000        5.91100000000000
C           -5.32250000000000        1.71090000000000        5.57390000000000
N           -6.21640000000000        1.25090000000000        4.67780000000000
C           -6.00080000000000        0.01450000000000        4.20520000000000
C           -6.86500000000000       -0.47810000000000        3.21760000000000
C           -6.81050000000000       -1.79000000000000        2.81220000000000
C           -5.94120000000000       -2.67020000000000        3.40690000000000
C           -3.04560000000000        1.84620000000000        6.45930000000000
C           -3.39010000000000        3.03990000000000        7.09520000000000
C           -4.67390000000000        3.55240000000000        6.99660000000000
C           -5.59210000000000        2.94690000000000        6.18520000000000
O           -1.90370000000000        0.02570000000000        7.94170000000000
O           -1.70970000000000        1.56750000000000        6.21250000000000
S           -2.08940000000000       -4.84750000000000        9.29640000000000
S           -5.20080000000000        5.03480000000000        7.88870000000000
S           -7.90670000000000       -2.40860000000000        1.51930000000000
B           -0.91870000000000        0.71370000000000        7.09490000000000
O            9.00000000000000        2.31800000000000        7.91220000000000
O            8.98310000000000        0.01430000000000        8.82400000000000
C            8.65460000000000        0.76260000000000        9.94660000000000
O           -0.11860000000000       -5.24510000000000        7.31670000000000
C            0.82590000000000       -5.55200000000000        6.34900000000000
O            1.88000000000000       -5.48180000000000        8.74900000000000
O           -1.55080000000000       -3.98920000000000       10.42870000000000
O           -3.64790000000000       -5.18510000000000        9.85640000000000
C           -4.14410000000000       -4.19240000000000       10.69180000000000
O           -8.90900000000000       -1.27470000000000        1.49670000000000
O           -8.72530000000000       -3.53840000000000        2.45540000000000
C           -9.48420000000000       -2.94300000000000        3.45460000000000
O           -5.99540000000000        5.64930000000000        6.75060000000000
O           -3.72980000000000        5.84800000000000        7.78120000000000
C           -3.69480000000000        6.74170000000000        6.72200000000000
O            0.54290000000000        6.04730000000000        4.19740000000000
O           -1.18980000000000        5.65510000000000        5.91930000000000
C           -1.65190000000000        4.90370000000000        4.85380000000000
H          -10.08590000000000       -3.71210000000000        3.94680000000000
H          -10.13880000000000       -2.19300000000000        2.99880000000000
H           -8.82600000000000       -2.46660000000000        4.18610000000000
H           -2.69160000000000        7.17240000000000        6.65390000000000
H           -4.44210000000000        7.52310000000000        6.88900000000000
H           -3.93250000000000        6.19960000000000        5.80380000000000
H           -2.64690000000000        4.52300000000000        5.09460000000000
H           -0.96800000000000        4.07130000000000        4.66030000000000
H           -1.69020000000000        5.55950000000000        3.97880000000000
H           -5.09480000000000       -4.52830000000000       11.11440000000000
H           -4.29640000000000       -3.27300000000000       10.12080000000000
H           -3.41920000000000       -4.01770000000000       11.49340000000000
H            1.48540000000000       -6.33480000000000        6.73780000000000
H            1.41090000000000       -4.65760000000000        6.11770000000000
H            0.30390000000000       -5.89690000000000        5.45160000000000
H            8.81560000000000        0.15310000000000       10.84020000000000
H            7.60780000000000        1.07390000000000        9.89040000000000
H            9.29900000000000        1.64730000000000        9.97420000000000
H           -7.60360000000000        0.17390000000000        2.78460000000000
H           -5.96470000000000       -3.71070000000000        3.13500000000000
H           -6.54200000000000        3.42180000000000        6.01160000000000
H           -3.45180000000000       -4.80760000000000        6.76000000000000
H           -2.63960000000000        3.61120000000000        7.60920000000000
H           -1.70270000000000       -1.98570000000000        9.36850000000000
H           -0.68320000000000        3.78790000000000        7.03660000000000
H           -0.51810000000000       -2.56370000000000        7.00430000000000
H            3.13050000000000       -3.51510000000000        8.88340000000000
H            3.01840000000000        4.96870000000000        5.37220000000000
H            6.87750000000000        2.74300000000000        6.39070000000000
H            6.90290000000000       -1.06290000000000        8.25140000000000
202
 energy: -414.158328784041 gnorm: 0.220099460542 xtb: 6.7.1 (edcfbbe)
C           -0.74841073566866        4.39310933662035        1.73258907753113
C           -0.01890994272908        3.43640166483531        2.42820274183785
C            1.40043984432100        3.45963137706646        2.31463827798532
C            2.00751304548404        4.62192396042616        1.72108532501848
C            1.20703595022653        5.56891478112214        1.04839878522140
C           -0.14881620167734        5.42889720653690        1.03627666936579
C            2.27677791252751        2.42485745793479        2.77043707572579
C            3.63327749398483        2.77935590669134        2.90588269671843
C            4.10161447728972        4.04349575643601        2.44097455762273
N            3.31239186871457        4.90128715990513        1.79286062178239
C            1.94677336198265        1.05076458669744        3.01977105489556
C            2.94648473723149        0.26782967485753        3.69991159700656
N            4.19122529538418        0.68480221820230        3.96718388819352
C            4.56048324336096        1.87617798934699        3.49895838173797
C            5.91291952396195        2.24583636187512        3.60715371654357
C            6.34137295230957        3.47253206035485        3.15770513057449
C            5.46010306918126        4.37126524283241        2.59607898779140
C            0.80434140153562        0.35756003468777        2.50013515563938
C            0.71173801975875       -1.01140218057507        2.71521703900055
C            1.59240667512155       -1.70099974247639        3.53254899794616
C            2.68808445390512       -1.07566316429308        4.03768142093330
O           -0.70333208234917        2.54819650271391        3.21245183394607
O           -0.17600840449062        0.88799566417099        1.70861604016893
S           -1.17171331947018        6.60228111766188        0.10151191239758
S            1.31857671416692       -3.45391903998075        3.89918783200499
S            8.08199881013851        3.96777922778533        3.32960550297861
C           -2.03689757456004       -1.77317594624461        3.07483210620113
C           -2.58756551838470       -0.61903337040787        2.51762675697853
C           -3.49366969647027       -0.75897449947967        1.40371301386929
C           -3.59750967372116       -2.06179576715801        0.79852355530094
C           -2.83522848786823       -3.13954956337022        1.29331362211391
C           -2.09761152036944       -3.00046851832319        2.43023126252237
C           -4.45572913458758        0.20941930969279        0.95286309834029
C           -5.46835023792740       -0.22804399894399        0.07999174422312
C           -5.36567475243359       -1.49714800981035       -0.55611137419921
N           -4.42206282498544       -2.37399162431162       -0.21511869737225
C           -4.62061180021603        1.54653830580262        1.42687190695268
C           -5.92603378207568        2.13729397793427        1.36379192591476
N           -6.89092728485908        1.67603848374670        0.56288483543758
C           -6.62346118180623        0.58094987001907       -0.15273254477970
C           -7.55953479384502        0.15877400206669       -1.10918902484828
C           -7.38717678774390       -1.02394360542819       -1.79677483937232
C           -6.32355991393869       -1.85780215684435       -1.52478061429875
C           -3.54963320948229        2.35401408812608        1.89019125006444
C           -3.86074183458166        3.45009844783087        2.68842028458543
C           -5.17241540608922        3.89703530118391        2.81941968503879
C           -6.18114155395075        3.30560727165053        2.11201930884333
O           -2.17644237026233        0.52759748986788        3.13429647989954
O           -2.28762471784948        2.09965878831438        1.44099748568562
S           -1.12621950904574       -4.40695593809479        3.05423829652757
S           -5.58440342121741        5.35654878526895        3.82943007341317
S           -8.64269025856482       -1.48467639554893       -3.03292520482401
B           -1.34389418650065        1.50687587780119        2.38992391878372
O            7.88566525244867        5.43284081861044        3.50992686000970
O            8.29708840904687        3.39548583799559        4.90074216482994
C            8.94903895036268        4.35635040509136        5.68797638384692
O            1.59751177747683       -4.02171901161338        2.33831242231390
C            2.94369315849516       -3.90586163982003        1.97398211076519
O            2.58849610281525       -3.77561591478588        4.61507874550695
O           -1.25043700220123       -4.16271366444945        4.52482604091942
O           -2.28195485593283       -5.58592845691043        2.73729703347457
C           -3.26853240674538       -5.58588501047652        3.72522730025315
O           -9.59996099476209       -0.35827901156784       -2.87291918362613
O           -9.33800518129223       -2.73002715491152       -2.15363552094319
C          -10.10700666363937       -2.23913273616104       -1.09389060688278
O           -6.40081503778322        6.11432088074843        2.84324322451981
O           -4.07445657006173        6.08048928783410        3.73355958895934
C           -3.90423441981881        6.76772441992754        2.53022094763774
O           -0.64555750335845        6.37261810661973       -1.27309985323652
O           -2.59266929063271        5.70642608658661        0.14107398816908
C           -2.60278532289838        4.69092474096712       -0.81854646498997
H          -10.60156092906851       -3.07523160789406       -0.60313397968116
H          -10.84831946845168       -1.53238749272680       -1.47718972211857
H           -9.46115654006333       -1.72189707445290       -0.38377626443356
H           -2.95143822557230        7.29558478346891        2.55566182409061
H           -4.72561973618069        7.47680095568677        2.40702123103761
H           -3.91859879920127        6.05920394206535        1.69968931840690
H           -3.55598531619457        4.16760503156153       -0.75435073548135
H           -1.78319913090683        3.98995640700780       -0.63593145011428
H           -2.47904753766728        5.14082176251033       -1.80622150291074
H           -4.12845684362783       -6.15809268605330        3.38028111183810
H           -3.55527815627189       -4.55150012798065        3.92966278606747
H           -2.86028455678434       -6.01999403122792        4.64095013711081
H            3.56313195310879       -4.36181070738625        2.75248648428685
H            3.21068470175768       -2.84986776531027        1.87273576909618
H            3.09618507552355       -4.42020000944677        1.02593272350274
H            9.03495101233591        3.96641149334857        6.70180909447882
H            8.36352406750746        5.28026040440777        5.68350266760206
H            9.94316998001679        4.55505343521338        5.28022495149223
H           -8.43730703704001        0.75707432864268       -1.29713334895080
H           -6.23166700148954       -2.80725146433229       -2.02507991067218
H           -7.16322703277157        3.74649283414622        2.09165146417754
H           -2.91283666630435       -4.10114033054059        0.81564485428043
H           -3.07075417190667        3.99634812882202        3.16597262853779
H           -1.47953047637563       -1.67464217395744        3.99397379378237
H           -1.81774234339188        4.31111476628428        1.70722685824646
H           -0.06611363311841       -1.54577853267586        2.20326998344779
H            3.41113938336558       -1.64029416868374        4.60340745040643
H            1.67822427745500        6.39684936873804        0.54769642471215
H            5.81042083234546        5.34344798594525        2.28796651312046
H            6.60795597835084        1.56642835029316        4.06993578457974
C            0.33380729481629        3.54977220916191        6.79988538071784
C            0.82739542536785        2.30492151126113        7.16281960855069
C            2.17290689006778        1.97165614955996        6.83043268536389
C            2.99322014985748        3.01113979552097        6.26641490671973
C            2.41476254427503        4.22980663487258        5.85473981126837
C            1.10773407781011        4.49172136990077        6.13726781666637
C            2.80727218185590        0.72434120233623        7.14395472175434
C            4.21584760324994        0.76352771897568        7.20008877742699
C            4.93424652810542        1.90061553698650        6.72927918224251
N            4.32762893879089        2.95857310598174        6.19293472493667
C            2.19019126537132       -0.54678471583111        7.41349735662333
C            3.03485248923940       -1.54634724624046        8.01622288616609
N            4.35134766311356       -1.41963055754101        8.21306445926874
C            4.95070052837958       -0.32968361705164        7.74038935223595
C            6.35368512280598       -0.26021799615283        7.80594360772466
C            7.02775276782529        0.83847571610733        7.31964261589603
C            6.33886789100469        1.90379729442460        6.78338492003707
C            0.86613243091313       -0.95348999191065        7.03994198308894
C            0.43995594602033       -2.24131392693483        7.36228831000403
C            1.21464111358773       -3.11533267827759        8.11233772432052
C            2.49998315699686       -2.78805411251904        8.41332147161157
O            0.01536623299237        1.50130361097758        7.90203471492760
O           -0.02653618675481       -0.20227721903512        6.32873857523582
S            0.40978149612895        6.10333480816744        5.68168636659067
S            0.60046858339836       -4.71480093021011        8.73722210140902
S            8.84091853807482        0.91813664233422        7.42064165871345
C           -2.25096851264380       -2.19454132179354        8.46782101105078
C           -2.50864749830788       -1.14527551614393        7.58647323551034
C           -3.33457808102074       -1.38142083336925        6.43545680015289
C           -3.64019488994360       -2.75778321710728        6.13971480856772
C           -3.21431510616076       -3.79538245904823        6.99711466656571
C           -2.57604573260086       -3.50555277102692        8.16490915558310
C           -4.04798993183593       -0.38579020273268        5.67570341110642
C           -5.01193002109716       -0.86054316337920        4.76083842893368
C           -5.06711184190883       -2.24304300405551        4.42328677387690
N           -4.38809161278051       -3.16145526438307        5.10473423556960
C           -4.08548524729668        1.03025300663500        5.90889750705870
C           -5.31053465051349        1.70655222978632        5.57297274217108
N           -6.19887558170336        1.24181498763552        4.68735100387093
C           -5.99433684235902        0.01512291495638        4.20533927666911
C           -6.86256163167467       -0.47259509175240        3.21211352697552
C           -6.79864164311912       -1.78793888068185        2.80742419975972
C           -5.93314179625265       -2.67583116397336        3.40336422158498
C           -3.03037451702201        1.84184525616086        6.44327262041244
C           -3.38026557636855        3.02896250413063        7.08603226042728
C           -4.67484600851289        3.53283649056131        7.00072807786827
C           -5.59593752027716        2.94324711068143        6.18360412433952
O           -1.90446862551125        0.01406617359069        7.94350103873193
O           -1.72143268184669        1.56287423337871        6.20745009129659
S           -2.09378274951773       -4.83125452471691        9.31038524397317
S           -5.20009885900161        5.04039512043861        7.86241209758797
S           -7.92509975962792       -2.39432429171291        1.52788785020866
B           -0.92460010236270        0.70932932300788        7.08777530615105
O            9.01971040889065        2.32058998750493        7.88881137384802
O            8.98570776377124        0.01055069519018        8.82216913887145
C            8.65609561211429        0.76035601065177        9.95412822929836
O           -0.13026107745898       -5.23901505218700        7.32544341324844
C            0.82054193418169       -5.55786595266764        6.34908258761386
O            1.87479028010738       -5.48743177746596        8.78161226208816
O           -1.52244088316429       -4.01546347454367       10.42460806592236
O           -3.64827041027578       -5.18347474774270        9.84964563737954
C           -4.15217863901760       -4.19147706675129       10.69490067378081
O           -8.89091456266693       -1.26155730642022        1.47299291397595
O           -8.71450877036539       -3.53939848928805        2.45918909614255
C           -9.48781746436145       -2.94670158649452        3.45977647852304
O           -6.02207950318330        5.65190775515009        6.77452633367688
O           -3.73390287551127        5.85426024477032        7.79449086647436
C           -3.69519339099575        6.75338819049061        6.72631731955186
O            0.56702655591926        6.07459668227164        4.19765241530304
O           -1.18319659160904        5.66679074073310        5.92421491956107
C           -1.65435620656159        4.90616811114308        4.85543505877661
H          -10.08475921179712       -3.71954408424632        3.94108583312035
H          -10.14282706239636       -2.19360273830132        3.01012765678342
H           -8.83770394749564       -2.46663983881925        4.19768006619367
H           -2.69417265750346        7.17428715217749        6.66756784308692
H           -4.43837821369556        7.53809632127009        6.87953112332907
H           -3.92471863928798        6.22510072007873        5.80081975854992
H           -2.64249880319035        4.52986374778522        5.10913734352776
H           -0.98573967828407        4.06504194764563        4.65947072275346