Optimization of monomers started
      -----------------------------------------------------------      
     |                   =====================                   |     
     |                           x T B                           |     
     |                   =====================                   |     
     |                         S. Grimme                         |     
     |          Mulliken Center for Theoretical Chemistry        |     
     |                    University of Bonn                     |     
      -----------------------------------------------------------      

   * xtb version 6.7.1 (edcfbbe) compiled by 'runner@Mac-1732539442253.local' on 2024-11-25

   xtb is free software: you can redistribute it and/or modify it under
   the terms of the GNU Lesser General Public License as published by
   the Free Software Foundation, either version 3 of the License, or
   (at your option) any later version.
   
   xtb is distributed in the hope that it will be useful,
   but WITHOUT ANY WARRANTY; without even the implied warranty of
   MERCHANTABILITY or FITNESS FOR A PARTICULAR PURPOSE.  See the
   GNU Lesser General Public License for more details.
   
   Cite this work as:
   * C. Bannwarth, E. Caldeweyher, S. Ehlert, A. Hansen, P. Pracht,
     J. Seibert, S. Spicher, S. Grimme, WIREs Comput. Mol. Sci., 2020, 11,
     e01493. DOI: 10.1002/wcms.1493
   
   for GFN2-xTB:
   * C. Bannwarth, S. Ehlert and S. Grimme., J. Chem. Theory Comput., 2019,
     15, 1652-1671. DOI: 10.1021/acs.jctc.8b01176
   for GFN1-xTB:
   * S. Grimme, C. Bannwarth, P. Shushkov, J. Chem. Theory Comput., 2017,
     13, 1989-2009. DOI: 10.1021/acs.jctc.7b00118
   for GFN0-xTB:
   * P. Pracht, E. Caldeweyher, S. Ehlert, S. Grimme, ChemRxiv, 2019, preprint.
     DOI: 10.26434/chemrxiv.8326202.v1
   for GFN-FF:
   * S. Spicher and S. Grimme, Angew. Chem. Int. Ed., 2020, 59, 15665-15673.
     DOI: 10.1002/anie.202004239
   
   for ALPB and GBSA implicit solvation:
   * S. Ehlert, M. Stahn, S. Spicher, S. Grimme, J. Chem. Theory Comput.,
     2021, 17, 4250-4261. DOI: 10.1021/acs.jctc.1c00471
   
   for ddCOSMO and CPCM-X implicit solvation:
   * M. Stahn, S. Ehlert, S. Grimme, J. Phys. Chem. A,
     2023, XX, XXXX-XXXX. DOI: 10.1021/acs.jpca.3c04382
   
   for DFT-D4:
   * E. Caldeweyher, C. Bannwarth and S. Grimme, J. Chem. Phys., 2017,
     147, 034112. DOI: 10.1063/1.4993215
   * E. Caldeweyher, S. Ehlert, A. Hansen, H. Neugebauer, S. Spicher,
     C. Bannwarth and S. Grimme, J. Chem. Phys., 2019, 150, 154122.
     DOI: 10.1063/1.5090222
   * E. Caldeweyher, J.-M. Mewes, S. Ehlert and S. Grimme, Phys. Chem. Chem. Phys.
     2020, 22, 8499-8512. DOI: 10.1039/D0CP00502A
   
   for sTDA-xTB:
   * S. Grimme and C. Bannwarth, J. Chem. Phys., 2016, 145, 054103.
     DOI: 10.1063/1.4959605
   
   in the mass-spec context:
   * V. Asgeirsson, C. Bauer and S. Grimme, Chem. Sci., 2017, 8, 4879.
     DOI: 10.1039/c7sc00601b
   * J. Koopman and S. Grimme, ACS Omega 2019, 4, 12, 15120-15133.
     DOI: 10.1021/acsomega.9b02011
   
   for metadynamics refer to:
   * S. Grimme, J. Chem. Theory Comput., 2019, 155, 2847-2862
     DOI: 10.1021/acs.jctc.9b00143
   
   for SPH calculations refer to:
   * S. Spicher and S. Grimme, J. Chem. Theory Comput., 2021, 17, 1701-1714
     DOI: 10.1021/acs.jctc.0c01306
   
   for ONIOM refer to:
   * C. Plett, A. Katbashev, S. Ehlert, S. Grimme, M. Bursch,
     Phys. Chem. Chem. Phys., 2023, 25, 17860-17868. DOI: 10.1039/D3CP02178E
   
   for DIPRO refer to:
   * J. Kohn, N. Gildemeister, S. Grimme, D. Fazzi, A. Hansen,
     J. Chem. Phys., 2023, just accepted.
   
   for PTB refer to:
   * S. Grimme, M. Mueller, A. Hansen, J. Chem. Phys., 2023, 158, 124111.
     DOI: 10.1063/5.0137838
   
   with help from (in alphabetical order)
   P. Atkinson, C. Bannwarth, F. Bohle, G. Brandenburg, E. Caldeweyher
   M. Checinski, S. Dohm, S. Ehlert, S. Ehrlich, I. Gerasimov, C. Hölzer
   A. Katbashev, J. Kohn, J. Koopman, C. Lavigne, S. Lehtola, F. März, M. Müller,
   F. Musil, H. Neugebauer, J. Pisarek, C. Plett, P. Pracht, F. Pultar,
   J. Seibert, P. Shushkov, S. Spicher, M. Stahn, M. Steiner, T. Strunk,
   J. Stückrath, T. Rose, and J. Unsleber
   
 * started run on 2025/03/03 at 15:02:10.094     
   ID    Z sym.   atoms
    1    6 C      1-11, 13, 14, 16-23, 32-37
    2    7 N      12, 15
    3    8 O      24, 25
    4    1 H      26-31, 56-75
    5   16 S      38, 44, 50
    6    9 F      39-43, 45-49, 51-55

           -------------------------------------------------
          |                Calculation Setup                |
           -------------------------------------------------

          program call               : xtb Base4SF5.mol --opt tight --cycles 500 --chrg 0 --uhf 1 --spinpol --tblite
          coordinate file            : Base4SF5.mol
          omp threads                :                     8


molecular fragmentation (1/2 indicates fragments):
111111111111111111111111111111111112211111111111111111111111112222221111
111
# atoms in fragment 1/2:    67     8
 fragment masses (1/2) :      761.61       30.07
CMA distance (Bohr)    :   7.635
constraining FC (au)   :  0.0500
repulsion energy          1.2798511589552E+00 Eh
dispersion energy         9.9822572454655E-04 Eh
interaction energy        0.0000000000000E+00 Eh
number of electrons       2.7900000000000E+02 e
integral cutoff           1.8403572253217E+01 bohr

------------------------------------------------------------
  cycle        total energy    energy error   density error
------------------------------------------------------------
      1     -160.7517721280  -1.6203262E+02   1.7362218E-01
      2     -153.0608896288   7.6908825E+00   2.1035393E-01
      3     -162.1223654082  -9.0614758E+00   1.0380456E-01
      4     -160.4522769165   1.6700885E+00   1.0541792E-01
      5     -162.4161444469  -1.9638675E+00   7.1018788E-02
      6     -163.4070503238  -9.9090588E-01   5.2516293E-02
      7     -163.6755845661  -2.6853424E-01   3.4220414E-02
      8     -163.6143463251   6.1238241E-02   3.0791531E-02
      9     -163.6596419233  -4.5295598E-02   3.5618189E-02
     10     -163.7407371092  -8.1095186E-02   1.2300482E-02
     11     -163.7143329055   2.6404204E-02   2.9572740E-02
     12     -163.7132518497   1.0810557E-03   2.7287759E-02
     13     -163.7274575534  -1.4205704E-02   1.8536490E-02
     14     -163.7575331798  -3.0075626E-02   4.9994528E-03
     15     -163.7540041303   3.5290495E-03   8.3433792E-03
     16     -163.7580255824  -4.0214520E-03   1.6106153E-03
     17     -163.7578192105   2.0637186E-04   2.9702491E-03
     18     -163.7579497892  -1.3057871E-04   2.0742245E-03
     19     -163.7582830854  -3.3329613E-04   2.6271604E-04
     20     -163.7582873807  -4.2953301E-06   1.5037757E-04
     21     -163.7582863208   1.0598754E-06   2.1706186E-04
     22     -163.7582849825   1.3383302E-06   2.8192311E-04
     23     -163.7582820261   2.9563825E-06   3.5326265E-04
     24     -163.7582875665  -5.5403742E-06   1.5101759E-04
     25     -163.7582875484   1.8061883E-08   1.3235419E-04
     26     -163.7582884756  -9.2715081E-07   2.9650911E-05
     27     -163.7582885167  -4.1089862E-08   4.5643012E-06
------------------------------------------------------------

electronic energy        -1.6503913790134E+02 Eh
total energy             -1.6375828851666E+02 Eh

 total:                                   1.632 sec
 - repulsion                              0.000 sec (  0%)
 - dispersion                             0.008 sec (  0%)
 - coulomb                                0.002 sec (  0%)
 - hamiltonian                            0.011 sec (  0%)
 - scc                                    1.610 sec ( 98%)

      ----------------------------------------------------------- 
     |                   =====================                   |
     |                        A N C O P T                        |
     |                   =====================                   |
     |               Approximate Normal Coordinate               |
     |                Rational Function Optimizer                |
      ----------------------------------------------------------- 
      ----------------------------------------------------------- 
     |                   =====================                   |
     |                        A N C O P T                        |
     |                   =====================                   |
     |               Approximate Normal Coordinate               |
     |                Rational Function Optimizer                |
      ----------------------------------------------------------- 

          ...................................................
          :                      SETUP                      :
          :.................................................:
          :   optimization level             tight          :
          :   max. optcycles                   500          :
          :   ANC micro-cycles                  20          :
          :   degrees of freedom               219          :
          :.................................................:
          :   RF solver                   davidson          :
          :   write xtbopt.log                true          :
          :   linear?                        false          :
          :   energy convergence         0.1000000E-05 Eh   :
          :   grad. convergence          0.8000000E-03 Eh/α :
          :   maxmium RF displ.          1.0000000          :
          :   Hlow (freq-cutoff)         0.1000000E-01      :
          :   Hmax (freq-cutoff)         5.0000000          :
          :   S6 in model hess.         20.0000000          :
          ...................................................

generating ANC from exact Hessian ...
Using Lindh-Hessian (1995)
 Shifting diagonal of input Hessian by    1.0056435242255907E-002
 Lowest  eigenvalues of input Hessian
    0.010000    0.010014    0.000000    0.010030    0.000000    0.000000
    0.000000    0.000000    0.000000    0.010111    0.010188    0.010359
    0.010434    0.010453    0.010572    0.010768    0.010858    0.010991
 Highest eigenvalues
    4.605692    4.906653    6.131198    6.781471    9.253751    9.791815


........................................................................
.............................. CYCLE    1 ..............................
........................................................................
------------------------------------------------------------
  cycle        total energy    energy error   density error
------------------------------------------------------------
      1     -163.7582876781  -1.6503914E+02   9.8865059E-05
      2     -163.7581367117   1.5096635E-04   1.3133774E-03
      3     -163.7582884775  -1.5176583E-04   2.0645915E-05
      4     -163.7582885104  -3.2852455E-08   7.2090282E-06
------------------------------------------------------------

 total:                                   0.237 sec
 * total energy  :  -163.7582885 Eh     change        0.6268607E-08 Eh
   gradient norm :     2.3599172 Eh/α   predicted     0.0000000E+00 (-100.00%)
   displ. norm   :     0.5857296 α      lambda       -0.1296034E+01
   maximum displ.:     0.3710101 α      in ANC's #212, #208, #203, ...

........................................................................
.............................. CYCLE    2 ..............................
........................................................................
------------------------------------------------------------
  cycle        total energy    energy error   density error
------------------------------------------------------------
      1     -164.6083656441  -1.6564698E+02   2.9693296E-02
      2     -164.4390151109   1.6935053E-01   3.6693569E-02
      3     -164.5991638113  -1.6014870E-01   1.9978001E-02
      4     -164.6457810377  -4.6617226E-02   1.4999481E-02
      5     -164.6416604921   4.1205457E-03   9.4855250E-03
      6     -164.6462769423  -4.6164502E-03   6.3807834E-03
      7     -164.6485666583  -2.2897160E-03   4.8302298E-03
      8     -164.6491866959  -6.2003763E-04   3.3964465E-03
      9     -164.6495898154  -4.0311948E-04   2.1294393E-03
     10     -164.6498074830  -2.1766767E-04   7.1340782E-04
     11     -164.6498323594  -2.4876381E-05   5.8543113E-04
     12     -164.6498456613  -1.3301832E-05   2.7352640E-04
     13     -164.6498475948  -1.9335105E-06   1.7901174E-04
     14     -164.6498486457  -1.0509345E-06   1.1074923E-04
     15     -164.6498494791  -8.3339819E-07   4.6696706E-05
     16     -164.6498495961  -1.1694752E-07   2.6354367E-05
     17     -164.6498496373  -4.1297170E-08   1.7147789E-05
------------------------------------------------------------

 total:                                   1.152 sec
 * total energy  :  -164.6498496 Eh     change       -0.8915611E+00 Eh
   gradient norm :     1.0998878 Eh/α   predicted    -0.8703478E+00 (  -2.38%)
   displ. norm   :     0.6377361 α      lambda       -0.6183788E+00
   maximum displ.:     0.1889362 α      in ANC's #94, #212, #208, ...

........................................................................
.............................. CYCLE    3 ..............................
........................................................................
------------------------------------------------------------
  cycle        total energy    energy error   density error
------------------------------------------------------------
      1     -165.1413306554  -1.6609205E+02   1.5242407E-02
      2     -165.1467814166  -5.4507612E-03   1.1064257E-02
      3     -165.1482885482  -1.5071316E-03   7.1447575E-03
      4     -165.1484037699  -1.1522168E-04   4.3754114E-03
      5     -165.1505203725  -2.1166026E-03   1.3972598E-03
      6     -165.1507187884  -1.9841592E-04   7.5460882E-04
      7     -165.1507587435  -3.9955062E-05   4.6425580E-04
      8     -165.1507872694  -2.8525957E-05   2.0882218E-04
      9     -165.1507916142  -4.3447539E-06   1.1619793E-04
     10     -165.1507924321  -8.1795059E-07   7.7777906E-05
     11     -165.1507927199  -2.8778788E-07   4.1491640E-05
     12     -165.1507929153  -1.9541949E-07   1.8967750E-05
------------------------------------------------------------

 total:                                   0.928 sec
 * total energy  :  -165.1507929 Eh     change       -0.5009433E+00 Eh
   gradient norm :     0.6745535 Eh/α   predicted    -0.4349392E+00 ( -13.18%)
   displ. norm   :     0.6943177 α      lambda       -0.4189948E+00
   maximum displ.:     0.2250139 α      in ANC's #94, #212, #203, ...

........................................................................
.............................. CYCLE    4 ..............................
........................................................................
------------------------------------------------------------
  cycle        total energy    energy error   density error
------------------------------------------------------------
      1     -165.4723381283  -1.6640250E+02   1.3768804E-02
      2     -165.4765933431  -4.2552148E-03   1.2669584E-02
      3     -165.4869810802  -1.0387737E-02   6.4591602E-03
      4     -165.4853990094   1.5820708E-03   4.6372247E-03
      5     -165.4873884145  -1.9894051E-03   1.8683340E-03
      6     -165.4880114009  -6.2298640E-04   6.8461978E-04
      7     -165.4880282478  -1.6846913E-05   4.1954028E-04
      8     -165.4880424186  -1.4170847E-05   2.2790552E-04
      9     -165.4880472635  -4.8448816E-06   1.1893006E-04
     10     -165.4880481442  -8.8070942E-07   8.1582174E-05
     11     -165.4880483145  -1.7023225E-07   5.5029993E-05
     12     -165.4880487228  -4.0829042E-07   1.9766346E-05
------------------------------------------------------------

 total:                                   0.853 sec
 * total energy  :  -165.4880487 Eh     change       -0.3372558E+00 Eh
   gradient norm :     0.4036914 Eh/α   predicted    -0.3104914E+00 (  -7.94%)
   displ. norm   :     0.7263497 α      lambda       -0.2619067E+00
   maximum displ.:     0.2568249 α      in ANC's #94, #95, #212, ...

........................................................................
.............................. CYCLE    5 ..............................
........................................................................
------------------------------------------------------------
  cycle        total energy    energy error   density error
------------------------------------------------------------
      1     -165.6873404258  -1.6664739E+02   1.1659810E-02
      2     -165.6911562917  -3.8158660E-03   1.0710714E-02
      3     -165.6989267122  -7.7704204E-03   5.3606225E-03
      4     -165.6979283014   9.9841073E-04   3.4129886E-03
      5     -165.6992313773  -1.3030759E-03   1.5465078E-03
      6     -165.6996888290  -4.5745173E-04   5.3946145E-04
      7     -165.6996921684  -3.3393560E-06   3.2409271E-04
      8     -165.6997007266  -8.5582182E-06   1.7810879E-04
      9     -165.6997039328  -3.2062383E-06   8.9136744E-05
     10     -165.6997043402  -4.0733244E-07   6.1481584E-05
     11     -165.6997045573  -2.1716920E-07   2.8665130E-05
     12     -165.6997046415  -8.4173593E-08   1.2264741E-05
------------------------------------------------------------

 total:                                   0.825 sec
 * total energy  :  -165.6997046 Eh     change       -0.2116559E+00 Eh
   gradient norm :     0.2442486 Eh/α   predicted    -0.2000424E+00 (  -5.49%)
   displ. norm   :     0.7522698 α      lambda       -0.1614727E+00
   maximum displ.:     0.2723868 α      in ANC's #94, #39, #49, ...

........................................................................
.............................. CYCLE    6 ..............................
........................................................................
------------------------------------------------------------
  cycle        total energy    energy error   density error
------------------------------------------------------------
      1     -165.8216845031  -1.6684471E+02   9.5058203E-03
      2     -165.8264159448  -4.7314417E-03   7.9439398E-03
      3     -165.8297561058  -3.3401610E-03   4.1893325E-03
      4     -165.8294143275   3.4177833E-04   2.2287475E-03
      5     -165.8298284026  -4.1407509E-04   1.2528714E-03
      6     -165.8301578384  -3.2943580E-04   4.0451101E-04
      7     -165.8301592419  -1.4035839E-06   2.3189339E-04
      8     -165.8301623815  -3.1395284E-06   1.4170459E-04
      9     -165.8301653932  -3.0117560E-06   6.1981617E-05
     10     -165.8301654875  -9.4245422E-08   4.6532859E-05
     11     -165.8301656550  -1.6748703E-07   1.8902864E-05
------------------------------------------------------------

 total:                                   0.734 sec
 * total energy  :  -165.8301657 Eh     change       -0.1304610E+00 Eh
   gradient norm :     0.1541130 Eh/α   predicted    -0.1264271E+00 (  -3.09%)
   displ. norm   :     0.7749147 α      lambda       -0.9970991E-01
   maximum displ.:     0.3079920 α      in ANC's #39, #94, #49, ...

........................................................................
.............................. CYCLE    7 ..............................
........................................................................
------------------------------------------------------------
  cycle        total energy    energy error   density error
------------------------------------------------------------
      1     -165.8961071898  -1.6699579E+02   9.5100600E-03
      2     -165.8940880882   2.0191016E-03   9.4640941E-03
      3     -165.9109841936  -1.6896105E-02   4.4657948E-03
      4     -165.9112351504  -2.5095671E-04   2.7571121E-03
      5     -165.9115032466  -2.6809624E-04   1.6357636E-03
      6     -165.9118169397  -3.1369312E-04   5.8372823E-04
      7     -165.9118349080  -1.7968281E-05   2.5225799E-04
      8     -165.9118368105  -1.9024926E-06   1.6372997E-04
      9     -165.9118394865  -2.6760195E-06   9.0235086E-05
     10     -165.9118401496  -6.6310213E-07   5.0848395E-05
     11     -165.9118403594  -2.0974079E-07   3.3474684E-05
     12     -165.9118404279  -6.8498792E-08   2.0244232E-05
     13     -165.9118404710  -4.3126249E-08   8.0211703E-06
------------------------------------------------------------

 total:                                   0.835 sec
 * total energy  :  -165.9118405 Eh     change       -0.8167482E-01 Eh
   gradient norm :     0.1086692 Eh/α   predicted    -0.7979260E-01 (  -2.30%)
   displ. norm   :     0.7988484 α      lambda       -0.6467701E-01
   maximum displ.:     0.3924368 α      in ANC's #39, #38, #49, ...

........................................................................
.............................. CYCLE    8 ..............................
........................................................................
------------------------------------------------------------
  cycle        total energy    energy error   density error
------------------------------------------------------------
      1     -165.9531551451  -1.6712123E+02   8.3069524E-03
      2     -165.9454389643   7.7161808E-03   9.4257157E-03
      3     -165.9652053974  -1.9766433E-02   3.7781035E-03
      4     -165.9654606898  -2.5529247E-04   2.5431427E-03
      5     -165.9658630175  -4.0232765E-04   1.3413506E-03
      6     -165.9660011732  -1.3815574E-04   5.5976985E-04
      7     -165.9660177808  -1.6607583E-05   2.9433213E-04
      8     -165.9660278457  -1.0064856E-05   1.9072085E-04
      9     -165.9660341615  -6.3158567E-06   7.9890774E-05
     10     -165.9660346464  -4.8488258E-07   3.9461256E-05
     11     -165.9660348110  -1.6464259E-07   2.1262389E-05
     12     -165.9660348314  -2.0395873E-08   1.4454035E-05
------------------------------------------------------------

 total:                                   0.729 sec
 * total energy  :  -165.9660348 Eh     change       -0.5419436E-01 Eh
   gradient norm :     0.0874625 Eh/α   predicted    -0.5297579E-01 (  -2.25%)
   displ. norm   :     0.8094896 α      lambda       -0.4585654E-01
   maximum displ.:     0.4296370 α      in ANC's #39, #24, #38, ...

........................................................................
.............................. CYCLE    9 ..............................
........................................................................
------------------------------------------------------------
  cycle        total energy    energy error   density error
------------------------------------------------------------
      1     -166.0027790508  -1.6723095E+02   4.7450473E-03
      2     -166.0010633828   1.7156680E-03   4.8678763E-03
      3     -166.0048897189  -3.8263362E-03   2.2540581E-03
      4     -166.0048852352   4.4836844E-06   1.3398516E-03
      5     -166.0050240321  -1.3879688E-04   5.2789080E-04
      6     -166.0050658930  -4.1860887E-05   1.6907380E-04
      7     -166.0050669224  -1.0293402E-06   9.0435319E-05
      8     -166.0050673010  -3.7862912E-07   5.5595335E-05
      9     -166.0050675798  -2.7882098E-07   2.8564982E-05
     10     -166.0050676712  -9.1366616E-08   1.4968295E-05
------------------------------------------------------------

 total:                                   0.615 sec
 * total energy  :  -166.0050677 Eh     change       -0.3903284E-01 Eh
   gradient norm :     0.0745722 Eh/α   predicted    -0.3795259E-01 (  -2.77%)
   displ. norm   :     0.8270088 α      lambda       -0.3672156E-01
   maximum displ.:     0.4343074 α      in ANC's #39, #24, #38, ...

........................................................................
.............................. CYCLE   10 ..............................
........................................................................
------------------------------------------------------------
  cycle        total energy    energy error   density error
------------------------------------------------------------
      1     -166.0347322983  -1.6730207E+02   4.2995960E-03
      2     -166.0349108255  -1.7852721E-04   2.9744953E-03
      3     -166.0347870470   1.2377855E-04   2.0892049E-03
      4     -166.0351128360  -3.2578898E-04   1.1453266E-03
      5     -166.0353632369  -2.5040093E-04   3.7601143E-04
      6     -166.0353844536  -2.1216675E-05   1.5770708E-04
      7     -166.0353867580  -2.3044515E-06   9.4681609E-05
      8     -166.0353878852  -1.1271828E-06   3.9046708E-05
      9     -166.0353880013  -1.1609765E-07   1.9510661E-05
------------------------------------------------------------

 total:                                   0.565 sec
 * total energy  :  -166.0353880 Eh     change       -0.3032033E-01 Eh
   gradient norm :     0.0664069 Eh/α   predicted    -0.3091853E-01 (   1.97%)
   displ. norm   :     0.8381872 α      lambda       -0.3297129E-01
   maximum displ.:     0.4280499 α      in ANC's #39, #24, #38, ...

........................................................................
.............................. CYCLE   11 ..............................
........................................................................
------------------------------------------------------------
  cycle        total energy    energy error   density error
------------------------------------------------------------
      1     -166.0600081558  -1.6736950E+02   4.7207839E-03
      2     -166.0604034358  -3.9528001E-04   3.0374269E-03
      3     -166.0605430132  -1.3957741E-04   2.0974693E-03
      4     -166.0608165347  -2.7352143E-04   8.4921372E-04
      5     -166.0609201982  -1.0366350E-04   3.6284405E-04
      6     -166.0609426248  -2.2426607E-05   1.6235710E-04
      7     -166.0609448606  -2.2358184E-06   9.3633863E-05
      8     -166.0609459095  -1.0488889E-06   4.1254813E-05
      9     -166.0609460381  -1.2857745E-07   1.8913236E-05
------------------------------------------------------------

 total:                                   0.463 sec
 * total energy  :  -166.0609460 Eh     change       -0.2555804E-01 Eh
   gradient norm :     0.0606523 Eh/α   predicted    -0.2806781E-01 (   9.82%)
   displ. norm   :     0.7821773 α      lambda       -0.2491092E-01
   maximum displ.:     0.3698290 α      in ANC's #39, #24, #38, ...

........................................................................
.............................. CYCLE   12 ..............................
........................................................................
------------------------------------------------------------
  cycle        total energy    energy error   density error
------------------------------------------------------------
      1     -166.0800366890  -1.6740460E+02   4.3387929E-03
      2     -166.0805873899  -5.5070088E-04   2.7236665E-03
      3     -166.0810725254  -4.8513547E-04   1.7702965E-03
      4     -166.0811921836  -1.1965824E-04   7.0170221E-04
      5     -166.0812570059  -6.4822233E-05   3.3294766E-04
      6     -166.0812770627  -2.0056864E-05   1.3335991E-04
      7     -166.0812773436  -2.8090889E-07   8.1046224E-05
      8     -166.0812781187  -7.7504617E-07   3.4806071E-05
      9     -166.0812782084  -8.9717588E-08   1.9055940E-05
------------------------------------------------------------

 total:                                   0.510 sec
 * total energy  :  -166.0812782 Eh     change       -0.2033217E-01 Eh
   gradient norm :     0.0510118 Eh/α   predicted    -0.2007573E-01 (  -1.26%)
   displ. norm   :     0.7738566 α      lambda       -0.1954292E-01
   maximum displ.:     0.3229844 α      in ANC's #39, #24, #42, ...

........................................................................
.............................. CYCLE   13 ..............................
........................................................................
------------------------------------------------------------
  cycle        total energy    energy error   density error
------------------------------------------------------------
      1     -166.0943612583  -1.6743192E+02   4.6775757E-03
      2     -166.0948638306  -5.0257227E-04   2.6490256E-03
      3     -166.0951847835  -3.2095292E-04   1.9154448E-03
      4     -166.0953886289  -2.0384542E-04   6.3683959E-04
      5     -166.0954468043  -5.8175355E-05   3.0352696E-04
      6     -166.0954624484  -1.5644168E-05   1.1400793E-04
      7     -166.0954626662  -2.1771027E-07   5.9969092E-05
      8     -166.0954629378  -2.7164526E-07   3.4971025E-05
      9     -166.0954630281  -9.0298613E-08   2.0297237E-05
     10     -166.0954630453  -1.7189848E-08   1.0636530E-05
------------------------------------------------------------

 total:                                   0.665 sec
 * total energy  :  -166.0954630 Eh     change       -0.1418484E-01 Eh
   gradient norm :     0.0489736 Eh/α   predicted    -0.1562314E-01 (  10.14%)
   displ. norm   :     0.6901912 α      lambda       -0.1279496E-01
   maximum displ.:     0.2989773 α      in ANC's #24, #39, #42, ...

........................................................................
.............................. CYCLE   14 ..............................
........................................................................
------------------------------------------------------------
  cycle        total energy    energy error   density error
------------------------------------------------------------
      1     -166.1034637227  -1.6745266E+02   3.9590667E-03
      2     -166.1037010488  -2.3732612E-04   2.1374679E-03
      3     -166.1037260880  -2.5039185E-05   1.6345987E-03
      4     -166.1039430050  -2.1691700E-04   4.7313765E-04
      5     -166.1039745202  -3.1515273E-05   2.1510628E-04
      6     -166.1039813178  -6.7975664E-06   8.1787415E-05
      7     -166.1039815104  -1.9258758E-07   3.7005867E-05
      8     -166.1039815520  -4.1626208E-08   2.2572447E-05
      9     -166.1039815770  -2.5021137E-08   1.3925531E-05
------------------------------------------------------------

 total:                                   0.478 sec
 * total energy  :  -166.1039816 Eh     change       -0.8518532E-02 Eh
   gradient norm :     0.0446499 Eh/α   predicted    -0.9445038E-02 (  10.88%)
   displ. norm   :     0.5816196 α      lambda       -0.7495768E-02
   maximum displ.:     0.2532215 α      in ANC's #24, #39, #11, ...

........................................................................
.............................. CYCLE   15 ..............................
........................................................................
------------------------------------------------------------
  cycle        total energy    energy error   density error
------------------------------------------------------------
      1     -166.1084867815  -1.6746409E+02   3.3907123E-03
      2     -166.1085484235  -6.1641942E-05   1.9150278E-03
      3     -166.1083981765   1.5024694E-04   1.4037951E-03
      4     -166.1086589018  -2.6072525E-04   2.6849489E-04
      5     -166.1086636179  -4.7161278E-06   1.3630774E-04
      6     -166.1086659450  -2.3270788E-06   5.6668816E-05
      7     -166.1086661253  -1.8026563E-07   3.3008727E-05
      8     -166.1086662343  -1.0901795E-07   1.7939045E-05
------------------------------------------------------------

 total:                                   0.484 sec
 * total energy  :  -166.1086662 Eh     change       -0.4684657E-02 Eh
   gradient norm :     0.0432273 Eh/α   predicted    -0.5015724E-02 (   7.07%)
   displ. norm   :     0.5654413 α      lambda       -0.6496338E-02
   maximum displ.:     0.2047839 α      in ANC's #24, #11, #14, ...

........................................................................
.............................. CYCLE   16 ..............................
........................................................................
------------------------------------------------------------
  cycle        total energy    energy error   density error
------------------------------------------------------------
      1     -166.1122438481  -1.6747958E+02   3.3750409E-03
      2     -166.1123110550  -6.7206848E-05   1.9026852E-03
      3     -166.1121919656   1.1908939E-04   1.3420594E-03
      4     -166.1123990350  -2.0706947E-04   2.5742745E-04
      5     -166.1124034711  -4.4360240E-06   1.1339636E-04
      6     -166.1124045219  -1.0508715E-06   4.8227126E-05
      7     -166.1124045894  -6.7424253E-08   2.2605945E-05
      8     -166.1124046211  -3.1708083E-08   1.4270351E-05
------------------------------------------------------------

 total:                                   0.544 sec
 * total energy  :  -166.1124046 Eh     change       -0.3738387E-02 Eh
   gradient norm :     0.0365667 Eh/α   predicted    -0.4286688E-02 (  14.67%)
   displ. norm   :     0.4735885 α      lambda       -0.4049335E-02
   maximum displ.:     0.1446055 α      in ANC's #11, #30, #7, ...

........................................................................
.............................. CYCLE   17 ..............................
........................................................................
------------------------------------------------------------
  cycle        total energy    energy error   density error
------------------------------------------------------------
      1     -166.1149280805  -1.6748275E+02   2.5317905E-03
      2     -166.1149565471  -2.8466529E-05   1.4477547E-03
      3     -166.1148727532   8.3793882E-05   9.6709133E-04
      4     -166.1149955026  -1.2274944E-04   1.7141706E-04
      5     -166.1149973667  -1.8640988E-06   7.2107110E-05
      6     -166.1149977154  -3.4863831E-07   4.0427018E-05
      7     -166.1149978086  -9.3199645E-08   1.8500778E-05
------------------------------------------------------------

 total:                                   0.410 sec
 * total energy  :  -166.1149978 Eh     change       -0.2593188E-02 Eh
   gradient norm :     0.0349692 Eh/α   predicted    -0.2478774E-02 (  -4.41%)
   displ. norm   :     0.5353025 α      lambda       -0.4226816E-02
   maximum displ.:     0.1728598 α      in ANC's #11, #30, #10, ...

........................................................................
.............................. CYCLE   18 ..............................
........................................................................
------------------------------------------------------------
  cycle        total energy    energy error   density error
------------------------------------------------------------
      1     -166.1178748918  -1.6748787E+02   2.5976658E-03
      2     -166.1179084478  -3.3555975E-05   1.5471090E-03
      3     -166.1178204567   8.7991068E-05   9.7943896E-04
      4     -166.1179470819  -1.2662519E-04   1.7273106E-04
      5     -166.1179497298  -2.6478620E-06   7.6755761E-05
      6     -166.1179500853  -3.5555530E-07   4.1391370E-05
      7     -166.1179501413  -5.5937448E-08   2.0305379E-05
      8     -166.1179501860  -4.4718945E-08   1.1484961E-05
------------------------------------------------------------

 total:                                   0.490 sec
 * total energy  :  -166.1179502 Eh     change       -0.2952377E-02 Eh
   gradient norm :     0.0300297 Eh/α   predicted    -0.2719010E-02 (  -7.90%)
   displ. norm   :     0.5489686 α      lambda       -0.3587367E-02
   maximum displ.:     0.1739873 α      in ANC's #7, #10, #30, ...

........................................................................
.............................. CYCLE   19 ..............................
........................................................................
------------------------------------------------------------
  cycle        total energy    energy error   density error
------------------------------------------------------------
      1     -166.1204086155  -1.6748765E+02   2.5309111E-03
      2     -166.1204533810  -4.4765569E-05   1.5220040E-03
      3     -166.1203912832   6.2097853E-05   8.9627410E-04
      4     -166.1204825436  -9.1260402E-05   2.1314298E-04
      5     -166.1204870126  -4.4689996E-06   9.9092458E-05
      6     -166.1204877881  -7.7549245E-07   4.1016243E-05
      7     -166.1204878398  -5.1685277E-08   1.3772274E-05
------------------------------------------------------------

 total:                                   0.385 sec
 * total energy  :  -166.1204878 Eh     change       -0.2537654E-02 Eh
   gradient norm :     0.0278095 Eh/α   predicted    -0.2334242E-02 (  -8.02%)
   displ. norm   :     0.5736713 α      lambda       -0.3839877E-02
   maximum displ.:     0.1924257 α      in ANC's #7, #10, #5, ...

........................................................................
.............................. CYCLE   20 ..............................
........................................................................
------------------------------------------------------------
  cycle        total energy    energy error   density error
------------------------------------------------------------
      1     -166.1224395560  -1.6748947E+02   2.7731026E-03
      2     -166.1225065100  -6.6954004E-05   1.6544161E-03
      3     -166.1224415859   6.4924062E-05   1.0046158E-03
      4     -166.1225417788  -1.0019287E-04   2.7074770E-04
      5     -166.1225485290  -6.7502705E-06   1.3703733E-04
      6     -166.1225503068  -1.7778066E-06   5.6605366E-05
      7     -166.1225503793  -7.2462171E-08   2.2526987E-05
      8     -166.1225504379  -5.8599795E-08   1.2355775E-05
------------------------------------------------------------

 total:                                   0.534 sec
 * total energy  :  -166.1225504 Eh     change       -0.2062598E-02 Eh
   gradient norm :     0.0294019 Eh/α   predicted    -0.2551788E-02 (  23.72%)
   displ. norm   :     0.5301398 α      lambda       -0.3190175E-02
   maximum displ.:     0.1654314 α      in ANC's #10, #4, #8, ...
 * RMSD in coord.:     1.0530529 α      energy gain  -0.2364262E+01 Eh

generating ANC from exact Hessian ...
Using Lindh-Hessian (1995)
 Shifting diagonal of input Hessian by    9.8362722841936253E-003
 Lowest  eigenvalues of input Hessian
    0.000000    0.000000    0.000000    0.000000    0.000000    0.000000
    0.010000    0.010054    0.010168    0.010352    0.010501    0.010658
    0.010754    0.011050    0.011733    0.011977    0.012137    0.012355
 Highest eigenvalues
    2.171089    2.189105    2.215926    2.223533    2.258697    2.291198


........................................................................
.............................. CYCLE   21 ..............................
........................................................................
------------------------------------------------------------
  cycle        total energy    energy error   density error
------------------------------------------------------------
      1     -166.1233897617  -1.6748420E+02   2.5529568E-03
      2     -166.1234213824  -3.1620711E-05   1.5010186E-03
      3     -166.1233269722   9.4410125E-05   9.3760139E-04
      4     -166.1234470191  -1.2004686E-04   2.0665520E-04
      5     -166.1234519503  -4.9312395E-06   1.0180175E-04
      6     -166.1234530762  -1.1258765E-06   4.8820256E-05
      7     -166.1234531586  -8.2366654E-08   2.1901882E-05
      8     -166.1234532103  -5.1764772E-08   1.0659450E-05
------------------------------------------------------------

 total:                                   0.497 sec
 * total energy  :  -166.1234532 Eh     change       -0.9027724E-03 Eh
   gradient norm :     0.0356065 Eh/α   predicted     0.0000000E+00 (-100.00%)
   displ. norm   :     0.2253327 α      lambda       -0.3215349E-02
   maximum displ.:     0.0866934 α      in ANC's #16, #18, #7, ...

........................................................................
.............................. CYCLE   22 ..............................
........................................................................
------------------------------------------------------------
  cycle        total energy    energy error   density error
------------------------------------------------------------
      1     -166.1258552974  -1.6749121E+02   1.4491259E-03
      2     -166.1258647124  -9.4150047E-06   8.5936021E-04
      3     -166.1258400564   2.4656053E-05   5.0870718E-04
      4     -166.1258732931  -3.3236774E-05   1.1483155E-04
      5     -166.1258743937  -1.1005929E-06   4.7584782E-05
      6     -166.1258744715  -7.7734512E-08   2.5910798E-05
      7     -166.1258745128  -4.1375586E-08   9.6035019E-06
------------------------------------------------------------

 total:                                   0.499 sec
 * total energy  :  -166.1258745 Eh     change       -0.2421302E-02 Eh
   gradient norm :     0.0217049 Eh/α   predicted    -0.1689699E-02 ( -30.22%)
   displ. norm   :     0.3656386 α      lambda       -0.2504218E-02
   maximum displ.:     0.1526613 α      in ANC's #16, #18, #7, ...

........................................................................
.............................. CYCLE   23 ..............................
........................................................................
------------------------------------------------------------
  cycle        total energy    energy error   density error
------------------------------------------------------------
      1     -166.1275246184  -1.6749621E+02   1.6798797E-03
      2     -166.1275462315  -2.1613136E-05   1.0139858E-03
      3     -166.1275265829   1.9648637E-05   6.6944538E-04
      4     -166.1275671262  -4.0543306E-05   1.5850898E-04
      5     -166.1275694482  -2.3220529E-06   6.5065238E-05
      6     -166.1275695332  -8.4960959E-08   3.5131782E-05
      7     -166.1275696371  -1.0385730E-07   1.1308927E-05
------------------------------------------------------------

 total:                                   0.411 sec
 * total energy  :  -166.1275696 Eh     change       -0.1695124E-02 Eh
   gradient norm :     0.0124693 Eh/α   predicted    -0.1419971E-02 ( -16.23%)
   displ. norm   :     0.3614794 α      lambda       -0.1130586E-02
   maximum displ.:     0.1576259 α      in ANC's #16, #18, #7, ...

........................................................................
.............................. CYCLE   24 ..............................
........................................................................
------------------------------------------------------------
  cycle        total energy    energy error   density error
------------------------------------------------------------
      1     -166.1284202920  -1.6749686E+02   1.1969268E-03
      2     -166.1284327084  -1.2416395E-05   7.4020954E-04
      3     -166.1284246692   8.0392030E-06   4.9096516E-04
      4     -166.1284449636  -2.0294332E-05   1.0849887E-04
      5     -166.1284462021  -1.2385214E-06   4.6993204E-05
      6     -166.1284462511  -4.9068291E-08   2.6594156E-05
      7     -166.1284463047  -5.3583960E-08   7.9545388E-06
------------------------------------------------------------

 total:                                   0.491 sec
 * total energy  :  -166.1284463 Eh     change       -0.8766677E-03 Eh
   gradient norm :     0.0109578 Eh/α   predicted    -0.6391599E-03 ( -27.09%)
   displ. norm   :     0.4885801 α      lambda       -0.1140158E-02
   maximum displ.:     0.2132163 α      in ANC's #16, #7, #10, ...

........................................................................
.............................. CYCLE   25 ..............................
........................................................................
------------------------------------------------------------
  cycle        total energy    energy error   density error
------------------------------------------------------------
      1     -166.1292918450  -1.6749599E+02   1.4111157E-03
      2     -166.1293061234  -1.4278420E-05   8.7742502E-04
      3     -166.1292869174   1.9205976E-05   5.5230499E-04
      4     -166.1293181154  -3.1198035E-05   1.1289818E-04
      5     -166.1293196159  -1.5004669E-06   5.1527776E-05
      6     -166.1293197000  -8.4140964E-08   3.0344802E-05
      7     -166.1293197685  -6.8422423E-08   9.9522345E-06
------------------------------------------------------------

 total:                                   0.417 sec
 * total energy  :  -166.1293198 Eh     change       -0.8734637E-03 Eh
   gradient norm :     0.0111117 Eh/α   predicted    -0.7062144E-03 ( -19.15%)
   displ. norm   :     0.5001697 α      lambda       -0.9199668E-03
   maximum displ.:     0.2120689 α      in ANC's #16, #7, #10, ...

........................................................................
.............................. CYCLE   26 ..............................
........................................................................
------------------------------------------------------------
  cycle        total energy    energy error   density error
------------------------------------------------------------
      1     -166.1300268359  -1.6749541E+02   1.3346992E-03
      2     -166.1300361728  -9.3368908E-06   8.1998075E-04
      3     -166.1300175869   1.8585925E-05   4.1780163E-04
      4     -166.1300407455  -2.3158583E-05   9.7766538E-05
      5     -166.1300417925  -1.0470440E-06   4.3596393E-05
      6     -166.1300418767  -8.4114390E-08   2.4567631E-05
      7     -166.1300419123  -3.5666659E-08   7.7032724E-06
------------------------------------------------------------

 total:                                   0.423 sec
 * total energy  :  -166.1300419 Eh     change       -0.7221439E-03 Eh
   gradient norm :     0.0127515 Eh/α   predicted    -0.5750628E-03 ( -20.37%)
   displ. norm   :     0.5027480 α      lambda       -0.8860774E-03
   maximum displ.:     0.1958959 α      in ANC's #10, #16, #7, ...

........................................................................
.............................. CYCLE   27 ..............................
........................................................................
------------------------------------------------------------
  cycle        total energy    energy error   density error
------------------------------------------------------------
      1     -166.1307473955  -1.6749634E+02   1.2948841E-03
      2     -166.1307535728  -6.1772773E-06   7.7704025E-04
      3     -166.1307433355   1.0237311E-05   2.8953029E-04
      4     -166.1307554629  -1.2127457E-05   8.9385003E-05
      5     -166.1307562557  -7.9275293E-07   3.8134236E-05
      6     -166.1307563622  -1.0651061E-07   1.7462940E-05
------------------------------------------------------------

 total:                                   0.363 sec
 * total energy  :  -166.1307564 Eh     change       -0.7144499E-03 Eh
   gradient norm :     0.0137431 Eh/α   predicted    -0.5550703E-03 ( -22.31%)
   displ. norm   :     0.5220749 α      lambda       -0.9494373E-03
   maximum displ.:     0.2123924 α      in ANC's #10, #4, #7, ...

........................................................................
.............................. CYCLE   28 ..............................
........................................................................
------------------------------------------------------------
  cycle        total energy    energy error   density error
------------------------------------------------------------
      1     -166.1315109736  -1.6749857E+02   1.3711998E-03
      2     -166.1315171515  -6.1778325E-06   8.0784754E-04
      3     -166.1314922181   2.4933388E-05   4.5067973E-04
      4     -166.1315230607  -3.0842619E-05   8.5790590E-05
      5     -166.1315234808  -4.2010470E-07   3.5533070E-05
      6     -166.1315235363  -5.5526129E-08   1.7575879E-05
------------------------------------------------------------

 total:                                   0.445 sec
 * total energy  :  -166.1315235 Eh     change       -0.7671741E-03 Eh
   gradient norm :     0.0135077 Eh/α   predicted    -0.6041110E-03 ( -21.26%)
   displ. norm   :     0.5550809 α      lambda       -0.9359473E-03
   maximum displ.:     0.2314865 α      in ANC's #4, #10, #7, ...

........................................................................
.............................. CYCLE   29 ..............................
........................................................................
------------------------------------------------------------
  cycle        total energy    energy error   density error
------------------------------------------------------------
      1     -166.1322605496  -1.6750078E+02   1.4818705E-03
      2     -166.1322678112  -7.2615398E-06   8.8250326E-04
      3     -166.1322328405   3.4970677E-05   5.4051036E-04
      4     -166.1322769404  -4.4099924E-05   9.6687869E-05
      5     -166.1322777867  -8.4633021E-07   4.8808687E-05
      6     -166.1322779883  -2.0155278E-07   2.7636462E-05
      7     -166.1322780579  -6.9617698E-08   1.0899045E-05
------------------------------------------------------------

 total:                                   0.390 sec
 * total energy  :  -166.1322781 Eh     change       -0.7545216E-03 Eh
   gradient norm :     0.0118867 Eh/α   predicted    -0.6121690E-03 ( -18.87%)
   displ. norm   :     0.5840737 α      lambda       -0.8104052E-03
   maximum displ.:     0.2525999 α      in ANC's #4, #10, #7, ...

........................................................................
.............................. CYCLE   30 ..............................
........................................................................
------------------------------------------------------------
  cycle        total energy    energy error   density error
------------------------------------------------------------
      1     -166.1329081685  -1.6750219E+02   1.5448541E-03
      2     -166.1329154997  -7.3311714E-06   9.2061149E-04
      3     -166.1328833952   3.2104522E-05   5.1281313E-04
      4     -166.1329222270  -3.8831821E-05   1.0129481E-04
      5     -166.1329234893  -1.2623396E-06   4.7355483E-05
      6     -166.1329237217  -2.3232977E-07   2.4660857E-05
      7     -166.1329237544  -3.2705941E-08   1.1364168E-05
------------------------------------------------------------

 total:                                   0.371 sec
 * total energy  :  -166.1329238 Eh     change       -0.6456965E-03 Eh
   gradient norm :     0.0100162 Eh/α   predicted    -0.5434393E-03 ( -15.84%)
   displ. norm   :     0.5661647 α      lambda       -0.6285300E-03
   maximum displ.:     0.2535702 α      in ANC's #4, #10, #2, ...

........................................................................
.............................. CYCLE   31 ..............................
........................................................................
------------------------------------------------------------
  cycle        total energy    energy error   density error
------------------------------------------------------------
      1     -166.1334061308  -1.6750346E+02   1.5062049E-03
      2     -166.1334140557  -7.9249260E-06   8.9672781E-04
      3     -166.1333915450   2.2510774E-05   4.3785361E-04
      4     -166.1334175651  -2.6020143E-05   1.1186452E-04
      5     -166.1334193657  -1.8005930E-06   4.9656385E-05
      6     -166.1334197095  -3.4379013E-07   2.2350637E-05
      7     -166.1334197270  -1.7504220E-08   1.0281134E-05
------------------------------------------------------------

 total:                                   0.417 sec
 * total energy  :  -166.1334197 Eh     change       -0.4959726E-03 Eh
   gradient norm :     0.0088985 Eh/α   predicted    -0.4150051E-03 ( -16.33%)
   displ. norm   :     0.5725828 α      lambda       -0.4845514E-03
   maximum displ.:     0.2580985 α      in ANC's #4, #10, #2, ...

........................................................................
.............................. CYCLE   32 ..............................
........................................................................
------------------------------------------------------------
  cycle        total energy    energy error   density error
------------------------------------------------------------
      1     -166.1337938512  -1.6750350E+02   1.5585659E-03
      2     -166.1338001767  -6.3254801E-06   9.2315948E-04
      3     -166.1337813329   1.8843783E-05   3.7841147E-04
      4     -166.1338028646  -2.1531671E-05   9.5353050E-05
      5     -166.1338038486  -9.8401051E-07   4.7350256E-05
      6     -166.1338042181  -3.6956087E-07   1.5539295E-05
------------------------------------------------------------

 total:                                   0.374 sec
 * total energy  :  -166.1338042 Eh     change       -0.3844911E-03 Eh
   gradient norm :     0.0087696 Eh/α   predicted    -0.3217082E-03 ( -16.33%)
   displ. norm   :     0.4913432 α      lambda       -0.4934210E-03
   maximum displ.:     0.2384793 α      in ANC's #4, #2, #10, ...

........................................................................
.............................. CYCLE   33 ..............................
........................................................................
------------------------------------------------------------
  cycle        total energy    energy error   density error
------------------------------------------------------------
      1     -166.1340145017  -1.6750876E+02   1.5470271E-03
      2     -166.1340450661  -3.0564439E-05   9.8545768E-04
      3     -166.1340300677   1.4998392E-05   5.4718427E-04
      4     -166.1340539649  -2.3897106E-05   1.7083380E-04
      5     -166.1340584136  -4.4487253E-06   8.1647516E-05
      6     -166.1340592513  -8.3775015E-07   4.1467144E-05
      7     -166.1340593272  -7.5895116E-08   1.5388860E-05
------------------------------------------------------------

 total:                                   0.569 sec
 * total energy  :  -166.1340593 Eh     change       -0.2551091E-03 Eh
   gradient norm :     0.0089001 Eh/α   predicted    -0.3062888E-03 (  20.06%)
   displ. norm   :     0.6033203 α      lambda       -0.5181494E-03
   maximum displ.:     0.2688893 α      in ANC's #4, #10, #2, ...

........................................................................
.............................. CYCLE   34 ..............................
........................................................................
------------------------------------------------------------
  cycle        total energy    energy error   density error
------------------------------------------------------------
      1     -166.1343192184  -1.6750443E+02   1.9449376E-03
      2     -166.1343404186  -2.1200219E-05   1.1834596E-03
      3     -166.1343059909   3.4427718E-05   5.5084900E-04
      4     -166.1343485433  -4.2552393E-05   1.3313921E-04
      5     -166.1343503325  -1.7892295E-06   6.5156329E-05
      6     -166.1343504856  -1.5311338E-07   3.7587096E-05
      7     -166.1343505671  -8.1498399E-08   1.1278081E-05
------------------------------------------------------------

 total:                                   0.396 sec
 * total energy  :  -166.1343506 Eh     change       -0.2912399E-03 Eh
   gradient norm :     0.0099443 Eh/α   predicted    -0.3533799E-03 (  21.34%)
   displ. norm   :     0.2257010 α      lambda       -0.2094478E-03
   maximum displ.:     0.1062336 α      in ANC's #4, #2, #10, ...

........................................................................
.............................. CYCLE   35 ..............................
........................................................................
------------------------------------------------------------
  cycle        total energy    energy error   density error
------------------------------------------------------------
      1     -166.1345282826  -1.6750563E+02   6.9704669E-04
      2     -166.1345301428  -1.8602526E-06   4.1505082E-04
      3     -166.1345266057   3.5371220E-06   1.7681492E-04
      4     -166.1345308418  -4.2360711E-06   4.3037263E-05
      5     -166.1345310468  -2.0500909E-07   2.1382464E-05
      6     -166.1345310976  -5.0797553E-08   9.3001972E-06
------------------------------------------------------------

 total:                                   0.506 sec
 * total energy  :  -166.1345311 Eh     change       -0.1805304E-03 Eh
   gradient norm :     0.0079386 Eh/α   predicted    -0.1100595E-03 ( -39.04%)
   displ. norm   :     0.5115509 α      lambda       -0.5857382E-03
   maximum displ.:     0.2367936 α      in ANC's #4, #2, #10, ...

........................................................................
.............................. CYCLE   36 ..............................
........................................................................
------------------------------------------------------------
  cycle        total energy    energy error   density error
------------------------------------------------------------
      1     -166.1348789830  -1.6750874E+02   1.9239139E-03
      2     -166.1349001637  -2.1180641E-05   1.1695427E-03
      3     -166.1348775674   2.2596254E-05   4.3091468E-04
      4     -166.1349029270  -2.5359627E-05   1.3761637E-04
      5     -166.1349056258  -2.6988008E-06   6.6300217E-05
      6     -166.1349060117  -3.8585546E-07   3.3959587E-05
      7     -166.1349060820  -7.0284244E-08   1.1815320E-05
------------------------------------------------------------

 total:                                   0.417 sec
 * total energy  :  -166.1349061 Eh     change       -0.3749844E-03 Eh
   gradient norm :     0.0089640 Eh/α   predicted    -0.3695147E-03 (  -1.46%)
   displ. norm   :     0.5015846 α      lambda       -0.4388303E-03
   maximum displ.:     0.2296391 α      in ANC's #2, #4, #10, ...

........................................................................
.............................. CYCLE   37 ..............................
........................................................................
------------------------------------------------------------
  cycle        total energy    energy error   density error
------------------------------------------------------------
      1     -166.1352456677  -1.6750984E+02   1.6116177E-03
      2     -166.1352568931  -1.1225439E-05   9.6739023E-04
      3     -166.1352354880   2.1405061E-05   4.4462210E-04
      4     -166.1352621639  -2.6675865E-05   8.8044075E-05
      5     -166.1352630510  -8.8711815E-07   4.5298568E-05
      6     -166.1352632440  -1.9299884E-07   2.0736920E-05
      7     -166.1352632492  -5.1550728E-09   8.4050244E-06
------------------------------------------------------------

 total:                                   0.360 sec
 * total energy  :  -166.1352632 Eh     change       -0.3571672E-03 Eh
   gradient norm :     0.0079091 Eh/α   predicted    -0.2746218E-03 ( -23.11%)
   displ. norm   :     0.6730272 α      lambda       -0.5230833E-03
   maximum displ.:     0.2967384 α      in ANC's #2, #4, #5, ...

........................................................................
.............................. CYCLE   38 ..............................
........................................................................
------------------------------------------------------------
  cycle        total energy    energy error   density error
------------------------------------------------------------
      1     -166.1356806785  -1.6750787E+02   2.2148579E-03
      2     -166.1356963561  -1.5677519E-05   1.3214599E-03
      3     -166.1356565159   3.9840132E-05   5.7800588E-04
      4     -166.1357042444  -4.7728473E-05   1.0628401E-04
      5     -166.1357054366  -1.1922361E-06   5.7529960E-05
      6     -166.1357058865  -4.4990233E-07   2.2552813E-05
      7     -166.1357058935  -6.9233579E-09   1.2379355E-05
------------------------------------------------------------

 total:                                   0.459 sec
 * total energy  :  -166.1357059 Eh     change       -0.4426443E-03 Eh
   gradient norm :     0.0087635 Eh/α   predicted    -0.3800135E-03 ( -14.15%)
   displ. norm   :     0.6909529 α      lambda       -0.8177158E-03
   maximum displ.:     0.3827783 α      in ANC's #5, #7, #2, ...

........................................................................
.............................. CYCLE   39 ..............................
........................................................................
------------------------------------------------------------
  cycle        total energy    energy error   density error
------------------------------------------------------------
      1     -166.1359956735  -1.6750958E+02   2.2751923E-03
      2     -166.1360337330  -3.8059502E-05   1.3465170E-03
      3     -166.1359891574   4.4575538E-05   7.3649142E-04
      4     -166.1360491126  -5.9955121E-05   1.8957618E-04
      5     -166.1360520466  -2.9339998E-06   8.8867127E-05
      6     -166.1360528606  -8.1402163E-07   3.7881399E-05
      7     -166.1360529286  -6.8036655E-08   1.7908689E-05
------------------------------------------------------------

 total:                                   0.473 sec
 * total energy  :  -166.1360529 Eh     change       -0.3470351E-03 Eh
   gradient norm :     0.0128856 Eh/α   predicted    -0.6040583E-03 (  74.06%)
   displ. norm   :     0.6447357 α      lambda       -0.8291967E-03
   maximum displ.:     0.2705328 α      in ANC's #2, #4, #5, ...

........................................................................
.............................. CYCLE   40 ..............................
........................................................................
------------------------------------------------------------
  cycle        total energy    energy error   density error
------------------------------------------------------------
      1     -166.1364036643  -1.6750468E+02   2.3165072E-03
      2     -166.1364185538  -1.4889459E-05   1.3929827E-03
      3     -166.1363889479   2.9605882E-05   4.8454193E-04
      4     -166.1364252000  -3.6252061E-05   1.0412525E-04
      5     -166.1364259684  -7.6843745E-07   6.4596972E-05
      6     -166.1364262961  -3.2771825E-07   2.9289668E-05
      7     -166.1364263212  -2.5049786E-08   1.2634594E-05
------------------------------------------------------------

 total:                                   0.364 sec
 * total energy  :  -166.1364263 Eh     change       -0.3733926E-03 Eh
   gradient norm :     0.0147924 Eh/α   predicted    -0.5869415E-03 (  57.19%)
   displ. norm   :     0.1606940 α      lambda       -0.4277980E-03
   maximum displ.:     0.0856274 α      in ANC's #7, #5, #2, ...

........................................................................
.............................. CYCLE   41 ..............................
........................................................................
------------------------------------------------------------
  cycle        total energy    energy error   density error
------------------------------------------------------------
      1     -166.1367066137  -1.6750652E+02   7.7428354E-04
      2     -166.1367151634  -8.5497599E-06   5.1290422E-04
      3     -166.1367101992   4.9642295E-06   2.4967522E-04
      4     -166.1367184305  -8.2312691E-06   8.4073569E-05
      5     -166.1367192373  -8.0685976E-07   3.7307421E-05
      6     -166.1367192807  -4.3399808E-08   2.1609585E-05
      7     -166.1367193059  -2.5161228E-08   9.0476158E-06
------------------------------------------------------------

 total:                                   0.372 sec
 * total energy  :  -166.1367193 Eh     change       -0.2929847E-03 Eh
   gradient norm :     0.0115258 Eh/α   predicted    -0.2194241E-03 ( -25.11%)
   displ. norm   :     0.3329399 α      lambda       -0.6868479E-03
   maximum displ.:     0.1817845 α      in ANC's #7, #5, #2, ...

........................................................................
.............................. CYCLE   42 ..............................
........................................................................
------------------------------------------------------------
  cycle        total energy    energy error   density error
------------------------------------------------------------
      1     -166.1370994752  -1.6750982E+02   1.0434399E-03
      2     -166.1371084175  -8.9423056E-06   6.3599992E-04
      3     -166.1370973069   1.1110666E-05   3.6621186E-04
      4     -166.1371127893  -1.5482479E-05   1.0291727E-04
      5     -166.1371138305  -1.0412020E-06   4.6895007E-05
      6     -166.1371140891  -2.5854899E-07   2.0892211E-05
      7     -166.1371141019  -1.2818560E-08   1.2260630E-05
------------------------------------------------------------

 total:                                   0.353 sec
 * total energy  :  -166.1371141 Eh     change       -0.3947960E-03 Eh
   gradient norm :     0.0067035 Eh/α   predicted    -0.3814954E-03 (  -3.37%)
   displ. norm   :     0.7165960 α      lambda       -0.5945281E-03
   maximum displ.:     0.3318906 α      in ANC's #5, #7, #2, ...
 * RMSD in coord.:     1.0047858 α      energy gain  -0.1456366E-01 Eh

generating ANC from exact Hessian ...
Using Lindh-Hessian (1995)
 Shifting diagonal of input Hessian by    9.8109076792675248E-003
 Lowest  eigenvalues of input Hessian
    0.000000    0.000000    0.000000    0.000000    0.000000    0.000000
    0.010000    0.010010    0.010118    0.010302    0.010404    0.010621
    0.010640    0.010740    0.011780    0.012152    0.012247    0.012370
 Highest eigenvalues
    2.190131    2.203490    2.205640    2.234382    2.245453    2.249868


........................................................................
.............................. CYCLE   43 ..............................
........................................................................
------------------------------------------------------------
  cycle        total energy    energy error   density error
------------------------------------------------------------
      1     -166.1375691882  -1.6750670E+02   2.1702429E-03
      2     -166.1375792015  -1.0013265E-05   1.2858734E-03
      3     -166.1375569999   2.2201627E-05   4.5483462E-04
      4     -166.1375834277  -2.6427822E-05   8.7970179E-05
      5     -166.1375838646  -4.3688652E-07   4.9535303E-05
      6     -166.1375842157  -3.5117569E-07   1.8703033E-05
------------------------------------------------------------

 total:                                   0.485 sec
 * total energy  :  -166.1375842 Eh     change       -0.4701138E-03 Eh
   gradient norm :     0.0096952 Eh/α   predicted     0.0000000E+00 (-100.00%)
   displ. norm   :     0.1422927 α      lambda       -0.4550627E-03
   maximum displ.:     0.0720819 α      in ANC's #20, #15, #7, ...

........................................................................
.............................. CYCLE   44 ..............................
........................................................................
------------------------------------------------------------
  cycle        total energy    energy error   density error
------------------------------------------------------------
      1     -166.1379705714  -1.6750984E+02   7.2824061E-04
      2     -166.1379716827  -1.1113151E-06   4.3847606E-04
      3     -166.1379630676   8.6151317E-06   2.0984868E-04
      4     -166.1379727456  -9.6779714E-06   3.5164495E-05
      5     -166.1379729151  -1.6956199E-07   1.6969899E-05
------------------------------------------------------------

 total:                                   0.267 sec
 * total energy  :  -166.1379729 Eh     change       -0.3886994E-03 Eh
   gradient norm :     0.0049864 Eh/α   predicted    -0.2321387E-03 ( -40.28%)
   displ. norm   :     0.5027852 α      lambda       -0.1097088E-02
   maximum displ.:     0.2588741 α      in ANC's #20, #15, #7, ...

........................................................................
.............................. CYCLE   45 ..............................
........................................................................
------------------------------------------------------------
  cycle        total energy    energy error   density error
------------------------------------------------------------
      1     -166.1388395023  -1.6751158E+02   2.1894509E-03
      2     -166.1388516324  -1.2130114E-05   1.3219609E-03
      3     -166.1388022258   4.9406666E-05   5.6562591E-04
      4     -166.1388589797  -5.6753972E-05   1.0524491E-04
      5     -166.1388602406  -1.2608529E-06   4.5389037E-05
      6     -166.1388603574  -1.1684944E-07   2.0995539E-05
      7     -166.1388603649  -7.4592208E-09   1.0170348E-05
------------------------------------------------------------

 total:                                   0.403 sec
 * total energy  :  -166.1388604 Eh     change       -0.8874498E-03 Eh
   gradient norm :     0.0083732 Eh/α   predicted    -0.6872115E-03 ( -22.56%)
   displ. norm   :     0.5762172 α      lambda       -0.9255481E-03
   maximum displ.:     0.2722895 α      in ANC's #20, #15, #7, ...

........................................................................
.............................. CYCLE   46 ..............................
........................................................................
------------------------------------------------------------
  cycle        total energy    energy error   density error
------------------------------------------------------------
      1     -166.1391675691  -1.6750711E+02   2.2618832E-03
      2     -166.1391811116  -1.3542497E-05   1.3677245E-03
      3     -166.1391319075   4.9204068E-05   5.4669653E-04
      4     -166.1391879600  -5.6052536E-05   1.1256260E-04
      5     -166.1391893770  -1.4169073E-06   4.7650456E-05
      6     -166.1391894781  -1.0118444E-07   2.3522932E-05
      7     -166.1391894925  -1.4331818E-08   9.4030534E-06
------------------------------------------------------------

 total:                                   0.381 sec
 * total energy  :  -166.1391895 Eh     change       -0.3291276E-03 Eh
   gradient norm :     0.0224634 Eh/α   predicted    -0.6164292E-03 (  87.29%)
   displ. norm   :     0.1141370 α      lambda       -0.1026100E-02
   maximum displ.:     0.0599847 α      in ANC's #20, #7, #6, ...

........................................................................
.............................. CYCLE   47 ..............................
........................................................................
------------------------------------------------------------
  cycle        total energy    energy error   density error
------------------------------------------------------------
      1     -166.1398440280  -1.6751109E+02   7.4559306E-04
      2     -166.1398487828  -4.7547373E-06   4.2388558E-04
      3     -166.1398474079   1.3748793E-06   1.5499692E-04
      4     -166.1398490449  -1.6369682E-06   6.0244555E-05
      5     -166.1398495947  -5.4980438E-07   2.4328496E-05
      6     -166.1398496235  -2.8815350E-08   1.3371578E-05
------------------------------------------------------------

 total:                                   0.310 sec
 * total energy  :  -166.1398496 Eh     change       -0.6601310E-03 Eh
   gradient norm :     0.0088246 Eh/α   predicted    -0.5197382E-03 ( -21.27%)
   displ. norm   :     0.3911456 α      lambda       -0.6785052E-03
   maximum displ.:     0.1674285 α      in ANC's #7, #15, #4, ...

........................................................................
.............................. CYCLE   48 ..............................
........................................................................
------------------------------------------------------------
  cycle        total energy    energy error   density error
------------------------------------------------------------
      1     -166.1403781740  -1.6751135E+02   1.3216160E-03
      2     -166.1403821244  -3.9504202E-06   7.9477403E-04
      3     -166.1403668362   1.5288282E-05   3.0137423E-04
      4     -166.1403841523  -1.7316174E-05   6.4203616E-05
      5     -166.1403846940  -5.4169269E-07   2.9368176E-05
      6     -166.1403847659  -7.1866964E-08   1.0273861E-05
------------------------------------------------------------

 total:                                   0.415 sec
 * total energy  :  -166.1403848 Eh     change       -0.5351424E-03 Eh
   gradient norm :     0.0071734 Eh/α   predicted    -0.3911593E-03 ( -26.91%)
   displ. norm   :     0.5073844 α      lambda       -0.6705840E-03
   maximum displ.:     0.2172201 α      in ANC's #7, #15, #4, ...

........................................................................
.............................. CYCLE   49 ..............................
........................................................................
------------------------------------------------------------
  cycle        total energy    energy error   density error
------------------------------------------------------------
      1     -166.1408148407  -1.6750959E+02   1.8573273E-03
      2     -166.1408197984  -4.9577575E-06   1.1168494E-03
      3     -166.1408099484   9.8500578E-06   2.6889142E-04
      4     -166.1408215810  -1.1632581E-05   5.8548547E-05
      5     -166.1408218436  -2.6265081E-07   3.4521157E-05
      6     -166.1408219879  -1.4426149E-07   1.3265049E-05
------------------------------------------------------------

 total:                                   0.342 sec
 * total energy  :  -166.1408220 Eh     change       -0.4372220E-03 Eh
   gradient norm :     0.0115488 Eh/α   predicted    -0.4216149E-03 (  -3.57%)
   displ. norm   :     0.2560250 α      lambda       -0.4632355E-03
   maximum displ.:     0.1213373 α      in ANC's #7, #4, #6, ...

........................................................................
.............................. CYCLE   50 ..............................
........................................................................
------------------------------------------------------------
  cycle        total energy    energy error   density error
------------------------------------------------------------
      1     -166.1411287429  -1.6751297E+02   1.0073964E-03
      2     -166.1411313492  -2.6062391E-06   6.0035450E-04
      3     -166.1411245038   6.8453754E-06   2.3764973E-04
      4     -166.1411324787  -7.9749153E-06   5.0920466E-05
      5     -166.1411327062  -2.2747801E-07   2.3346650E-05
      6     -166.1411327498  -4.3655007E-08   1.2078090E-05
------------------------------------------------------------

 total:                                   0.405 sec
 * total energy  :  -166.1411327 Eh     change       -0.3107620E-03 Eh
   gradient norm :     0.0080317 Eh/α   predicted    -0.2468024E-03 ( -20.58%)
   displ. norm   :     0.3292188 α      lambda       -0.2941976E-03
   maximum displ.:     0.1519536 α      in ANC's #7, #4, #6, ...

........................................................................
.............................. CYCLE   51 ..............................
........................................................................
------------------------------------------------------------
  cycle        total energy    energy error   density error
------------------------------------------------------------
      1     -166.1413358416  -1.6751284E+02   1.2404060E-03
      2     -166.1413376245  -1.7829295E-06   7.4659248E-04
      3     -166.1413260437   1.1580745E-05   2.7086120E-04
      4     -166.1413390756  -1.3031896E-05   4.4032113E-05
      5     -166.1413392097  -1.3405645E-07   1.9770392E-05
------------------------------------------------------------

 total:                                   0.307 sec
 * total energy  :  -166.1413392 Eh     change       -0.2064599E-03 Eh
   gradient norm :     0.0077748 Eh/α   predicted    -0.1630433E-03 ( -21.03%)
   displ. norm   :     0.2557216 α      lambda       -0.3375960E-03
   maximum displ.:     0.1077139 α      in ANC's #7, #4, #1, ...

........................................................................
.............................. CYCLE   52 ..............................
........................................................................
------------------------------------------------------------
  cycle        total energy    energy error   density error
------------------------------------------------------------
      1     -166.1415095192  -1.6751561E+02   1.1360986E-03
      2     -166.1415137279  -4.2087319E-06   6.7696907E-04
      3     -166.1415036447   1.0083198E-05   2.8194905E-04
      4     -166.1415152749  -1.1630218E-05   7.1533019E-05
      5     -166.1415157169  -4.4198944E-07   2.8918637E-05
      6     -166.1415157723  -5.5358186E-08   1.4686171E-05
------------------------------------------------------------

 total:                                   0.334 sec
 * total energy  :  -166.1415158 Eh     change       -0.1765626E-03 Eh
   gradient norm :     0.0050554 Eh/α   predicted    -0.1798381E-03 (   1.86%)
   displ. norm   :     0.2748243 α      lambda       -0.1628497E-03
   maximum displ.:     0.1232550 α      in ANC's #7, #4, #20, ...

........................................................................
.............................. CYCLE   53 ..............................
........................................................................
------------------------------------------------------------
  cycle        total energy    energy error   density error
------------------------------------------------------------
      1     -166.1415890391  -1.6751342E+02   1.0856289E-03
      2     -166.1415904668  -1.4277034E-06   6.4878097E-04
      3     -166.1415859834   4.4834469E-06   1.5852791E-04
      4     -166.1415909585  -4.9751359E-06   4.3725565E-05
      5     -166.1415911671  -2.0859048E-07   1.8082331E-05
------------------------------------------------------------

 total:                                   0.263 sec
 * total energy  :  -166.1415912 Eh     change       -0.7539483E-04 Eh
   gradient norm :     0.0054541 Eh/α   predicted    -0.8757536E-04 (  16.16%)
   displ. norm   :     0.0562612 α      lambda       -0.8052136E-04
   maximum displ.:     0.0208866 α      in ANC's #15, #4, #11, ...

........................................................................
.............................. CYCLE   54 ..............................
........................................................................
------------------------------------------------------------
  cycle        total energy    energy error   density error
------------------------------------------------------------
      1     -166.1416494063  -1.6751416E+02   2.8076035E-04
      2     -166.1416497957  -3.8944461E-07   1.6733663E-04
      3     -166.1416483451   1.4506696E-06   1.1482797E-04
      4     -166.1416506440  -2.2988852E-06   2.4189129E-05
      5     -166.1416506951  -5.1100528E-08   1.2235245E-05
------------------------------------------------------------

 total:                                   0.257 sec
 * total energy  :  -166.1416507 Eh     change       -0.5952797E-04 Eh
   gradient norm :     0.0030423 Eh/α   predicted    -0.4038948E-04 ( -32.15%)
   displ. norm   :     0.1440162 α      lambda       -0.7509250E-04
   maximum displ.:     0.0772453 α      in ANC's #4, #7, #5, ...

........................................................................
.............................. CYCLE   55 ..............................
........................................................................
------------------------------------------------------------
  cycle        total energy    energy error   density error
[...]
    35   6 C       74   1 H                                       1.0855077
    35   6 C       75   1 H                                       1.0878606
    78   6 C       79   6 C                                       1.3907694
    79   6 C       80   6 C                                       1.4218999
    80   6 C       81   6 C                                       1.4174986
    81   6 C       82   6 C                                       1.4000611
    78   6 C       83   6 C                                       1.3732680
    82   6 C       83   6 C                                       1.3724753
    80   6 C       84   6 C                                       1.4321669
    84   6 C       85   6 C                                       1.4189133
    85   6 C       86   6 C                                       1.4137428
    76   6 C       87   7 N                                       1.4547724
    81   6 C       87   7 N                                       1.3806519
    86   6 C       87   7 N                                       1.3864678
    84   6 C       88   6 C                                       1.4241459
    88   6 C       89   6 C                                       1.4159284
    77   6 C       90   7 N                                       1.4523494
    89   6 C       90   7 N                                       1.3793886
    85   6 C       91   6 C                                       1.4182290
    90   7 N       91   6 C                                       1.3732644
    91   6 C       92   6 C                                       1.3995152
    92   6 C       93   6 C                                       1.3735790
    86   6 C       94   6 C                                       1.3948615
    93   6 C       94   6 C                                       1.3736354
    88   6 C       95   6 C                                       1.4216963
    95   6 C       96   6 C                                       1.3877829
    96   6 C       97   6 C                                       1.3757285
    89   6 C       98   6 C                                       1.3993225
    97   6 C       98   6 C                                       1.3704104
    95   6 C       99   8 O                                       1.3503989
    79   6 C      100   8 O                                       1.3455379
    78   6 C      101   1 H                                       1.0734016
    82   6 C      102   1 H                                       1.0720985
    96   6 C      103   1 H                                       1.0741140
    98   6 C      104   1 H                                       1.0727544
    92   6 C      105   1 H                                       1.0725176
    94   6 C      106   1 H                                       1.0734599
    77   6 C      107   6 C                                       1.5314594
   107   6 C      108   6 C                                       1.5234315
    76   6 C      109   6 C                                       1.5323582
   109   6 C      110   6 C                                       1.5235826
    99   8 O      111   6 C                                       1.4137185
   100   8 O      112   6 C                                       1.4135836
    83   6 C      113  16 S                                       1.8303982
   113  16 S      114   9 F                                       1.6559056
   113  16 S      115   9 F                                       1.6655712
   113  16 S      116   9 F                                       1.6678521
   113  16 S      117   9 F                                       1.6175813
   113  16 S      118   9 F                                       1.6832390
    97   6 C      119  16 S                                       1.8252453
   119  16 S      120   9 F                                       1.6653279
   119  16 S      121   9 F                                       1.6737302
   119  16 S      122   9 F                                       1.6176291
   119  16 S      123   9 F                                       1.6469509
   119  16 S      124   9 F                                       1.6678012
    93   6 C      125  16 S                                       1.8305812
   125  16 S      126   9 F                                       1.6673659
   125  16 S      127   9 F                                       1.6626592
   125  16 S      128   9 F                                       1.6111528
   125  16 S      129   9 F                                       1.6622106
   125  16 S      130   9 F                                       1.6629412
    77   6 C      131   1 H                                       1.0910034
    77   6 C      132   1 H                                       1.0926323
   107   6 C      133   1 H                                       1.0904686
   107   6 C      134   1 H                                       1.0890478
   108   6 C      135   1 H                                       1.0878860
   108   6 C      136   1 H                                       1.0856587
   108   6 C      137   1 H                                       1.0872525
   112   6 C      138   1 H                                       1.0890469
   112   6 C      139   1 H                                       1.0918373
   112   6 C      140   1 H                                       1.0928880
   111   6 C      141   1 H                                       1.0887737
   111   6 C      142   1 H                                       1.0933116
   111   6 C      143   1 H                                       1.0925821
    76   6 C      144   1 H                                       1.0849490
    76   6 C      145   1 H                                       1.0931985
   109   6 C      146   1 H                                       1.0906476
   109   6 C      147   1 H                                       1.0915420
   110   6 C      148   1 H                                       1.0865697
   110   6 C      149   1 H                                       1.0861678
   110   6 C      150   1 H                                       1.0867766

 * 6 distinct bonds (by element types)

   Z      Z             #   av. dist./Å        max./Å        min./Å
   1 H    6 C          52     1.0857602     1.0936685     1.0717703
   6 C    6 C          50     1.4201906     1.5338487     1.3704104
   6 C    7 N          12     1.4044750     1.4547724     1.3732644
   6 C    8 O           8     1.3810250     1.4146262     1.3455379
   6 C   16 S           6     1.8306476     1.8366127     1.8252453
   9 F   16 S          30     1.6552146     1.6832390     1.6111528


optimized geometry written to: xtbopt.mol


           -------------------------------------------------
          | TOTAL ENERGY             -332.345272001429 Eh   |
          | GRADIENT NORM               0.000105743576 Eh/α |
           -------------------------------------------------

------------------------------------------------------------------------
 * finished run on 2025/03/03 at 15:07:01.230     
------------------------------------------------------------------------
 total:
 * wall-time:     0 d,  0 h,  3 min,  5.016 sec
 *  cpu-time:     0 d,  0 h, 10 min, 13.675 sec
 * ratio c/w:     3.317 speedup
 SCF:
 * wall-time:     0 d,  0 h,  0 min,  2.838 sec
 *  cpu-time:     0 d,  0 h,  0 min, 10.197 sec
 * ratio c/w:     3.593 speedup
 ANC optimizer:
Note: The following floating-point exceptions are signalling: IEEE_UNDERFLOW_FLAG
normal termination of xtb
 * wall-time:     0 d,  0 h,  3 min,  2.168 sec
 *  cpu-time:     0 d,  0 h, 10 min,  3.472 sec
 * ratio c/w:     3.313 speedup

      -----------------------------------------------------------      
     |                   =====================                   |     
     |                           x T B                           |     
     |                   =====================                   |     
     |                         S. Grimme                         |     
     |          Mulliken Center for Theoretical Chemistry        |     
     |                    University of Bonn                     |     
      -----------------------------------------------------------      

   * xtb version 6.7.1 (edcfbbe) compiled by 'runner@Mac-1732539442253.local' on 2024-11-25

   xtb is free software: you can redistribute it and/or modify it under
   the terms of the GNU Lesser General Public License as published by
   the Free Software Foundation, either version 3 of the License, or
   (at your option) any later version.
   
   xtb is distributed in the hope that it will be useful,
   but WITHOUT ANY WARRANTY; without even the implied warranty of
   MERCHANTABILITY or FITNESS FOR A PARTICULAR PURPOSE.  See the
   GNU Lesser General Public License for more details.
   
   Cite this work as:
   * C. Bannwarth, E. Caldeweyher, S. Ehlert, A. Hansen, P. Pracht,
     J. Seibert, S. Spicher, S. Grimme, WIREs Comput. Mol. Sci., 2020, 11,
     e01493. DOI: 10.1002/wcms.1493
   
   for GFN2-xTB:
   * C. Bannwarth, S. Ehlert and S. Grimme., J. Chem. Theory Comput., 2019,
     15, 1652-1671. DOI: 10.1021/acs.jctc.8b01176
   for GFN1-xTB:
   * S. Grimme, C. Bannwarth, P. Shushkov, J. Chem. Theory Comput., 2017,
     13, 1989-2009. DOI: 10.1021/acs.jctc.7b00118
   for GFN0-xTB:
   * P. Pracht, E. Caldeweyher, S. Ehlert, S. Grimme, ChemRxiv, 2019, preprint.
     DOI: 10.26434/chemrxiv.8326202.v1
   for GFN-FF:
   * S. Spicher and S. Grimme, Angew. Chem. Int. Ed., 2020, 59, 15665-15673.
     DOI: 10.1002/anie.202004239
   
   for ALPB and GBSA implicit solvation:
   * S. Ehlert, M. Stahn, S. Spicher, S. Grimme, J. Chem. Theory Comput.,
     2021, 17, 4250-4261. DOI: 10.1021/acs.jctc.1c00471
   
   for ddCOSMO and CPCM-X implicit solvation:
   * M. Stahn, S. Ehlert, S. Grimme, J. Phys. Chem. A,
     2023, XX, XXXX-XXXX. DOI: 10.1021/acs.jpca.3c04382
   
   for DFT-D4:
   * E. Caldeweyher, C. Bannwarth and S. Grimme, J. Chem. Phys., 2017,
     147, 034112. DOI: 10.1063/1.4993215
   * E. Caldeweyher, S. Ehlert, A. Hansen, H. Neugebauer, S. Spicher,
     C. Bannwarth and S. Grimme, J. Chem. Phys., 2019, 150, 154122.
     DOI: 10.1063/1.5090222
   * E. Caldeweyher, J.-M. Mewes, S. Ehlert and S. Grimme, Phys. Chem. Chem. Phys.
     2020, 22, 8499-8512. DOI: 10.1039/D0CP00502A
   
   for sTDA-xTB:
   * S. Grimme and C. Bannwarth, J. Chem. Phys., 2016, 145, 054103.
     DOI: 10.1063/1.4959605
   
   in the mass-spec context:
   * V. Asgeirsson, C. Bauer and S. Grimme, Chem. Sci., 2017, 8, 4879.
     DOI: 10.1039/c7sc00601b
   * J. Koopman and S. Grimme, ACS Omega 2019, 4, 12, 15120-15133.
     DOI: 10.1021/acsomega.9b02011
   
   for metadynamics refer to:
   * S. Grimme, J. Chem. Theory Comput., 2019, 155, 2847-2862
     DOI: 10.1021/acs.jctc.9b00143
   
   for SPH calculations refer to:
   * S. Spicher and S. Grimme, J. Chem. Theory Comput., 2021, 17, 1701-1714
     DOI: 10.1021/acs.jctc.0c01306
   
   for ONIOM refer to:
   * C. Plett, A. Katbashev, S. Ehlert, S. Grimme, M. Bursch,
     Phys. Chem. Chem. Phys., 2023, 25, 17860-17868. DOI: 10.1039/D3CP02178E
   
   for DIPRO refer to:
   * J. Kohn, N. Gildemeister, S. Grimme, D. Fazzi, A. Hansen,
     J. Chem. Phys., 2023, just accepted.
   
   for PTB refer to:
   * S. Grimme, M. Mueller, A. Hansen, J. Chem. Phys., 2023, 158, 124111.
     DOI: 10.1063/5.0137838
   
   with help from (in alphabetical order)
   P. Atkinson, C. Bannwarth, F. Bohle, G. Brandenburg, E. Caldeweyher
   M. Checinski, S. Dohm, S. Ehlert, S. Ehrlich, I. Gerasimov, C. Hölzer
   A. Katbashev, J. Kohn, J. Koopman, C. Lavigne, S. Lehtola, F. März, M. Müller,
   F. Musil, H. Neugebauer, J. Pisarek, C. Plett, P. Pracht, F. Pultar,
   J. Seibert, P. Shushkov, S. Spicher, M. Stahn, M. Steiner, T. Strunk,
   J. Stückrath, T. Rose, and J. Unsleber
   
 * started run on 2025/03/03 at 15:07:01.329     
   ID    Z sym.   atoms
    1    6 C      1-11, 13, 14, 16-23, 32-37, 76-86, 88, 89, 91-98, 107-112
    2    7 N      12, 15, 87, 90
    3    8 O      24, 25, 99, 100
    4    1 H      26-31, 56-75, 101-106, 131-150
    5   16 S      38, 44, 50, 113, 119, 125
    6    9 F      39-43, 45-49, 51-55, 114-118, 120-124, 126-130

           -------------------------------------------------
          |                Calculation Setup                |
           -------------------------------------------------

          program call               : xtb opt_dimer.mol --dipro 0.3 --chrg 0 --uhf 2 --spinpol --tblite
          coordinate file            : opt_dimer.mol
          omp threads                :                     8


molecular fragmentation (1/2 indicates fragments):
111111111111111111111111111111111111111111111111111111111111111111111111
111222222222222222222222222222222222222222222222222222222222222222222222
222222
# atoms in fragment 1/2:    75    75
 fragment masses (1/2) :      791.68      791.68
CMA distance (Bohr)    :  11.530
constraining FC (au)   :  0.0500
Wavefunction read from restart file
           -------------------------------------------------
          |                    D I P R O                    |
           -------------------------------------------------
Calculation for dimer 
--------------------- 
  
charge of dimer :   0.
unpaired e- of dimer :  2
repulsion energy          2.7453193780185E+00 Eh
dispersion energy         1.8487870585347E-02 Eh
number of electrons       5.5800000000000E+02 e
integral cutoff           1.8403572253217E+01 bohr

------------------------------------------------------------
  cycle        total energy    energy error   density error
------------------------------------------------------------
      1     -331.5750665277  -3.3433887E+02   2.2189423E-01
      2     -332.0517553638  -4.7668884E-01   1.1688925E-01
      3     -331.8951740504   1.5658131E-01   6.9486731E-02
      4     -332.2508553882  -3.5568134E-01   2.9177001E-02
      5     -332.3146541075  -6.3798719E-02   1.5382117E-02
      6     -332.3344638385  -1.9809731E-02   1.0385835E-02
      7     -332.3404151821  -5.9513436E-03   4.5881516E-03
      8     -332.3416200203  -1.2048382E-03   2.2594672E-03
      9     -332.3425810702  -9.6104983E-04   7.9459357E-04
     10     -332.3426100176  -2.8947479E-05   3.4669592E-04
     11     -332.3426197956  -9.7780027E-06   1.6628964E-04
     12     -332.3426234035  -3.6078165E-06   7.2125090E-05
     13     -332.3426237696  -3.6617951E-07   3.5094808E-05
     14     -332.3426238814  -1.1174438E-07   1.3278324E-05
------------------------------------------------------------

electronic energy        -3.3510643112999E+02 Eh
total energy             -3.3234262388139E+02 Eh

 total:                                   1.802 sec
 - repulsion                              0.000 sec (  0%)
 - dispersion                             0.006 sec (  0%)
 - coulomb                                0.002 sec (  0%)
 - hamiltonian                            0.009 sec (  0%)
 - scc                                    1.784 sec ( 98%)

Found 2 fragments!
Fragment 1:  1-75
Fragment 2:  76-150

[Info] Fragment spin read from .UHFfrag
Calculation for fragment 1
 ------------------------------
   
charge of fragment :   0.
unpaired e- of fragment :  1
------------------------------------------------------------
  cycle        total energy    energy error   density error
------------------------------------------------------------
      1     -165.7516136677  -1.6712596E+02   2.2052124E-01
      2     -165.9934854851  -2.4187182E-01   1.1539832E-01
      3     -165.9045778915   8.8907594E-02   6.8833463E-02
      4     -166.0865159703  -1.8193808E-01   2.9088194E-02
      5     -166.1212256724  -3.4709702E-02   1.5267937E-02
      6     -166.1319856198  -1.0759947E-02   9.9586846E-03
      7     -166.1348998183  -2.9141984E-03   3.8476209E-03
      8     -166.1352596647  -3.5984642E-04   1.5262030E-03
      9     -166.1354110692  -1.5140448E-04   7.2576580E-04
     10     -166.1354330497  -2.1980525E-05   2.3318091E-04
     11     -166.1354337561  -7.0636523E-07   1.1234173E-04
     12     -166.1354342238  -4.6768895E-07   5.3217686E-05
     13     -166.1354343128  -8.9068379E-08   2.0440625E-05
     14     -166.1354343455  -3.2661660E-08   6.9220657E-06
------------------------------------------------------------

 total:                                   0.508 sec
Calculation for fragment 2
 ------------------------------
   
charge of fragment :   0.
unpaired e- of fragment :  1
------------------------------------------------------------
  cycle        total energy    energy error   density error
------------------------------------------------------------
      1     -165.7534158591  -1.6712739E+02   2.2332331E-01
      2     -165.9949019052  -2.4148605E-01   1.1724906E-01
      3     -165.9140680605   8.0833845E-02   6.9263913E-02
      4     -166.0851709766  -1.7110292E-01   2.9755872E-02
      5     -166.1216276573  -3.6456681E-02   1.5464013E-02
      6     -166.1322876423  -1.0659985E-02   1.0107684E-02
      7     -166.1352953220  -3.0076797E-03   3.8736280E-03
      8     -166.1356560442  -3.6072218E-04   1.5430149E-03
      9     -166.1357967985  -1.4075436E-04   7.2420107E-04
     10     -166.1358166556  -1.9857071E-05   2.3447031E-04
     11     -166.1358173413  -6.8566686E-07   1.0809749E-04
     12     -166.1358176799  -3.3859303E-07   5.0672425E-05
     13     -166.1358177286  -4.8745250E-08   2.0069190E-05
     14     -166.1358177575  -2.8882823E-08   7.1033513E-06
------------------------------------------------------------

 total:                                   0.386 sec
   
   ::::::::::::::::::::::::::::::::::::::::::::::
   ::     D I P R O      C O U P L I N G S     ::
   ::::::::::::::::::::::::::::::::::::::::::::::
   
energy threshhold for near-degenerate orbitals near HOMO and LUMO considered for DIPRO:  0.300 eV
no. of orbitals within energy window of frag 1         2
no. of orbitals within energy window of frag 2         2
   
  Fragment 1 SOMO   Fragment 2 SOMO 
--------------------------------------
E_mon(orb) frag1 frag2             -11.200   -11.156 eV
J(AB):               -0.045 eV
S(AB):             0.00201393 Eh
|J(AB,eff)|:            0.022 eV
   
  Fragment 1 SOMO   Fragment 2 LUMO 
--------------------------------------
E_mon(orb) frag1 frag2             -11.200    -9.503 eV
J(AB):                0.031 eV
S(AB):            -0.00136314 Eh
|J(AB,eff)|:            0.017 eV
   
  Fragment 1 LUMO   Fragment 2 SOMO 
--------------------------------------
E_mon(orb) frag1 frag2              -9.550   -11.156 eV
J(AB):               -0.020 eV
S(AB):             0.00091822 Eh
|J(AB,eff)|:            0.011 eV
   
  Fragment 1 LUMO   Fragment 2 LUMO 
--------------------------------------
E_mon(orb) frag1 frag2              -9.550    -9.503 eV
J(AB):                0.029 eV
S(AB):            -0.00126573 Eh
|J(AB,eff)|:            0.017 eV
   
..............................................................................
:  total |J(AB,eff)| for hole transport (occ. MOs) :               0.022 eV  :
:  total |J(AB,eff)| for charge transport (unocc. MOs) :           0.017 eV  :
:  total |J(AB,eff)| for charge transfer (CT) :                    0.020 eV  :
..............................................................................
  
 Please remember, DIPRO is not available for restart!
   
normal termination of dipro
----------------------------------------------------------
 * finished run on 2025/03/03 at 15:07:04.059     
----------------------------------------------------------
 dipro:
 * wall-time:     0 d,  0 h,  0 min,  2.724 sec
 *  cpu-time:     0 d,  0 h,  0 min,  9.405 sec
 * ratio c/w:     3.453 speedup
Reorganization energy (electron): 0.5431471636001423 eV
Reorganization energy (hole): 0.29645940949998484 eV
Electron Transfer integral J: 0.017 eV
Hole Transfer integral J: 0.022 eV
