116
 energy: -22.709051862192 gnorm: 0.498295482956 xtb: 6.6.1 (8d0f1dd)
C            3.38236811791482       -4.26550273052284       -0.93938853593363
C            2.32823643825778       -4.30796643714492       -0.02664264322174
C            2.52925015565064       -3.51701621064098        1.25049008661405
C            3.81641700095496       -3.39027973441617        1.75262726145220
C            4.85551274337760       -3.53154153126898        0.86689729404144
C            4.71981448859192       -3.99485148232790       -0.48988360875601
C            1.47153616870688       -2.77728181829798        2.00169072162784
C            1.74082325411082       -2.56645121257466        3.30284749973611
C            3.12325788221202       -2.88108466462066        3.86887081559736
N            4.12639340056402       -3.26484499516628        3.04211153464832
C            0.23068822439335       -2.23568306162166        1.54875647465761
C           -0.80297988567760       -1.79819728186833        2.43345550632061
N           -0.54670072925786       -1.72090228930150        3.72950349158724
C            0.63528692537606       -2.25370327716832        4.14839906315580
C            0.90095442225608       -1.90904207488065        5.48953010224238
C            2.19582193414575       -2.03533014773189        6.02571330429220
C            3.31016212488269       -2.52616371706420        5.21083035563722
C            0.09447900439321       -1.69940129519794        0.20015878916546
C           -1.14340689417091       -1.17480845105203       -0.34696517799844
C           -2.07882969015500       -0.84294933810735        0.64500945499037
C           -1.89573674851424       -1.12714727663093        1.93810938068342
O            1.26151460367104       -1.75277124131559       -0.64083275976671
O            1.18284715708304       -4.90390880949181       -0.28061496139531
C            5.81382313444566       -3.93950152443726       -1.47760326947461
C           -3.26887187023647       -0.19473054118532        0.11528997112525
H            5.85101202438226       -3.56002482691782        1.19848723539703
H            3.41859208427236       -4.82739007769207       -1.80924230366743
H            4.19714536492716       -2.17140968175945        5.55677905878745
H            0.20166632581565       -1.42896331249607        6.12415720506171
H           -2.73092007612973       -0.83627590725094        2.63660783420548
H           -0.96658282519269       -0.68606825595792       -1.33446995757404
O            6.91858661324526       -4.40740007620776       -1.49099157101567
O            5.49134150728590       -3.04370793856320       -2.39347801305481
C            6.55318535701115       -2.83100276637470       -3.29103456143115
C            2.43062833739825       -1.37591350579788        7.27546777283495
O            3.50006599611491       -1.52081896521279        7.69464473417898
O            1.34779179596825       -0.74450165461056        7.90876605446237
C            1.82357032449881       -0.63061215007705        9.19434005405689
O           -4.20606030923818        0.20905777839311        0.82598812332033
O           -3.00572150732426        0.06245915871874       -1.22967880496072
C           -4.06200644493286        0.51050016203993       -2.04594120045099
C            1.14726879865254       -1.89316383271516       -2.04031249503350
C            0.41920510220902       -5.20116830121385        0.93692004455796
H           -3.88616781532205        1.67962698998485       -2.30341141729541
H           -4.78381985958233        0.43817209968713       -1.26183892309673
H           -4.21682068387706       -0.21194281176760       -2.89192342439111
H            2.91097353875684       -0.46336836010542        9.10507639952166
H            1.73051982117859       -1.49404214675389        9.72074074894870
H            1.63495103630045        0.32966503400476        9.68474224964467
H            0.67218030473203       -6.23150386007232        1.14610107142865
H           -0.68120634677596       -4.91498672476854        0.89661415131099
H            0.78406943705154       -4.88580150674338        1.91164235094719
H            0.80308830043376       -1.04421602402719       -2.66642606803642
H            0.81152378360742       -2.89456230318169       -2.13412646602859
H            2.24647958717652       -1.88978957951574       -2.20084856615400
H            6.34545883852786       -1.88031408244853       -3.80843650004183
H            6.72874998600226       -3.60177570731965       -3.93531465366650
H            7.38681728770580       -2.45686619640832       -2.63935907224299
C           -0.46879092369199        1.34544104357127        4.95583853864523
C           -1.73593060731962        1.79378164921067        5.32206644270928
C           -2.58674252951472        2.46344816475304        4.52433677247997
C           -2.04796528293477        3.17786956584932        3.43085590197420
C           -0.76508558658329        2.84695018104448        3.00935163156370
C           -0.07751062967042        1.81932424449501        3.69151499918209
C           -3.90215426912885        2.82714288688825        4.96680581792291
C           -4.43847700897782        3.90875343898362        4.37764650739201
C           -3.71021507312983        4.72917483491476        3.48589437702594
N           -2.48546191371915        4.34365919169688        3.04991871649737
C           -4.73074507636418        2.11554823658915        5.94202166282365
C           -5.92098127627114        2.79060366648114        6.49949506365941
N           -6.47217875267973        3.86547015501244        5.86855520111442
C           -5.71776444478986        4.36851681942947        4.83439326907077
C           -6.22877010291135        5.53346736666825        4.26036036758569
C           -5.45408814118986        6.32224201601134        3.46002020851476
C           -4.19707823303697        6.03547942383226        3.04008373062457
C           -4.57830824206006        0.75809190694015        6.31032947256285
C           -5.35108874694532        0.27364423795003        7.36502131385914
C           -6.32045081424100        1.00429327533794        7.98820197808074
C           -6.66349675089559        2.19539184723136        7.51772813789638
O           -3.80499043056304       -0.08178818966056        5.52268925374932
O           -2.05691985989457        1.58049174133558        6.53685589115605
C            1.31545494833760        1.50597432608071        3.27878831866681
C           -7.23065427943776        0.54621978210132        9.16056938727326
H           -0.31595382282809        3.26237242291245        2.14590989989625
H            0.22675491300021        1.04141502827206        5.71684370445923
H           -3.62519965623483        6.72804890668015        2.41525274265338
H           -7.15152788781147        5.89392405372803        4.66857412564119
H           -7.50934470831456        2.69938423706781        7.93952727749647
H           -5.18004969435058       -0.68111969344209        7.68882030972555
O            2.06267985572118        0.66917246492549        3.83119871210416
O            1.87780630641737        2.12572221087097        2.11945157135721
C            2.93367228707818        1.30323801977610        1.57225891031576
C           -5.90679461845087        7.59478174158549        2.88660751523777
O           -7.12985005624628        7.76011964677940        2.79392416540237
O           -4.94976930901504        8.46698190790261        2.48563613383462
C           -5.46721929046706        9.70340225161452        2.44810545471904
O           -7.72294565151272        1.32448642253402        9.92342632027608
O           -7.25347119737003       -0.83653991765476        9.25513889933072
C           -8.51720645656619       -1.29598115901971        9.60025460298472
C           -4.77844640496311       -1.08017898661454        5.20661789803497
C           -1.58024304420290        0.33028696140070        7.13831647762816
H           -8.67729154782453       -2.18847679912483       10.14842727077864
H           -9.26943444159919       -1.02844945315458        8.78870344742270
H           -8.74971765165903       -0.61368325852518       10.43222346935938
H           -4.59409528406711       10.36495490220595        2.46910487866644
H           -6.24963605153689        9.92930822211260        3.26280022795147
H           -5.90075824281088        9.87156503276792        1.49353620093795
H           -0.52077118120152        0.20254899236146        7.54256385826991
H           -1.91266409708502       -0.65145489739661        6.66134552109214
H           -2.22686934050103        0.45173605897812        7.98344897548015
H           -5.50273000988417       -0.68921043949172        4.46915328675333
H           -5.20259357829225       -1.75125837519394        5.87062358120615
H           -3.99248076652559       -1.79065350735456        4.58827219939208
H            2.71340704562869        0.32282043474272        1.76174849171422
H            3.93234461153581        1.54962393649964        2.10540863100420
H            3.21206887521935        1.47648933775295        0.54592258523105
116
 energy: -22.562011666206 gnorm: 0.587110183318 xtb: 6.6.1 (8d0f1dd)
C            3.08518814257996       -4.62500303446817       -0.68770170780276
C            2.14414709196603       -3.76735657939169        0.05220050903252
C            2.51705655435641       -2.97218336400080        1.17872412746436
C            3.84542384568466       -3.00733113748849        1.58592039156344
C            4.76108492902468       -3.68274808727038        0.79354777117586
C            4.42095601182771       -4.59159990937424       -0.18403595294723
C            1.57701562174664       -2.07970921273436        1.93188292036428
C            2.10892759528557       -2.02663597642329        3.30147480764319
C            3.44902963062480       -2.59943222653723        3.57572089231595
N            4.47259712397738       -2.68595264525688        2.70684590424810
C            0.42130105491565       -1.29761312523544        1.67903409514041
C           -0.47071437533449       -0.97308319540845        2.68505906510062
N           -0.20710339518282       -1.41023281361785        3.91892482960133
C            1.14181449297078       -1.66412073603213        4.24628818806738
C            1.57069306703688       -1.84911390275035        5.48938386220361
C            2.80610569596580       -2.26084255798816        6.02256953980674
C            3.65880957520733       -2.68124767736493        5.04137888081842
C            0.23485685934072       -0.98599418691511        0.27672667345926
C           -0.96344930164186       -0.43081165574375       -0.15702022905654
C           -1.86587865123190       -0.07383252552718        0.94467425895891
C           -1.70053261313987       -0.42592627593444        2.21832988573084
O            1.34112820102546       -1.17514220275573       -0.56581832138319
O            0.90994307752046       -3.64815404085634       -0.53253608631037
C            5.38837076161711       -5.49366412238986       -0.74742832222133
C           -3.03923017646484        0.63397500286512        0.49963337383999
H            5.76869024177159       -3.49363283783631        0.99120879353203
H            2.72570219806058       -5.20836901824836       -1.46581889164930
H            4.51155810386706       -3.05755819337645        5.53914859559805
H            0.85839033529468       -1.57106850891022        6.27991678190849
H           -2.52287422806194       -0.06429114658222        2.93622059189082
H           -1.41270396994935       -0.31278400002050       -1.14667858689870
O            6.53583866507388       -5.53686606309947       -0.47076662575057
O            4.83988565313349       -6.45619634968503       -1.62167492885658
C            5.88251049970128       -7.33606055191218       -1.92798927337252
C            3.05253013040629       -2.12199663168355        7.58919560414352
O            3.84272589045072       -2.84699377718908        8.27968195098977
O            2.13197792923783       -1.23907742749685        8.11101487760208
C            1.60465466220874       -1.66377767294956        9.42669895846753
O           -4.09856711781125        0.22632648892633        0.86367610673719
O           -2.98317120712839        1.69901443602515       -0.41495050943225
C           -4.27117188452994        2.23487386018836       -0.53049037096769
C            1.11359263435247       -0.32061395242660       -1.85336247183870
C            0.24230032396212       -4.90795448759053       -0.94006928887444
H           -4.88184478156072        1.67024014332655       -1.10023244081455
H           -3.84196921653614        3.24159916368783       -0.92976130730709
H           -4.75644110917401        2.11294851820491        0.54420469795505
H            0.57065486526911       -2.10069313728652        9.25844584683320
H            1.75296694067335       -0.75420699146578       10.02392067087933
H            2.34446876970020       -2.22050035247356       10.08402658578995
H            0.98332813951836       -5.81450793720428       -0.92887823578716
H            0.02817925273350       -4.90828297911060       -2.07695960048522
H           -0.59802096634486       -5.02868251454172       -0.47172170909971
H            0.05407691779718        0.09405482601308       -1.80364792068753
H            0.83948085836733       -1.04746241271736       -2.58423463701777
H            1.90129347030640        0.37345109937587       -2.13019207297256
H            5.76630350428384       -7.83055781471148       -2.78829982182797
H            5.79595166178129       -8.06296248306615       -1.19206430201052
H            6.83403785312036       -6.79285575692227       -2.06053990102567
C           -0.17697182541272        2.04311522039336        4.81752242701944
C           -1.44402797434978        2.03337658326621        5.29723763046984
C           -2.43292082609329        2.71182782580369        4.47330810294210
C           -1.94858073904118        3.68037971785395        3.49340817823949
C           -0.58342643248815        3.65123532148401        3.14691356489521
C            0.22618919520350        2.73606076711451        3.69029952051435
C           -3.75114747289117        2.74620853484732        4.82121323074334
C           -4.48661547689857        3.93286285522526        4.29419736635541
C           -3.82332582016729        4.90321518446076        3.47802556791246
N           -2.55481214305663        4.77042475031362        2.97168478966484
C           -4.42584194650371        1.84837345550738        5.67010149511431
C           -5.72182723797292        2.21232839562163        5.95329461846637
N           -6.36862714147190        3.38571300098172        5.55490265549319
C           -5.84990753002310        4.21264700776157        4.63601051964257
C           -6.45647861751330        5.41092511625574        4.42309426358063
C           -5.87074253622027        6.39071955315914        3.59826195161789
C           -4.54785944162441        6.09247512738422        3.20100912379205
C           -3.97275792263326        0.50735019755436        6.11159905472430
C           -4.64959618288514       -0.08305804062962        7.15609206506231
C           -5.77636357884409        0.54482393050485        7.72271690025462
C           -6.41566917990792        1.53696474204197        6.96661327774254
O           -3.38646203909790       -0.46964777326872        5.20123426185499
O           -1.62027238205040        1.40649354583886        6.64459335088096
C            1.48362543387502        2.30179154896580        2.96897809097516
C           -6.82795459198440       -0.14919348880443        8.54284153960425
H           -0.36917067898739        3.99984158360957        2.14496754608876
H            0.62592443716183        1.47094944382475        5.31983616700231
H           -3.84925539550827        6.76118724622671        2.51637265038728
H           -7.41879927133159        5.89465866744771        5.06979786059761
H           -7.38490688743461        1.72737067575755        7.44733294484126
H           -4.26871683249245       -1.01673641450390        7.57689565146300
O            2.44135173093646        1.89420188730433        3.55960589392918
O            1.51180135859245        2.79340877908126        1.65851893264098
C            2.91561476585901        2.97409286805548        1.37062942622591
C           -6.76920379007390        7.46385015498984        3.17919386047826
O           -7.28208979324385        8.36745713483566        3.82015197560046
O           -6.78251696747606        7.48921080556790        1.78272898010739
C           -8.06241515836878        8.12797900473930        1.53412571686489
O           -7.43156641908820        0.60230887530018        9.33470204100055
O           -6.93034352340186       -1.49015184577319        8.10598565188738
C           -7.90510495353250       -2.22137615943741        8.87223467775334
C           -4.15284509478489       -1.41230589695548        4.69561095363966
C           -1.69980768712881        2.39805038746938        7.82918273804588
H           -7.62924973890740       -3.22182875106087        8.51877138745456
H           -8.95034155083543       -1.87885098092055        8.27309271264272
H           -8.02368962891591       -2.24624707179546        9.95157190874627
H           -8.71380629716481        7.23205797899322        1.02758671873171
H           -7.99392137141551        9.05250472241330        0.90984505849421
H           -8.70101682382515        8.30857493752893        2.43542024013250
H           -0.77285351909323        2.53744168537709        8.30475408599871
H           -2.46631546549015        1.69804302858824        8.41822553443971
H           -2.07676143237095        3.40273930314913        7.63486865528784
H           -3.92845097758184       -1.36848583566119        3.68331850730290
H           -5.26754096328243       -1.14468600310545        4.91433603795384
H           -3.89001407939491       -2.40940950257759        5.07593925133830
H            3.01717359552542        3.56418465952773        0.45703062180777
H            3.27975215623156        2.04466043638598        1.12353325655020
H            3.20034920943677        3.47816385830541        2.41505985988399
116
 energy: -22.582275734826 gnorm: 0.548983497114 xtb: 6.6.1 (8d0f1dd)
C            2.56244239460270       -4.46295841435690       -0.91967829018939
C            2.04110675634325       -3.41385204514100       -0.19251686470087
C            2.37291155961826       -3.34259896762713        1.30832597382802
C            3.24441553212098       -4.45404371918875        1.94891843734840
C            3.72503374117829       -5.39626374321176        1.00956479082869
C            3.45321139913612       -5.40195549259788       -0.33428093431220
C            1.87684558825917       -2.30670319121387        2.13028658949754
C            1.94943913103044       -2.60499924377845        3.50149448855441
C            2.86067005854431       -3.60422719782634        4.03726152523788
N            3.57853761099641       -4.40068146033857        3.26815228595878
C            1.33840313840652       -1.01972916066107        1.73319196074565
C            0.35562753396985       -0.49731533201110        2.69778595955984
N            0.57241069239639       -0.76953215450879        4.04728399550381
C            1.35462698224667       -1.79734323214022        4.48899765051682
C            1.60157798879745       -1.69579551855670        5.86630914180539
C            2.42120668037574       -2.69340406632063        6.26149298233870
C            3.04308919975251       -3.64441086863488        5.39425808854681
C            1.52830775286882       -0.22088183906599        0.49759177083224
C            0.40472736601026        0.57766004000372        0.15075090313165
C           -0.70815166549965        0.54392826921275        1.00208748918424
C           -0.69907156137489        0.22334579558175        2.35980391435717
O            2.76820984570525       -0.16179737371430       -0.19630758345180
O            1.03529780922090       -2.65066952110796       -0.86417325419001
C            3.94766769238989       -6.67275349271633       -1.02653968949698
C           -2.20014735948018        0.89185884330731        0.59065077551557
H            4.06913081882335       -6.38584831975450        1.46049616418707
H            2.23271185455937       -4.49621517384876       -1.90092242151081
H            3.87343811276121       -4.42140306806825        5.64282338861591
H            0.80563655702905       -1.22121346037356        6.61257963067077
H           -1.65230333440052        0.40048011934850        3.01618235230646
H            0.64778784329437        1.43764184889320       -0.47647692584389
O            5.05917519141664       -6.71247179946335       -1.63380619926622
O            2.99922203773608       -7.69647357674634       -1.06489314067026
C            3.31802301666630       -8.59638376757100       -2.18633939713095
C            2.89750611553896       -2.74790686875762        7.72308557648275
O            3.10624460848208       -3.88534126762220        8.15459154039655
O            2.82058421927002       -1.40757241407142        8.11733589337821
C            2.43868941595167       -1.17168186948293        9.35426328483416
O           -3.14964863366020        0.20884153523330        0.85807789295617
O           -2.13727079507599        2.13723793802690       -0.02123001243738
C           -3.35136442830707        3.01969196443318       -0.12802874824641
C            2.69097083828862        0.45881967659394       -1.44625234324197
C           -0.20918746047463       -3.41508401556748       -0.89313338687994
H           -4.15809705457423        2.50243618209891        0.42932598804675
H           -3.33303190679533        2.87016146104267       -1.20767374514694
H           -3.48934805317163        4.14140130919227        0.01413541804926
H            2.18044666230487       -1.94299680812245       10.06819375355146
H            1.52479981644413       -0.62876001688326        9.21222154534767
H            3.13031954864124       -0.43238414616385        9.80778503512363
H           -0.44336641690167       -4.20292002116142       -1.75096958488729
H           -0.98148410682111       -2.58817367032278       -0.59170104411540
H           -0.06733054373134       -4.20440166209578       -0.20152700590776
H            3.47452275537300       -0.14640745857470       -1.99236803088781
H            2.90139276306207        1.49149769704846       -1.43558009018524
H            1.62420679574138        0.68516989240573       -1.75143039797584
H            3.94978288779520       -9.37901182993858       -1.91800963282041
H            4.03079929517263       -7.95294541776636       -2.79003585859962
H            2.46183289544598       -8.84965137351751       -2.85721925050999
C           -0.29412981082433        2.81467398625410        4.74876628950289
C           -1.63394577381078        2.74923999323653        5.24766793415609
C           -2.76045796820365        3.26060998003953        4.53219492586059
C           -2.27073647890131        4.41634792219177        3.67659083584411
C           -0.99790810905019        4.49683220072142        3.09617668298128
C            0.04837163743258        3.67135413326451        3.65702526107048
C           -4.06561787557443        2.95336127989127        4.64752476109658
C           -5.04692922118579        3.74512149089958        4.11875428737851
C           -4.61967784733901        4.84510692731488        3.31414999272216
N           -3.30825062723241        5.13820929458195        3.13124597709778
C           -4.62940834759334        1.72272065706965        5.20090551882910
C           -6.08110162424070        1.62913930709299        5.54663317221412
N           -6.92430512896878        2.41779682860312        4.92156399543624
C           -6.44720253616545        3.47815856613718        4.30191338995623
C           -7.43448689865617        4.46264949906327        3.76687564856954
C           -6.92227609588826        5.48067888109908        3.14232426791892
C           -5.66607671204999        5.66817513695005        2.91175065713088
C           -3.83791200718377        0.60983857230091        5.78651143260770
C           -4.56790172996383       -0.31841847675598        6.62316286927571
C           -5.88770085275586       -0.29389495895955        6.95030054810830
C           -6.67900085307667        0.55229065035495        6.29545749148957
O           -2.48700310176943        0.24492934998836        5.52977137053110
O           -1.81057990265833        2.37812860989368        6.60909582481210
C            1.37000090481303        3.76355270261281        3.08923129514003
C           -6.56574045224670       -1.15068588546931        7.88695828764878
H           -0.63898630867527        4.86283859581417        2.10145932251569
H            0.52342736029323        2.28738876377978        5.32944630638423
H           -5.32870530866382        6.59190337004538        2.39211209319233
H           -8.50534409845757        4.47476658042935        3.93177505141636
H           -7.78580295134936        0.68174968815110        6.46942218882203
H           -3.90617605822112       -1.05301665299669        7.20235778615313
O            2.29076869712846        3.79459830489059        3.91507928574653
O            1.56127623350191        3.69125106110581        1.78560156764056
C            2.86218606471424        3.97720435078993        1.66499534345743
C           -7.84904585609794        6.51365167351405        2.52053129861911
O           -8.96881441011083        6.19977524468835        2.31088172896493
O           -7.27913379304786        7.70332748427945        1.94064677186352
C           -8.14136614953480        8.49475855414643        1.27691205031213
O           -7.77219750052617       -1.25485665605990        7.88501467762408
O           -5.66930142397997       -1.88050223751103        8.75800683226495
C           -6.13525855108023       -2.73718767135447        9.76555434724421
C           -1.74786687207776       -0.44451479185475        6.47634605566228
C           -1.12576948771726        3.04764062278232        7.50910308322848
H           -7.14744300536995       -3.07649471916219        9.33322254564286
H           -6.09059263501856       -2.33092661770015       10.77787252257138
H           -5.50985080556978       -3.61689529425008        9.84818522388271
H           -9.10872573880022        8.44462781346955        1.62485114625314
H           -7.86504402937968        8.42578675706505        0.29806195618025
H           -7.74646723334128        9.41985668996426        1.60926791642473
H           -0.06259937935797        2.86493012758251        7.33555948493798
H           -1.54558256279970        2.90666579778997        8.68844330910639
H           -1.11660357320331        4.11986011259018        7.38025039503363
H           -1.37406403530042        0.29292203193214        7.35623551901265
H           -0.81875581994502       -0.60393721914345        5.89146449512696
H           -2.13460756572987       -1.46281156242412        6.63612765220419
H            3.22304313576696        3.64613922667348        0.66386865026010
H            3.25042625538382        3.13702629137420        2.19557798674723
H            3.10269437652996        4.90351024466533        1.98807325307680
116
 energy: -22.642455280130 gnorm: 0.552073560215 xtb: 6.6.1 (8d0f1dd)
C            1.57760971345244       -5.61732140558596       -0.74426570808034
C            1.19145399943821       -4.53431525469496        0.19123245123475
C            2.04088981223730       -4.04997686859943        1.17980038693413
C            2.98680269708385       -4.99723106936494        1.64651694090828
C            3.26365850209956       -6.07301307966640        0.85608231081862
C            2.84353319459905       -6.21720159498001       -0.46414225498711
C            1.84956543703045       -2.78410015875137        1.92355168652843
C            2.38766932428420       -2.72340588779477        3.18797043616740
C            3.20768035198149       -3.84215473273141        3.52609260678876
N            3.33103793240438       -5.02075363847757        2.94501269960813
C            1.26457473658159       -1.58702354686221        1.51765342571412
C            0.97082589250796       -0.52960458816292        2.50413916240279
N            1.30315404014415       -0.66777297293305        3.75945547781141
C            1.99810880045472       -1.68249538963278        4.19248629934105
C            2.57975472059413       -1.75907254036220        5.56936820784985
C            3.37741137943076       -2.83869758909593        5.91434471200896
C            3.71902254248677       -3.82172030229315        4.91678482915022
C            0.77998245018468       -1.23250068702376        0.13817999895749
C            0.22202695789998       -0.01814862598321       -0.14192818346399
C           -0.17305700281212        0.94561163129684        0.90788206387993
C            0.17704517432773        0.52991298529594        2.15081131215679
O            1.21275951911071       -1.89680405669872       -1.01640537106081
O            0.02394131932478       -3.78537484272292        0.07014631509636
C            3.06616115594265       -7.56772678726415       -1.16158433211541
C           -0.94403421490504        2.23935702772568        0.63068351239121
H            3.88210488070996       -6.93070939024265        1.27493955366124
H            0.78152071674221       -5.85719090749785       -1.47734794267718
H            3.92871732558454       -4.82536398330601        5.33351372446622
H            2.45671112930751       -0.91820100421100        6.30375623618422
H           -0.08854020017713        1.28211884303264        2.91366962311867
H           -0.08504015416771        0.22960990653226       -1.14710556654236
O            3.57647594070504       -8.43358715181944       -0.50091943989232