Optimization of monomers started
      -----------------------------------------------------------      
     |                   =====================                   |     
     |                           x T B                           |     
     |                   =====================                   |     
     |                         S. Grimme                         |     
     |          Mulliken Center for Theoretical Chemistry        |     
     |                    University of Bonn                     |     
      -----------------------------------------------------------      

   * xtb version 6.7.1 (edcfbbe) compiled by 'runner@Mac-1732539442253.local' on 2024-11-25

   xtb is free software: you can redistribute it and/or modify it under
   the terms of the GNU Lesser General Public License as published by
   the Free Software Foundation, either version 3 of the License, or
   (at your option) any later version.
   
   xtb is distributed in the hope that it will be useful,
   but WITHOUT ANY WARRANTY; without even the implied warranty of
   MERCHANTABILITY or FITNESS FOR A PARTICULAR PURPOSE.  See the
   GNU Lesser General Public License for more details.
   
   Cite this work as:
   * C. Bannwarth, E. Caldeweyher, S. Ehlert, A. Hansen, P. Pracht,
     J. Seibert, S. Spicher, S. Grimme, WIREs Comput. Mol. Sci., 2020, 11,
     e01493. DOI: 10.1002/wcms.1493
   
   for GFN2-xTB:
   * C. Bannwarth, S. Ehlert and S. Grimme., J. Chem. Theory Comput., 2019,
     15, 1652-1671. DOI: 10.1021/acs.jctc.8b01176
   for GFN1-xTB:
   * S. Grimme, C. Bannwarth, P. Shushkov, J. Chem. Theory Comput., 2017,
     13, 1989-2009. DOI: 10.1021/acs.jctc.7b00118
   for GFN0-xTB:
   * P. Pracht, E. Caldeweyher, S. Ehlert, S. Grimme, ChemRxiv, 2019, preprint.
     DOI: 10.26434/chemrxiv.8326202.v1
   for GFN-FF:
   * S. Spicher and S. Grimme, Angew. Chem. Int. Ed., 2020, 59, 15665-15673.
     DOI: 10.1002/anie.202004239
   
   for ALPB and GBSA implicit solvation:
   * S. Ehlert, M. Stahn, S. Spicher, S. Grimme, J. Chem. Theory Comput.,
     2021, 17, 4250-4261. DOI: 10.1021/acs.jctc.1c00471
   
   for ddCOSMO and CPCM-X implicit solvation:
   * M. Stahn, S. Ehlert, S. Grimme, J. Phys. Chem. A,
     2023, XX, XXXX-XXXX. DOI: 10.1021/acs.jpca.3c04382
   
   for DFT-D4:
   * E. Caldeweyher, C. Bannwarth and S. Grimme, J. Chem. Phys., 2017,
     147, 034112. DOI: 10.1063/1.4993215
   * E. Caldeweyher, S. Ehlert, A. Hansen, H. Neugebauer, S. Spicher,
     C. Bannwarth and S. Grimme, J. Chem. Phys., 2019, 150, 154122.
     DOI: 10.1063/1.5090222
   * E. Caldeweyher, J.-M. Mewes, S. Ehlert and S. Grimme, Phys. Chem. Chem. Phys.
     2020, 22, 8499-8512. DOI: 10.1039/D0CP00502A
   
   for sTDA-xTB:
   * S. Grimme and C. Bannwarth, J. Chem. Phys., 2016, 145, 054103.
     DOI: 10.1063/1.4959605
   
   in the mass-spec context:
   * V. Asgeirsson, C. Bauer and S. Grimme, Chem. Sci., 2017, 8, 4879.
     DOI: 10.1039/c7sc00601b
   * J. Koopman and S. Grimme, ACS Omega 2019, 4, 12, 15120-15133.
     DOI: 10.1021/acsomega.9b02011
   
   for metadynamics refer to:
   * S. Grimme, J. Chem. Theory Comput., 2019, 155, 2847-2862
     DOI: 10.1021/acs.jctc.9b00143
   
   for SPH calculations refer to:
   * S. Spicher and S. Grimme, J. Chem. Theory Comput., 2021, 17, 1701-1714
     DOI: 10.1021/acs.jctc.0c01306
   
   for ONIOM refer to:
   * C. Plett, A. Katbashev, S. Ehlert, S. Grimme, M. Bursch,
     Phys. Chem. Chem. Phys., 2023, 25, 17860-17868. DOI: 10.1039/D3CP02178E
   
   for DIPRO refer to:
   * J. Kohn, N. Gildemeister, S. Grimme, D. Fazzi, A. Hansen,
     J. Chem. Phys., 2023, just accepted.
   
   for PTB refer to:
   * S. Grimme, M. Mueller, A. Hansen, J. Chem. Phys., 2023, 158, 124111.
     DOI: 10.1063/5.0137838
   
   with help from (in alphabetical order)
   P. Atkinson, C. Bannwarth, F. Bohle, G. Brandenburg, E. Caldeweyher
   M. Checinski, S. Dohm, S. Ehlert, S. Ehrlich, I. Gerasimov, C. Hölzer
   A. Katbashev, J. Kohn, J. Koopman, C. Lavigne, S. Lehtola, F. März, M. Müller,
   F. Musil, H. Neugebauer, J. Pisarek, C. Plett, P. Pracht, F. Pultar,
   J. Seibert, P. Shushkov, S. Spicher, M. Stahn, M. Steiner, T. Strunk,
   J. Stückrath, T. Rose, and J. Unsleber
   
 * started run on 2025/03/06 at 14:01:14.564     
   ID    Z sym.   atoms
    1    6 C      1-9, 11, 12, 14-21, 26-34, 36, 37, 39-46, 54, 56, 60, 63,
                  66, 69, 71, 72, 74, 75
    2    7 N      10, 13, 35, 38, 70, 73
    3    8 O      22, 47, 52, 53, 55, 57-59, 61, 62, 64, 65, 67, 68
    4   16 S      23-25, 48-50
    5    5 B      51
    6    1 H      76-115

           -------------------------------------------------
          |                Calculation Setup                |
           -------------------------------------------------

          program call               : xtb Base2SO2Me.mol --opt --iterations 2000 --chrg 0 --uhf 1 --gfn 2
          coordinate file            : Base2SO2Me.mol
          omp threads                :                     8


molecular fragmentation (1/2 indicates fragments):
111111111111111111111111111111111111111111111111111111111111111111111111
1111111121111111111111112111111111111111111
# atoms in fragment 1/2:   113     2
 fragment masses (1/2) :     1126.05        2.02
CMA distance (Bohr)    :   3.645
constraining FC (au)   :  0.0500
########################################################################
[WARNING] Please study the warnings concerning your input carefully
-1- prog_main: Charge in sdf/mol input was overwritten
########################################################################

           -------------------------------------------------
          |                 G F N 2 - x T B                 |
           -------------------------------------------------

        Reference                      10.1021/acs.jctc.8b01176
      * Hamiltonian:
        H0-scaling (s, p, d)           1.850000    2.230000    2.230000
        zeta-weighting                 0.500000
      * Dispersion:
        s8                             2.700000
        a1                             0.520000
        a2                             5.000000
        s9                             5.000000
      * Repulsion:
        kExp                           1.500000    1.000000
        rExp                           1.000000
      * Coulomb:
        alpha                          2.000000
        third order                    shell-resolved
        anisotropic                    true
        a3                             3.000000
        a5                             4.000000
        cn-shift                       1.200000
        cn-exp                         4.000000
        max-rad                        5.000000


          ...................................................
          :                      SETUP                      :
          :.................................................:
          :  # basis functions                 376          :
          :  # atomic orbitals                 370          :
          :  # shells                          196          :
          :  # electrons                       385          :
          :  max. iterations                  2000          :
          :  Hamiltonian                  GFN2-xTB          :
          :  restarted?                      false          :
          :  GBSA solvation                  false          :
          :  PC potential                    false          :
          :  electronic temp.          300.0000000     K    :
          :  accuracy                    1.0000000          :
          :  -> integral cutoff          0.2500000E+02      :
          :  -> integral neglect         0.1000000E-07      :
          :  -> SCF convergence          0.1000000E-05 Eh   :
          :  -> wf. convergence          0.1000000E-03 e    :
          :  Broyden damping             0.4000000          :
          :  net charge                          0          :
          :  unpaired electrons                  1          :
          ...................................................

 iter      E             dE          RMSdq      gap      omega  full diag
   1   -218.1892011 -0.218189E+03  0.610E+00    0.10       0.0  T
   2   -214.0407825  0.414842E+01  0.877E+00    0.16       1.0  T
   3   -219.4005603 -0.535978E+01  0.388E+00    0.24       1.0  T
   4   -208.6067160  0.107938E+02  0.646E+00    0.14       1.0  T
   5   -215.4585356 -0.685182E+01  0.508E+00    0.07       1.0  T
   6   -219.4875816 -0.402905E+01  0.205E+00    0.45       1.0  T
   7   -219.5725872 -0.850056E-01  0.173E+00    0.15       1.0  T
   8   -219.7112134 -0.138626E+00  0.157E+00    0.14       1.0  T
   9   -219.7221905 -0.109771E-01  0.124E+00    0.12       1.0  T
  10   -219.6809073  0.412832E-01  0.126E+00    0.12       1.0  T
  11   -219.7740705 -0.931632E-01  0.117E+00    0.04       1.0  T
  12   -219.9073962 -0.133326E+00  0.888E-01    0.02       1.0  T
  13   -219.9137893 -0.639310E-02  0.685E-01    0.01       1.0  T
  14   -219.9348648 -0.210755E-01  0.711E-01    0.06       1.0  T
  15   -219.9242792  0.105856E-01  0.691E-01    0.08       1.0  T
  16   -219.9425738 -0.182946E-01  0.644E-01    0.05       1.0  T
  17   -219.9057550  0.368188E-01  0.666E-01    0.01       1.0  T
  18   -219.9638881 -0.581331E-01  0.505E-01    0.01       1.0  T
  19   -219.9690098 -0.512163E-02  0.390E-01    0.00       1.0  T
  20   -219.9760389 -0.702913E-02  0.315E-01    0.01       1.0  T
  21   -219.9570916  0.189473E-01  0.388E-01    0.01       1.0  T
  22   -219.9713210 -0.142294E-01  0.288E-01    0.01       1.0  T
  23   -219.9838412 -0.125202E-01  0.182E-01    0.01       1.0  T
  24   -219.9867735 -0.293224E-02  0.101E-01    0.01       1.0  T
  25   -219.9870937 -0.320266E-03  0.937E-02    0.00       1.0  T
  26   -219.9874694 -0.375704E-03  0.709E-02    0.00       1.0  T
  27   -219.9879101 -0.440603E-03  0.516E-02    0.00       1.0  T
  28   -219.9882922 -0.382180E-03  0.168E-02    0.01       1.0  T
  29   -219.9882938 -0.158015E-05  0.142E-02    0.00       1.0  T
  30   -219.9881879  0.105892E-03  0.254E-02    0.00       1.0  T
  31   -219.9883074 -0.119472E-03  0.105E-02    0.00       1.0  T
  32   -219.9883257 -0.183433E-04  0.478E-03    0.00       2.0  T
  33   -219.9883270 -0.129393E-05  0.348E-03    0.00       2.7  T
  34   -219.9883290 -0.192476E-05  0.110E-03    0.00       8.5  T
  35   -219.9883291 -0.118922E-06  0.542E-04    0.00      17.2  T
  36   -219.9883291 -0.965534E-08  0.440E-04    0.00      21.2  T

   *** convergence criteria satisfied after 36 iterations ***

         #    Occupation            Energy/Eh            Energy/eV
      -------------------------------------------------------------
         1        2.0000           -0.8388907             -22.8274
       ...           ...                  ...                  ...
       187        1.9989           -0.2731335              -7.4323
       188        1.9946           -0.2716025              -7.3907
       189        1.9937           -0.2714445              -7.3864
       190        1.9618           -0.2697171              -7.3394
       191        1.5359           -0.2670543              -7.2669
       192        1.3796           -0.2666534              -7.2560
       193        1.1074           -0.2660571              -7.2398 (HOMO)
       194        1.0283           -0.2658935              -7.2353 (LUMO)
       195                         -0.2226076              -6.0575
       196                         -0.2178700              -5.9285
       197                         -0.2176069              -5.9214
       198                         -0.2138289              -5.8186
       ...                                ...                  ...
       370                          4.8681944             132.4703
      -------------------------------------------------------------
                  HL-Gap            0.0001636 Eh            0.0045 eV
             Fermi-level           -0.2658354 Eh           -7.2337 eV

 SCC (total)                   0 d,  0 h,  0 min,  4.350 sec
 SCC setup                      ...        0 min,  0.001 sec (  0.023%)
 Dispersion                     ...        0 min,  0.002 sec (  0.040%)
 classical contributions        ...        0 min,  0.000 sec (  0.008%)
 integral evaluation            ...        0 min,  0.011 sec (  0.261%)
 iterations                     ...        0 min,  4.271 sec ( 98.192%)
 molecular gradient             ...        0 min,  0.055 sec (  1.267%)
 printout                       ...        0 min,  0.009 sec (  0.209%)

         :::::::::::::::::::::::::::::::::::::::::::::::::::::
         ::                     SUMMARY                     ::
         :::::::::::::::::::::::::::::::::::::::::::::::::::::
         :: total energy            -213.961927376178 Eh    ::
         :: gradient norm              5.577652127276 Eh/a0 ::
         :: HOMO-LUMO gap              0.004450665851 eV    ::
         ::.................................................::
         :: SCC energy              -219.984146698851 Eh    ::
         :: -> isotropic ES            0.417272311851 Eh    ::
         :: -> anisotropic ES          0.063329282638 Eh    ::
         :: -> anisotropic XC          0.040316246283 Eh    ::
         :: -> dispersion             -0.197869583194 Eh    ::
         :: repulsion energy           6.022219322673 Eh    ::
         :: add. restraining           0.000000000000 Eh    ::
         :: total charge               0.000000000003 e     ::
         :::::::::::::::::::::::::::::::::::::::::::::::::::::

      ----------------------------------------------------------- 
     |                   =====================                   |
     |                        A N C O P T                        |
     |                   =====================                   |
     |               Approximate Normal Coordinate               |
     |                Rational Function Optimizer                |
      ----------------------------------------------------------- 
      ----------------------------------------------------------- 
     |                   =====================                   |
     |                        A N C O P T                        |
     |                   =====================                   |
     |               Approximate Normal Coordinate               |
     |                Rational Function Optimizer                |
      ----------------------------------------------------------- 

          ...................................................
          :                      SETUP                      :
          :.................................................:
          :   optimization level            normal          :
          :   max. optcycles                   345          :
          :   ANC micro-cycles                  20          :
          :   degrees of freedom               339          :
          :.................................................:
          :   RF solver                   davidson          :
          :   write xtbopt.log                true          :
          :   linear?                        false          :
          :   energy convergence         0.5000000E-05 Eh   :
          :   grad. convergence          0.1000000E-02 Eh/α :
          :   maxmium RF displ.          1.0000000          :
          :   Hlow (freq-cutoff)         0.1000000E-01      :
          :   Hmax (freq-cutoff)         5.0000000          :
          :   S6 in model hess.         20.0000000          :
          ...................................................

generating ANC from exact Hessian ...
Using Lindh-Hessian (1995)
 Shifting diagonal of input Hessian by    9.9496797916686589E-003
 Lowest  eigenvalues of input Hessian
    0.000000    0.000000    0.000000    0.000000    0.000000    0.000000
    0.010000    0.010034    0.010112    0.010195    0.010311    0.010422
    0.010612    0.010654    0.010849    0.010913    0.011055    0.011301
 Highest eigenvalues
    6.207724    6.254225    6.276310    6.329307    6.416943    7.669459


........................................................................
.............................. CYCLE    1 ..............................
........................................................................

 iter      E             dE          RMSdq      gap      omega  full diag
   1   -219.9883291 -0.219988E+03  0.384E-04    0.00       0.0  T
   2   -219.9883108  0.182363E-04  0.894E-03    0.00       1.0  T
   3   -219.9883289 -0.180937E-04  0.103E-03    0.00       9.0  T
   4   -219.9883291 -0.160525E-06  0.332E-04    0.00      28.1  T
   5   -219.9883291 -0.218691E-08  0.247E-04    0.00      37.7  T
     SCC iter.                  ...        0 min,  0.526 sec
     gradient                   ...        0 min,  0.056 sec
 * total energy  :  -213.9619274 Eh     change       -0.1788356E-07 Eh
   gradient norm :     5.5776548 Eh/α   predicted     0.0000000E+00 (-100.00%)
   displ. norm   :     0.7899646 α      lambda       -0.4321151E+01
   maximum displ.:     0.4462565 α      in ANC's #293, #268, #327, ...

........................................................................
.............................. CYCLE    2 ..............................
........................................................................

 iter      E             dE          RMSdq      gap      omega  full diag
   1   -219.3942300 -0.219394E+03  0.203E+00    0.20       0.0  T
   2   -218.5882534  0.805977E+00  0.271E+00    0.22       1.0  T
   3   -219.5618473 -0.973594E+00  0.193E+00    0.32       1.0  T
   4   -219.8745767 -0.312729E+00  0.124E+00    0.07       1.0  T
   5   -219.8600177  0.145590E-01  0.110E+00    0.08       1.0  T
   6   -219.7916523  0.683654E-01  0.121E+00    0.09       1.0  T
   7   -219.9011694 -0.109517E+00  0.111E+00    0.07       1.0  T
   8   -219.8579509  0.432185E-01  0.129E+00    0.09       1.0  T
   9   -219.9463693 -0.884183E-01  0.701E-01    0.06       1.0  T
  10   -219.8982851  0.480841E-01  0.955E-01    0.06       1.0  T
  11   -219.9894488 -0.911636E-01  0.623E-01    0.05       1.0  T
  12   -219.9556536  0.337952E-01  0.748E-01    0.05       1.0  T
  13   -219.9361969  0.194567E-01  0.828E-01    0.08       1.0  T
  14   -219.8720353  0.641616E-01  0.940E-01    0.02       1.0  T
  15   -220.0117257 -0.139690E+00  0.408E-01    0.02       1.0  T
  16   -220.0270561 -0.153304E-01  0.274E-01    0.00       1.0  T
  17   -220.0333288 -0.627267E-02  0.215E-01    0.01       1.0  T
  18   -220.0369784 -0.364965E-02  0.988E-02    0.01       1.0  T
  19   -220.0372584 -0.280031E-03  0.791E-02    0.00       1.0  T
  20   -220.0372397  0.187781E-04  0.773E-02    0.00       1.0  T
  21   -220.0378759 -0.636238E-03  0.466E-02    0.00       1.0  T
  22   -220.0381251 -0.249225E-03  0.312E-02    0.01       1.0  T
  23   -220.0377441  0.381041E-03  0.491E-02    0.01       1.0  T
  24   -220.0381637 -0.419621E-03  0.188E-02    0.01       1.0  T
  25   -220.0381763 -0.126262E-04  0.177E-02    0.00       1.0  T
  26   -220.0382346 -0.583080E-04  0.549E-03    0.01       1.7  T
  27   -220.0382354 -0.742665E-06  0.486E-03    0.01       1.9  T
  28   -220.0382390 -0.361247E-05  0.103E-03    0.01       9.1  T
  29   -220.0382391 -0.743545E-07  0.765E-04    0.01      12.2  T
  30   -220.0382391 -0.359485E-07  0.746E-04    0.01      12.5  T
     SCC iter.                  ...        0 min,  3.441 sec
     gradient                   ...        0 min,  0.066 sec
 * total energy  :  -216.1345211 Eh     change       -0.2172594E+01 Eh
   gradient norm :     1.6778685 Eh/α   predicted    -0.3508870E+01 (  61.51%)
   displ. norm   :     0.6342619 α      lambda       -0.9724331E+00
   maximum displ.:     0.1581086 α      in ANC's #268, #246, #308, ...

........................................................................
.............................. CYCLE    3 ..............................
........................................................................

 iter      E             dE          RMSdq      gap      omega  full diag
   1   -219.7575411 -0.219758E+03  0.212E+00    0.04       0.0  T
   2   -219.3800443  0.377497E+00  0.252E+00    0.21       1.0  T
   3   -219.8370708 -0.457026E+00  0.179E+00    0.09       1.0  T
   4   -219.9000586 -0.629879E-01  0.158E+00    0.05       1.0  T
   5   -219.9372120 -0.371534E-01  0.154E+00    0.02       1.0  T
   6   -220.0998694 -0.162657E+00  0.821E-01    0.02       1.0  T
   7   -220.0311512  0.687182E-01  0.105E+00    0.05       1.0  T
   8   -219.9301183  0.101033E+00  0.111E+00    0.06       1.0  T
   9   -219.8767142  0.534041E-01  0.147E+00    0.04       1.0  T
  10   -220.0145009 -0.137787E+00  0.103E+00    0.02       1.0  T
  11   -220.1279513 -0.113450E+00  0.468E-01    0.02       1.0  T
  12   -219.9921502  0.135801E+00  0.100E+00    0.01       1.0  T
  13   -220.1279737 -0.135823E+00  0.521E-01    0.01       1.0  T
  14   -220.1418573 -0.138836E-01  0.405E-01    0.02       1.0  T
  15   -220.1094153  0.324420E-01  0.473E-01    0.02       1.0  T
  16   -220.1457733 -0.363580E-01  0.253E-01    0.03       1.0  T
  17   -220.1540328 -0.825954E-02  0.134E-01    0.02       1.0  T
  18   -220.1538086  0.224191E-03  0.130E-01    0.02       1.0  T
  19   -220.1563258 -0.251718E-02  0.631E-02    0.02       1.0  T
  20   -220.1568610 -0.535163E-03  0.292E-02    0.01       1.0  T
  21   -220.1568755 -0.145443E-04  0.260E-02    0.01       1.0  T
  22   -220.1569646 -0.891072E-04  0.147E-02    0.01       1.0  T
  23   -220.1569805 -0.158372E-04  0.127E-02    0.01       1.0  T
  24   -220.1569997 -0.191973E-04  0.502E-03    0.01       1.9  T
  25   -220.1569996  0.834208E-07  0.408E-03    0.01       2.3  T
  26   -220.1570015 -0.193030E-05  0.183E-03    0.01       5.1  T
  27   -220.1570015  0.274791E-07  0.161E-03    0.01       5.8  T
  28   -220.1570018 -0.314829E-06  0.113E-03    0.01       8.2  T
  29   -220.1570019 -0.150074E-06  0.610E-04    0.01      15.3  T
  30   -220.1570020 -0.504242E-07  0.138E-04    0.01      67.7  T
     SCC iter.                  ...        0 min,  4.280 sec
     gradient                   ...        0 min,  0.049 sec
 * total energy  :  -216.8977714 Eh     change       -0.7632503E+00 Eh
   gradient norm :     0.9998338 Eh/α   predicted    -0.6818232E+00 ( -10.67%)
   displ. norm   :     0.7136836 α      lambda       -0.6648338E+00
   maximum displ.:     0.1670129 α      in ANC's #308, #222, #231, ...

........................................................................
.............................. CYCLE    4 ..............................
........................................................................

 iter      E             dE          RMSdq      gap      omega  full diag
   1   -220.0755111 -0.220076E+03  0.190E+00    0.01       0.0  T
   2   -219.6743389  0.401172E+00  0.232E+00    0.04       1.0  T
   3   -219.9096946 -0.235356E+00  0.188E+00    0.14       1.0  T
   4   -220.0223537 -0.112659E+00  0.196E+00    0.10       1.0  T
   5   -220.2689920 -0.246638E+00  0.926E-01    0.06       1.0  T
   6   -220.2777077 -0.871565E-02  0.810E-01    0.02       1.0  T
   7   -220.0983383  0.179369E+00  0.113E+00    0.07       1.0  T
   8   -219.9759088  0.122430E+00  0.134E+00    0.15       1.0  T
   9   -220.1379428 -0.162034E+00  0.146E+00    0.07       1.0  T
  10   -220.1573418 -0.193990E-01  0.139E+00    0.14       1.0  T
  11   -220.2155764 -0.582347E-01  0.879E-01    0.05       1.0  T
  12   -220.2844905 -0.689140E-01  0.500E-01    0.01       1.0  T
  13   -220.3141256 -0.296351E-01  0.401E-01    0.03       1.0  T
  14   -220.3049128  0.921280E-02  0.432E-01    0.03       1.0  T
  15   -220.2947570  0.101558E-01  0.414E-01    0.02       1.0  T
  16   -220.3371857 -0.424287E-01  0.117E-01    0.04       1.0  T
  17   -220.3370252  0.160519E-03  0.127E-01    0.04       1.0  T
  18   -220.3367545  0.270777E-03  0.145E-01    0.03       1.0  T
  19   -220.3392580 -0.250356E-02  0.688E-02    0.03       1.0  T
  20   -220.3397995 -0.541448E-03  0.279E-02    0.03       1.0  T
  21   -220.3397632  0.362094E-04  0.297E-02    0.04       1.0  T
  22   -220.3399347 -0.171443E-03  0.143E-02    0.03       1.0  T
  23   -220.3399202  0.145065E-04  0.139E-02    0.03       1.0  T
  24   -220.3399514 -0.312354E-04  0.653E-03    0.03       1.4  T
  25   -220.3399545 -0.304369E-05  0.368E-03    0.03       2.5  T
  26   -220.3399560 -0.152170E-05  0.175E-03    0.03       5.3  T
  27   -220.3399557  0.287861E-06  0.202E-03    0.03       4.6  T
  28   -220.3399565 -0.790249E-06  0.609E-04    0.03      15.3  T
  29   -220.3399565 -0.284634E-07  0.268E-04    0.03      34.8  T
     SCC iter.                  ...        0 min,  2.819 sec
     gradient                   ...        0 min,  0.085 sec
 * total energy  :  -217.4526613 Eh     change       -0.5548899E+00 Eh
   gradient norm :     0.6630355 Eh/α   predicted    -0.5017318E+00 (  -9.58%)
   displ. norm   :     0.7830375 α      lambda       -0.4971581E+00
   maximum displ.:     0.1953038 α      in ANC's #231, #233, #236, ...

........................................................................
.............................. CYCLE    5 ..............................
........................................................................

 iter      E             dE          RMSdq      gap      omega  full diag
   1   -220.3971238 -0.220397E+03  0.119E+00    0.03       0.0  T
   2   -220.0406749  0.356449E+00  0.206E+00    0.28       1.0  T
   3   -220.3621689 -0.321494E+00  0.128E+00    0.03       1.0  T
   4   -220.2218833  0.140286E+00  0.115E+00    0.11       1.0  T
   5   -220.4461159 -0.224233E+00  0.751E-01    0.02       1.0  T
   6   -220.4511113 -0.499531E-02  0.657E-01    0.08       1.0  T
   7   -220.4520040 -0.892719E-03  0.543E-01    0.04       1.0  T
   8   -220.1182057  0.333798E+00  0.121E+00    0.10       1.0  T
   9   -220.3930351 -0.274829E+00  0.107E+00    0.04       1.0  T
  10   -220.3966716 -0.363652E-02  0.753E-01    0.08       1.0  T
  11   -220.3381388  0.585328E-01  0.693E-01    0.07       1.0  T
  12   -220.4877423 -0.149603E+00  0.534E-01    0.08       1.0  T
  13   -220.5208006 -0.330583E-01  0.164E-01    0.05       1.0  T
  14   -220.5215603 -0.759758E-03  0.134E-01    0.05       1.0  T
  15   -220.5235255 -0.196519E-02  0.865E-02    0.06       1.0  T
  16   -220.5233813  0.144177E-03  0.761E-02    0.06       1.0  T
  17   -220.5249597 -0.157839E-02  0.360E-02    0.06       1.0  T
  18   -220.5251176 -0.157916E-03  0.291E-02    0.05       1.0  T
  19   -220.5251875 -0.698716E-04  0.179E-02    0.05       1.0  T
  20   -220.5252226 -0.351245E-04  0.104E-02    0.06       1.0  T
  21   -220.5252329 -0.102352E-04  0.727E-03    0.05       1.3  T
  22   -220.5252398 -0.696857E-05  0.289E-03    0.05       3.2  T
  23   -220.5252414 -0.159839E-05  0.105E-03    0.05       8.9  T
  24   -220.5252415 -0.100669E-06  0.624E-04    0.05      14.9  T
  25   -220.5252416 -0.355652E-07  0.435E-04    0.05      21.4  T
     SCC iter.                  ...        0 min,  2.542 sec
     gradient                   ...        0 min,  0.047 sec
 * total energy  :  -217.8556312 Eh     change       -0.4029699E+00 Eh
   gradient norm :     0.4545681 Eh/α   predicted    -0.4009959E+00 (  -0.49%)
   displ. norm   :     0.7285270 α      lambda       -0.2942636E+00
   maximum displ.:     0.1819285 α      in ANC's #233, #236, #231, ...

........................................................................
.............................. CYCLE    6 ..............................
........................................................................

 iter      E             dE          RMSdq      gap      omega  full diag
   1   -220.5988677 -0.220599E+03  0.727E-01    0.04       0.0  T
   2   -220.3019087  0.296959E+00  0.136E+00    0.20       1.0  T
   3   -220.5302328 -0.228324E+00  0.722E-01    0.13       1.0  T
   4   -220.3623990  0.167834E+00  0.891E-01    0.18       1.0  T
   5   -220.5235165 -0.161117E+00  0.635E-01    0.05       1.0  T
   6   -220.4647130  0.588035E-01  0.100E+00    0.08       1.0  T
   7   -220.4406589  0.240541E-01  0.839E-01    0.02       1.0  T
   8   -220.5322747 -0.916157E-01  0.575E-01    0.08       1.0  T
   9   -220.6241936 -0.919190E-01  0.329E-01    0.07       1.0  T
  10   -220.6260895 -0.189583E-02  0.287E-01    0.06       1.0  T
  11   -220.6407089 -0.146194E-01  0.158E-01    0.06       1.0  T
  12   -220.6419823 -0.127346E-02  0.110E-01    0.06       1.0  T
  13   -220.6461535 -0.417117E-02  0.406E-02    0.05       1.0  T
  14   -220.6432511  0.290241E-02  0.904E-02    0.05       1.0  T
  15   -220.6461903 -0.293924E-02  0.232E-02    0.06       1.0  T
  16   -220.6462897 -0.993532E-04  0.156E-02    0.06       1.0  T
  17   -220.6463027 -0.130334E-04  0.127E-02    0.06       1.0  T
  18   -220.6463424 -0.396331E-04  0.560E-03    0.06       1.7  T
  19   -220.6463436 -0.127148E-05  0.430E-03    0.06       2.2  T
  20   -220.6463505 -0.687793E-05  0.116E-03    0.06       8.0  T
  21   -220.6463507 -0.184932E-06  0.614E-04    0.06      15.2  T
  22   -220.6463508 -0.733220E-07  0.354E-04    0.06      26.3  T
     SCC iter.                  ...        0 min,  1.791 sec
     gradient                   ...        0 min,  0.043 sec
 * total energy  :  -218.0799306 Eh     change       -0.2242994E+00 Eh
   gradient norm :     0.3368605 Eh/α   predicted    -0.2252223E+00 (   0.41%)
   displ. norm   :     0.6489663 α      lambda       -0.1478354E+00
   maximum displ.:     0.1245028 α      in ANC's #233, #132, #236, ...

........................................................................
.............................. CYCLE    7 ..............................
........................................................................

 iter      E             dE          RMSdq      gap      omega  full diag
   1   -220.7037475 -0.220704E+03  0.523E-01    0.05       0.0  T
   2   -220.3571053  0.346642E+00  0.126E+00    0.13       1.0  T
   3   -220.6318195 -0.274714E+00  0.586E-01    0.16       1.0  T
   4   -220.3915399  0.240280E+00  0.931E-01    0.25       1.0  T
   5   -220.6512088 -0.259669E+00  0.500E-01    0.03       1.0  T
   6   -220.6747744 -0.235656E-01  0.459E-01    0.08       1.0  T
   7   -220.6655359  0.923854E-02  0.407E-01    0.06       1.0  T
   8   -220.7061100 -0.405741E-01  0.247E-01    0.05       1.0  T
   9   -220.7128910 -0.678102E-02  0.151E-01    0.08       1.0  T
  10   -220.7198499 -0.695888E-02  0.624E-02    0.06       1.0  T
  11   -220.7196162  0.233659E-03  0.627E-02    0.06       1.0  T
  12   -220.7204473 -0.831097E-03  0.287E-02    0.06       1.0  T
  13   -220.7205631 -0.115724E-03  0.196E-02    0.06       1.0  T
  14   -220.7206548 -0.917037E-04  0.954E-03    0.06       1.0  T
  15   -220.7206508  0.393751E-05  0.975E-03    0.06       1.0  T
  16   -220.7206704 -0.195977E-04  0.469E-03    0.06       2.0  T
  17   -220.7206757 -0.528805E-05  0.140E-03    0.06       6.7  T
  18   -220.7206756  0.135123E-06  0.135E-03    0.06       6.9  T
  19   -220.7206761 -0.502703E-06  0.421E-04    0.06      22.1  T
  20   -220.7206761 -0.520191E-07  0.146E-04    0.06      64.0  T
     SCC iter.                  ...        0 min,  2.891 sec
     gradient                   ...        0 min,  0.043 sec
 * total energy  :  -218.1928350 Eh     change       -0.1129044E+00 Eh
   gradient norm :     0.2740936 Eh/α   predicted    -0.1050488E+00 (  -6.96%)
   displ. norm   :     0.6204855 α      lambda       -0.8752632E-01
   maximum displ.:     0.1197394 α      in ANC's #50, #90, #132, ...

........................................................................
.............................. CYCLE    8 ..............................
........................................................................

 iter      E             dE          RMSdq      gap      omega  full diag
   1   -220.7698797 -0.220770E+03  0.407E-01    0.06       0.0  T
   2   -220.4826722  0.287207E+00  0.111E+00    0.08       1.0  T
   3   -220.7333360 -0.250664E+00  0.452E-01    0.11       1.0  T
   4   -220.5144453  0.218891E+00  0.842E-01    0.26       1.0  T
   5   -220.7381903 -0.223745E+00  0.352E-01    0.07       1.0  T
   6   -220.6962389  0.419514E-01  0.561E-01    0.08       1.0  T
   7   -220.7272584 -0.310195E-01  0.407E-01    0.10       1.0  T
   8   -220.7646855 -0.374271E-01  0.217E-01    0.06       1.0  T
   9   -220.7766771 -0.119916E-01  0.874E-02    0.06       1.0  T
  10   -220.7782213 -0.154422E-02  0.404E-02    0.06       1.0  T
  11   -220.7783154 -0.940484E-04  0.325E-02    0.07       1.0  T
  12   -220.7784504 -0.135049E-03  0.211E-02    0.06       1.0  T
  13   -220.7785620 -0.111548E-03  0.503E-03    0.06       1.9  T
  14   -220.7785649 -0.289489E-05  0.318E-03    0.06       2.9  T
  15   -220.7785647  0.184409E-06  0.345E-03    0.06       2.7  T
  16   -220.7785656 -0.905515E-06  0.278E-03    0.06       3.3  T
  17   -220.7785672 -0.161062E-05  0.158E-03    0.06       5.9  T
  18   -220.7785678 -0.582454E-06  0.486E-04    0.06      19.2  T
  19   -220.7785678 -0.263474E-07  0.315E-04    0.06      29.6  T
     SCC iter.                  ...        0 min,  2.591 sec
     gradient                   ...        0 min,  0.056 sec
 * total energy  :  -218.2613719 Eh     change       -0.6853695E-01 Eh
   gradient norm :     0.2085179 Eh/α   predicted    -0.6061210E-01 ( -11.56%)
   displ. norm   :     0.5916906 α      lambda       -0.5808233E-01
   maximum displ.:     0.1469854 α      in ANC's #50, #56, #58, ...

........................................................................
.............................. CYCLE    9 ..............................
........................................................................

 iter      E             dE          RMSdq      gap      omega  full diag
   1   -220.8174551 -0.220817E+03  0.338E-01    0.06       0.0  T
   2   -220.6364763  0.180979E+00  0.866E-01    0.03       1.0  T
   3   -220.7899981 -0.153522E+00  0.401E-01    0.05       1.0  T
   4   -220.8108707 -0.208726E-01  0.237E-01    0.07       1.0  T
   5   -220.7253660  0.855047E-01  0.538E-01    0.15       1.0  T
   6   -220.7110081  0.143579E-01  0.617E-01    0.17       1.0  T
   7   -220.8138025 -0.102794E+00  0.184E-01    0.06       1.0  T
   8   -220.8199890 -0.618642E-02  0.978E-02    0.06       1.0  T
   9   -220.8218381 -0.184908E-02  0.408E-02    0.07       1.0  T
  10   -220.8221620 -0.323900E-03  0.269E-02    0.06       1.0  T
  11   -220.8223184 -0.156487E-03  0.120E-02    0.06       1.0  T
  12   -220.8223553 -0.368558E-04  0.430E-03    0.06       2.2  T
  13   -220.8223579 -0.258004E-05  0.193E-03    0.06       4.8  T
  14   -220.8223563  0.155174E-05  0.301E-03    0.06       3.1  T
  15   -220.8223583 -0.197273E-05  0.116E-03    0.06       8.0  T
  16   -220.8223585 -0.246981E-06  0.600E-04    0.06      15.5  T
  17   -220.8223586 -0.846453E-07  0.143E-04    0.06      65.1  T
     SCC iter.                  ...        0 min,  1.127 sec
     gradient                   ...        0 min,  0.043 sec
 * total energy  :  -218.3053329 Eh     change       -0.4396094E-01 Eh
   gradient norm :     0.1278500 Eh/α   predicted    -0.3920842E-01 ( -10.81%)
   displ. norm   :     0.5641513 α      lambda       -0.3240425E-01
   maximum displ.:     0.1778614 α      in ANC's #50, #56, #28, ...

........................................................................
.............................. CYCLE   10 ..............................
........................................................................

 iter      E             dE          RMSdq      gap      omega  full diag
   1   -220.8404668 -0.220840E+03  0.261E-01    0.06       0.0  T
   2   -220.7446550  0.958118E-01  0.562E-01    0.09       1.0  T
   3   -220.7518728 -0.721776E-02  0.529E-01    0.17       1.0  T
   4   -220.7845588 -0.326860E-01  0.466E-01    0.13       1.0  T
   5   -220.8208413 -0.362825E-01  0.289E-01    0.06       1.0  T
   6   -220.8211342 -0.292942E-03  0.301E-01    0.07       1.0  T
   7   -220.8339675 -0.128333E-01  0.182E-01    0.06       1.0  T
   8   -220.8389049 -0.493743E-02  0.113E-01    0.06       1.0  T
   9   -220.8419021 -0.299721E-02  0.294E-02    0.06       1.0  T
  10   -220.8420867 -0.184572E-03  0.132E-02    0.06       1.0  T
  11   -220.8420893 -0.255141E-05  0.130E-02    0.06       1.0  T
  12   -220.8421306 -0.413701E-04  0.343E-03    0.06       2.7  T
  13   -220.8421320 -0.139175E-05  0.223E-03    0.06       4.2  T
  14   -220.8421333 -0.123552E-05  0.103E-03    0.06       9.1  T
  15   -220.8421335 -0.217500E-06  0.317E-04    0.06      29.4  T
  16   -220.8421335 -0.128577E-07  0.229E-04    0.06      40.7  T
     SCC iter.                  ...        0 min,  1.235 sec
     gradient                   ...        0 min,  0.044 sec
 * total energy  :  -218.3291946 Eh     change       -0.2386169E-01 Eh
   gradient norm :     0.0728288 Eh/α   predicted    -0.2135873E-01 ( -10.49%)
   displ. norm   :     0.5688997 α      lambda       -0.1784084E-01
   maximum displ.:     0.1784920 α      in ANC's #28, #50, #56, ...

........................................................................
.............................. CYCLE   11 ..............................
........................................................................

 iter      E             dE          RMSdq      gap      omega  full diag
   1   -220.8454094 -0.220845E+03  0.215E-01    0.06       0.0  T
   2   -220.7876635  0.577459E-01  0.430E-01    0.13       1.0  T
   3   -220.7652116  0.224520E-01  0.494E-01    0.13       1.0  T
   4   -220.6905678  0.746437E-01  0.810E-01    0.12       1.0  T
   5   -220.8388484 -0.148281E+00  0.179E-01    0.05       1.0  T
   6   -220.8369556  0.189283E-02  0.196E-01    0.07       1.0  T
   7   -220.8431918 -0.623622E-02  0.109E-01    0.05       1.0  T
   8   -220.8449117 -0.171991E-02  0.668E-02    0.06       1.0  T
   9   -220.8458716 -0.959918E-03  0.247E-02    0.06       1.0  T
  10   -220.8459784 -0.106796E-03  0.846E-03    0.06       1.1  T
  11   -220.8459868 -0.839470E-05  0.470E-03    0.06       2.0  T
  12   -220.8459897 -0.295316E-05  0.282E-03    0.06       3.3  T
  13   -220.8459916 -0.182458E-05  0.149E-03    0.06       6.3  T
  14   -220.8459920 -0.435399E-06  0.666E-04    0.06      14.0  T
  15   -220.8459921 -0.128619E-06  0.292E-04    0.06      31.9  T
     SCC iter.                  ...        0 min,  1.153 sec
     gradient                   ...        0 min,  0.045 sec
 * total energy  :  -218.3429013 Eh     change       -0.1370672E-01 Eh
   gradient norm :     0.0579688 Eh/α   predicted    -0.1180752E-01 ( -13.86%)
   displ. norm   :     0.6219245 α      lambda       -0.1303697E-01
   maximum displ.:     0.2075176 α      in ANC's #28, #29, #17, ...

........................................................................
.............................. CYCLE   12 ..............................
........................................................................

 iter      E             dE          RMSdq      gap      omega  full diag
   1   -220.8464025 -0.220846E+03  0.207E-01    0.06       0.0  T
   2   -220.7470732  0.993293E-01  0.553E-01    0.19       1.0  T
   3   -220.7943236 -0.472504E-01  0.410E-01    0.12       1.0  T
   4   -220.6906986  0.103625E+00  0.812E-01    0.09       1.0  T
   5   -220.8416311 -0.150933E+00  0.176E-01    0.05       1.0  T
   6   -220.8377072  0.392386E-02  0.211E-01    0.06       1.0  T
   7   -220.8426927 -0.498545E-02  0.148E-01    0.05       1.0  T
   8   -220.8456431 -0.295045E-02  0.960E-02    0.05       1.0  T
   9   -220.8474084 -0.176525E-02  0.463E-02    0.05       1.0  T
  10   -220.8477998 -0.391417E-03  0.179E-02    0.05       1.0  T
  11   -220.8478471 -0.472723E-04  0.969E-03    0.05       1.0  T
  12   -220.8478642 -0.170790E-04  0.397E-03    0.05       2.3  T
  13   -220.8478689 -0.474504E-05  0.151E-03    0.05       6.2  T
  14   -220.8478694 -0.465046E-06  0.771E-04    0.05      12.1  T
  15   -220.8478695 -0.127824E-06  0.456E-04    0.05      20.4  T
     SCC iter.                  ...        0 min,  1.711 sec
     gradient                   ...        0 min,  0.045 sec
 * total energy  :  -218.3525531 Eh     change       -0.9651798E-02 Eh
   gradient norm :     0.0566614 Eh/α   predicted    -0.9039807E-02 (  -6.34%)
   displ. norm   :     0.6681406 α      lambda       -0.1260259E-01
   maximum displ.:     0.2176510 α      in ANC's #17, #28, #18, ...

........................................................................
.............................. CYCLE   13 ..............................
........................................................................

 iter      E             dE          RMSdq      gap      omega  full diag
   1   -220.8651719 -0.220865E+03  0.207E-01    0.05       0.0  T
   2   -220.8524396  0.127324E-01  0.248E-01    0.05       1.0  T
   3   -220.7319504  0.120489E+00  0.707E-01    0.02       1.0  T
   4   -220.8345173 -0.102567E+00  0.374E-01    0.07       1.0  T
   5   -220.8482125 -0.136952E-01  0.243E-01    0.04       1.0  T
   6   -220.8160876  0.321249E-01  0.390E-01    0.10       1.0  T
   7   -220.8600771 -0.439895E-01  0.141E-01    0.05       1.0  T
   8   -220.8652247 -0.514756E-02  0.401E-02    0.05       1.0  T
   9   -220.8655464 -0.321718E-03  0.151E-02    0.05       1.0  T
  10   -220.8655820 -0.356617E-04  0.803E-03    0.05       1.2  T
  11   -220.8655931 -0.110714E-04  0.232E-03    0.05       4.0  T
  12   -220.8655938 -0.665032E-06  0.164E-03    0.05       5.7  T
  13   -220.8655942 -0.453490E-06  0.811E-04    0.05      11.5  T
  14   -220.8655943 -0.573611E-07  0.606E-04    0.05      15.4  T
     SCC iter.                  ...        0 min,  1.716 sec
     gradient                   ...        0 min,  0.044 sec
 * total energy  :  -218.3592816 Eh     change       -0.6728465E-02 Eh
   gradient norm :     0.0675371 Eh/α   predicted    -0.9114284E-02 (  35.46%)
   displ. norm   :     0.5363160 α      lambda       -0.9048648E-02
   maximum displ.:     0.1781607 α      in ANC's #17, #18, #29, ...

........................................................................
.............................. CYCLE   14 ..............................
........................................................................

 iter      E             dE          RMSdq      gap      omega  full diag
   1   -220.8756412 -0.220876E+03  0.133E-01    0.05       0.0  T
   2   -220.7617827  0.113858E+00  0.591E-01    0.10       1.0  T
   3   -220.8660533 -0.104271E+00  0.189E-01    0.06       1.0  T
   4   -220.8378672  0.281860E-01  0.397E-01    0.10       1.0  T
   5   -220.8726260 -0.347587E-01  0.127E-01    0.05       1.0  T
   6   -220.8660911  0.653483E-02  0.196E-01    0.05       1.0  T
   7   -220.8758609 -0.976977E-02  0.548E-02    0.05       1.0  T
   8   -220.8764730 -0.612127E-03  0.247E-02    0.05       1.0  T
   9   -220.8766139 -0.140847E-03  0.730E-03    0.05       1.3  T
  10   -220.8766192 -0.530602E-05  0.479E-03    0.05       1.9  T
  11   -220.8766233 -0.415103E-05  0.241E-03    0.05       3.9  T
  12   -220.8766240 -0.707928E-06  0.124E-03    0.05       7.5  T
  13   -220.8766244 -0.335213E-06  0.670E-04    0.05      13.9  T
  14   -220.8766245 -0.944717E-07  0.323E-04    0.05      28.9  T
     SCC iter.                  ...        0 min,  1.307 sec
     gradient                   ...        0 min,  0.045 sec
 * total energy  :  -218.3662835 Eh     change       -0.7001897E-02 Eh
   gradient norm :     0.0480259 Eh/α   predicted    -0.5825678E-02 ( -16.80%)
   displ. norm   :     0.6381092 α      lambda       -0.7488254E-02
   maximum displ.:     0.2336275 α      in ANC's #17, #18, #10, ...

........................................................................
.............................. CYCLE   15 ..............................
........................................................................

 iter      E             dE          RMSdq      gap      omega  full diag
   1   -220.8949151 -0.220895E+03  0.142E-01    0.04       0.0  T
   2   -220.7445697  0.150345E+00  0.740E-01    0.04       1.0  T
   3   -220.8950392 -0.150470E+00  0.107E-01    0.05       1.0  T
   4   -220.8296676  0.653716E-01  0.466E-01    0.12       1.0  T
   5   -220.8839825 -0.543149E-01  0.210E-01    0.06       1.0  T
   6   -220.8841666 -0.184129E-03  0.221E-01    0.05       1.0  T
   7   -220.8961633 -0.119967E-01  0.459E-02    0.05       1.0  T
   8   -220.8964358 -0.272526E-03  0.257E-02    0.05       1.0  T
   9   -220.8965554 -0.119601E-03  0.141E-02    0.05       1.0  T
  10   -220.8965997 -0.443043E-04  0.473E-03    0.05       2.0  T
  11   -220.8966001 -0.354681E-06  0.395E-03    0.05       2.4  T
  12   -220.8966035 -0.347523E-05  0.971E-04    0.05       9.6  T
  13   -220.8966036 -0.407101E-07  0.928E-04    0.05      10.0  T
  14   -220.8966038 -0.176856E-06  0.311E-04    0.05      30.0  T
     SCC iter.                  ...        0 min,  1.482 sec
     gradient                   ...        0 min,  0.045 sec
 * total energy  :  -218.3724433 Eh     change       -0.6159826E-02 Eh
   gradient norm :     0.0444340 Eh/α   predicted    -0.5268675E-02 ( -14.47%)
   displ. norm   :     0.6905916 α      lambda       -0.6568574E-02
   maximum displ.:     0.2552720 α      in ANC's #17, #18, #10, ...

........................................................................
.............................. CYCLE   16 ..............................
........................................................................

 iter      E             dE          RMSdq      gap      omega  full diag
   1   -220.9054514 -0.220905E+03  0.160E-01    0.04       0.0  T
   2   -220.6628039  0.242647E+00  0.986E-01    0.07       1.0  T
   3   -220.8960871 -0.233283E+00  0.206E-01    0.07       1.0  T
   4   -220.8422324  0.538546E-01  0.444E-01    0.13       1.0  T
   5   -220.9010009 -0.587684E-01  0.179E-01    0.04       1.0  T
   6   -220.8995357  0.146514E-02  0.184E-01    0.05       1.0  T
   7   -220.9076991 -0.816340E-02  0.491E-02    0.04       1.0  T
   8   -220.9078461 -0.146989E-03  0.364E-02    0.05       1.0  T
   9   -220.9081614 -0.315256E-03  0.167E-02    0.05       1.0  T
  10   -220.9082276 -0.662358E-04  0.739E-03    0.05       1.3  T
  11   -220.9082411 -0.135308E-04  0.246E-03    0.05       3.8  T
  12   -220.9082419 -0.818504E-06  0.161E-03    0.05       5.8  T
  13   -220.9082426 -0.667957E-06  0.550E-04    0.05      17.0  T
  14   -220.9082427 -0.629864E-07  0.181E-04    0.05      51.5  T
     SCC iter.                  ...        0 min,  1.297 sec
     gradient                   ...        0 min,  0.042 sec
 * total energy  :  -218.3778600 Eh     change       -0.5416704E-02 Eh
   gradient norm :     0.0400642 Eh/α   predicted    -0.4850626E-02 ( -10.45%)
   displ. norm   :     0.6922877 α      lambda       -0.5323270E-02
   maximum displ.:     0.2565474 α      in ANC's #17, #18, #10, ...

........................................................................
.............................. CYCLE   17 ..............................
........................................................................

 iter      E             dE          RMSdq      gap      omega  full diag
   1   -220.9160376 -0.220916E+03  0.150E-01    0.04       0.0  T
   2   -220.6803735  0.235664E+00  0.971E-01    0.06       1.0  T
   3   -220.9123367 -0.231963E+00  0.157E-01    0.05       1.0  T
   4   -220.8408481  0.714886E-01  0.480E-01    0.14       1.0  T
   5   -220.9139164 -0.730683E-01  0.143E-01    0.03       1.0  T
   6   -220.9092626  0.465381E-02  0.194E-01    0.05       1.0  T
   7   -220.9176408 -0.837822E-02  0.529E-02    0.04       1.0  T
   8   -220.9181977 -0.556918E-03  0.259E-02    0.04       1.0  T
   9   -220.9183419 -0.144193E-03  0.131E-02    0.04       1.0  T
  10   -220.9183752 -0.333404E-04  0.652E-03    0.04       1.4  T
  11   -220.9183866 -0.114066E-04  0.162E-03    0.04       5.7  T
  12   -220.9183867 -0.101994E-06  0.114E-03    0.04       8.2  T
  13   -220.9183870 -0.289612E-06  0.421E-04    0.04      22.2  T
  14   -220.9183871 -0.267725E-07  0.179E-04    0.04      52.1  T
     SCC iter.                  ...        0 min,  1.172 sec
     gradient                   ...        0 min,  0.043 sec
 * total energy  :  -218.3821871 Eh     change       -0.4327105E-02 Eh
   gradient norm :     0.0347964 Eh/α   predicted    -0.3937259E-02 (  -9.01%)
   displ. norm   :     0.6856274 α      lambda       -0.4270568E-02
   maximum displ.:     0.2429597 α      in ANC's #17, #10, #18, ...

........................................................................
.............................. CYCLE   18 ..............................
........................................................................

 iter      E             dE          RMSdq      gap      omega  full diag
   1   -220.9163298 -0.220916E+03  0.144E-01    0.04       0.0  T
   2   -220.6997327  0.216597E+00  0.939E-01    0.08       1.0  T
   3   -220.9159896 -0.216257E+00  0.113E-01    0.04       1.0  T
   4   -220.8425530  0.734366E-01  0.472E-01    0.12       1.0  T
   5   -220.9106925 -0.681395E-01  0.161E-01    0.04       1.0  T
   6   -220.9132535 -0.256096E-02  0.133E-01    0.04       1.0  T
   7   -220.9173068 -0.405332E-02  0.587E-02    0.04       1.0  T
   8   -220.9179404 -0.633624E-03  0.224E-02    0.04       1.0  T
   9   -220.9180150 -0.746097E-04  0.130E-02    0.04       1.0  T
  10   -220.9180506 -0.355563E-04  0.446E-03    0.04       2.1  T
  11   -220.9180520 -0.144477E-05  0.231E-03    0.04       4.0  T
  12   -220.9180531 -0.104748E-05  0.777E-04    0.04      12.0  T
  13   -220.9180532 -0.105333E-06  0.300E-04    0.04      31.1  T
  14   -220.9180532 -0.142838E-07  0.114E-04    0.04      81.6  T
     SCC iter.                  ...        0 min,  1.995 sec
     gradient                   ...        0 min,  0.044 sec
 * total energy  :  -218.3856464 Eh     change       -0.3459360E-02 Eh
   gradient norm :     0.0323813 Eh/α   predicted    -0.3139055E-02 (  -9.26%)
   displ. norm   :     0.6651037 α      lambda       -0.3732458E-02
   maximum displ.:     0.2254848 α      in ANC's #10, #17, #18, ...

........................................................................
.............................. CYCLE   19 ..............................
........................................................................

 iter      E             dE          RMSdq      gap      omega  full diag
   1   -220.9240600 -0.220924E+03  0.118E-01    0.03       0.0  T
   2   -220.8664605  0.575995E-01  0.468E-01    0.04       1.0  T
   3   -220.9149482 -0.484878E-01  0.187E-01    0.05       1.0  T
   4   -220.8687600  0.461882E-01  0.422E-01    0.12       1.0  T
   5   -220.9125588 -0.437988E-01  0.199E-01    0.05       1.0  T
   6   -220.9188751 -0.631625E-02  0.146E-01    0.04       1.0  T
   7   -220.9234590 -0.458393E-02  0.669E-02    0.04       1.0  T
   8   -220.9240421 -0.583048E-03  0.406E-02    0.04       1.0  T
   9   -220.9244489 -0.406818E-03  0.135E-02    0.04       1.0  T
  10   -220.9244834 -0.345421E-04  0.485E-03    0.04       1.9  T
  11   -220.9244857 -0.232000E-05  0.252E-03    0.04       3.7  T
  12   -220.9244870 -0.121587E-05  0.131E-03    0.04       7.1  T
  13   -220.9244872 -0.219081E-06  0.775E-04    0.04      12.0  T
  14   -220.9244873 -0.157739E-06  0.253E-04    0.04      36.9  T
     SCC iter.                  ...        0 min,  1.018 sec
     gradient                   ...        0 min,  0.043 sec
 * total energy  :  -218.3886545 Eh     change       -0.3008015E-02 Eh
   gradient norm :     0.0310073 Eh/α   predicted    -0.2691786E-02 ( -10.51%)
   displ. norm   :     0.6759712 α      lambda       -0.3414473E-02
   maximum displ.:     0.2151468 α      in ANC's #17, #7, #11, ...

........................................................................
.............................. CYCLE   20 ..............................
........................................................................

 iter      E             dE          RMSdq      gap      omega  full diag
   1   -220.9249427 -0.220925E+03  0.117E-01    0.03       0.0  T
   2   -220.9128840  0.120587E-01  0.238E-01    0.04       1.0  T
   3   -220.9167419 -0.385788E-02  0.179E-01    0.04       1.0  T
   4   -220.8453862  0.713557E-01  0.526E-01    0.07       1.0  T
   5   -220.9197723 -0.743861E-01  0.128E-01    0.04       1.0  T
   6   -220.9133765  0.639583E-02  0.201E-01    0.05       1.0  T
   7   -220.9246725 -0.112961E-01  0.483E-02    0.03       1.0  T
   8   -220.9249848 -0.312307E-03  0.270E-02    0.03       1.0  T
   9   -220.9251702 -0.185411E-03  0.418E-03    0.03       2.2  T
  10   -220.9251669  0.330410E-05  0.452E-03    0.03       2.1  T
  11   -220.9251726 -0.568841E-05  0.141E-03    0.03       6.6  T
  12   -220.9251724  0.189738E-06  0.147E-03    0.03       6.4  T
  13   -220.9251730 -0.532403E-06  0.367E-04    0.03      25.4  T
  14   -220.9251730 -0.495100E-08  0.342E-04    0.03      27.3  T
     SCC iter.                  ...        0 min,  0.856 sec
     gradient                   ...        0 min,  0.041 sec
 * total energy  :  -218.3913794 Eh     change       -0.2724938E-02 Eh
   gradient norm :     0.0312554 Eh/α   predicted    -0.2487339E-02 (  -8.72%)
   displ. norm   :     0.6770445 α      lambda       -0.3536362E-02
   maximum displ.:     0.2396344 α      in ANC's #11, #7, #5, ...
 * RMSD in coord.:     0.7429395 α      energy gain  -0.4429452E+01 Eh

generating ANC from exact Hessian ...
Using Lindh-Hessian (1995)
 Shifting diagonal of input Hessian by    9.9757612488880314E-003
 Lowest  eigenvalues of input Hessian
    0.000000    0.000000    0.000000    0.000000    0.000000    0.000000
    0.010000    0.010021    0.010106    0.010150    0.010187    0.010330
    0.010396    0.010450    0.010534    0.010566    0.010723    0.010785
 Highest eigenvalues
    2.652415    2.653419    2.653812    2.666348    2.667916    2.682530


........................................................................
.............................. CYCLE   21 ..............................
........................................................................

 iter      E             dE          RMSdq      gap      omega  full diag
   1   -220.9250818 -0.220925E+03  0.112E-01    0.03       0.0  T
   2   -220.9116153  0.134665E-01  0.240E-01    0.02       1.0  T
   3   -220.9100988  0.151655E-02  0.251E-01    0.04       1.0  T
   4   -220.8932940  0.168047E-01  0.327E-01    0.07       1.0  T
   5   -220.8883131  0.498093E-02  0.341E-01    0.10       1.0  T
   6   -220.9235614 -0.352483E-01  0.936E-02    0.03       1.0  T
   7   -220.9242158 -0.654386E-03  0.712E-02    0.03       1.0  T
   8   -220.9252115 -0.995668E-03  0.302E-02    0.03       1.0  T
   9   -220.9253963 -0.184806E-03  0.113E-02    0.03       1.0  T
  10   -220.9254370 -0.407100E-04  0.269E-03    0.03       3.5  T
  11   -220.9254349  0.207890E-05  0.338E-03    0.03       2.8  T
  12   -220.9254380 -0.306678E-05  0.102E-03    0.03       9.1  T
  13   -220.9254382 -0.222798E-06  0.562E-04    0.03      16.6  T
  14   -220.9254383 -0.336373E-07  0.424E-04    0.03      22.0  T
     SCC iter.                  ...        0 min,  0.899 sec
     gradient                   ...        0 min,  0.043 sec
 * total energy  :  -218.3937337 Eh     change       -0.2354265E-02 Eh
   gradient norm :     0.0347273 Eh/α   predicted     0.0000000E+00 (-100.00%)
   displ. norm   :     0.3285709 α      lambda       -0.4295675E-02
   maximum displ.:     0.1022638 α      in ANC's #14, #23, #8, ...

........................................................................
.............................. CYCLE   22 ..............................
........................................................................

 iter      E             dE          RMSdq      gap      omega  full diag
   1   -220.9325113 -0.220933E+03  0.100E-01    0.03       0.0  T
   2   -220.8635566  0.689547E-01  0.513E-01    0.02       1.0  T
   3   -220.9309086 -0.673519E-01  0.922E-02    0.03       1.0  T
   4   -220.8760481  0.548604E-01  0.408E-01    0.14       1.0  T
   5   -220.9326148 -0.565666E-01  0.345E-02    0.03       1.0  T
   6   -220.9322455  0.369248E-03  0.557E-02    0.03       1.0  T
   7   -220.9328378 -0.592230E-03  0.148E-02    0.03       1.0  T
   8   -220.9328765 -0.387892E-04  0.787E-03    0.03       1.2  T
   9   -220.9328885 -0.119091E-04  0.413E-03    0.03       2.3  T
  10   -220.9328884  0.908683E-07  0.370E-03    0.03       2.5  T
  11   -220.9328928 -0.442148E-05  0.747E-04    0.03      12.5  T
  12   -220.9328926  0.231460E-06  0.103E-03    0.03       9.1  T
  13   -220.9328929 -0.322774E-06  0.305E-04    0.03      30.6  T
  14   -220.9328929  0.482987E-08  0.242E-04    0.03      38.5  T
     SCC iter.                  ...        0 min,  1.020 sec
     gradient                   ...        0 min,  0.042 sec
 * total energy  :  -218.3971614 Eh     change       -0.3427715E-02 Eh
   gradient norm :     0.0180564 Eh/α   predicted    -0.2380233E-02 ( -30.56%)
   displ. norm   :     0.5864674 α      lambda       -0.4323474E-02
   maximum displ.:     0.1860494 α      in ANC's #14, #23, #8, ...

........................................................................
.............................. CYCLE   23 ..............................
........................................................................

 iter      E             dE          RMSdq      gap      omega  full diag
   1   -220.9353353 -0.220935E+03  0.156E-01    0.03       0.0  T
   2   -220.8244973  0.110838E+00  0.644E-01    0.02       1.0  T
   3   -220.9280484 -0.103551E+00  0.178E-01    0.04       1.0  T
   4   -220.8781464  0.499020E-01  0.418E-01    0.14       1.0  T
   5   -220.9347831 -0.566367E-01  0.688E-02    0.03       1.0  T
   6   -220.9346410  0.142090E-03  0.812E-02    0.03       1.0  T
   7   -220.9355645 -0.923494E-03  0.454E-02    0.03       1.0  T
   8   -220.9360723 -0.507772E-03  0.146E-02    0.03       1.0  T
   9   -220.9360856 -0.133349E-04  0.103E-02    0.03       1.0  T
  10   -220.9360814  0.424509E-05  0.984E-03    0.03       1.0  T
  11   -220.9361149 -0.335452E-04  0.198E-03    0.03       4.7  T
  12   -220.9361152 -0.257909E-06  0.155E-03    0.03       6.0  T
  13   -220.9361158 -0.597801E-06  0.702E-04    0.03      13.3  T
  14   -220.9361158 -0.226652E-07  0.547E-04    0.03      17.0  T
     SCC iter.                  ...        0 min,  0.908 sec
     gradient                   ...        0 min,  0.045 sec
 * total energy  :  -218.4003735 Eh     change       -0.3212117E-02 Eh
   gradient norm :     0.0174866 Eh/α   predicted    -0.2905730E-02 (  -9.54%)
   displ. norm   :     0.5914951 α      lambda       -0.2652850E-02
   maximum displ.:     0.1940730 α      in ANC's #14, #8, #23, ...

........................................................................
.............................. CYCLE   24 ..............................
........................................................................

 iter      E             dE          RMSdq      gap      omega  full diag
   1   -220.9347700 -0.220935E+03  0.135E-01    0.03       0.0  T
   2   -220.8659935  0.687765E-01  0.499E-01    0.04       1.0  T
   3   -220.9221624 -0.561689E-01  0.211E-01    0.05       1.0  T
   4   -220.8672462  0.549163E-01  0.461E-01    0.18       1.0  T
   5   -220.9344034 -0.671572E-01  0.633E-02    0.03       1.0  T
   6   -220.9334389  0.964481E-03  0.866E-02    0.03       1.0  T
   7   -220.9345836 -0.114469E-02  0.494E-02    0.03       1.0  T
   8   -220.9350739 -0.490372E-03  0.207E-02    0.03       1.0  T
   9   -220.9351892 -0.115257E-03  0.770E-03    0.03       1.2  T
  10   -220.9351923 -0.310092E-05  0.581E-03    0.03       1.6  T
  11   -220.9352011 -0.881042E-05  0.301E-03    0.03       3.1  T
  12   -220.9352038 -0.265088E-05  0.987E-04    0.03       9.5  T
  13   -220.9352039 -0.158168E-06  0.526E-04    0.03      17.7  T
  14   -220.9352040 -0.464292E-07  0.272E-04    0.03      34.3  T
     SCC iter.                  ...        0 min,  1.042 sec
     gradient                   ...        0 min,  0.043 sec
 * total energy  :  -218.4025311 Eh     change       -0.2157646E-02 Eh
   gradient norm :     0.0293935 Eh/α   predicted    -0.1790499E-02 ( -17.02%)
   displ. norm   :     0.6499999 α      lambda       -0.2784066E-02
   maximum displ.:     0.2191324 α      in ANC's #14, #8, #16, ...

........................................................................
.............................. CYCLE   25 ..............................
........................................................................

 iter      E             dE          RMSdq      gap      omega  full diag
   1   -220.9358055 -0.220936E+03  0.128E-01    0.03       0.0  T
   2   -220.9022558  0.335497E-01  0.354E-01    0.04       1.0  T
   3   -220.9188694 -0.166136E-01  0.243E-01    0.06       1.0  T
   4   -220.8708540  0.480154E-01  0.454E-01    0.17       1.0  T
   5   -220.9341695 -0.633154E-01  0.890E-02    0.03       1.0  T
   6   -220.9336031  0.566399E-03  0.100E-01    0.03       1.0  T
   7   -220.9352265 -0.162345E-02  0.577E-02    0.03       1.0  T
   8   -220.9357492 -0.522688E-03  0.299E-02    0.03       1.0  T
   9   -220.9360203 -0.271085E-03  0.839E-03    0.03       1.1  T
  10   -220.9360284 -0.812173E-05  0.588E-03    0.03       1.6  T
  11   -220.9360391 -0.107098E-04  0.185E-03    0.03       5.1  T
  12   -220.9360396 -0.532077E-06  0.110E-03    0.03       8.4  T
  13   -220.9360399 -0.261863E-06  0.466E-04    0.03      20.0  T
  14   -220.9360399 -0.232274E-07  0.273E-04    0.03      34.2  T
     SCC iter.                  ...        0 min,  0.958 sec
     gradient                   ...        0 min,  0.042 sec
 * total energy  :  -218.4049427 Eh     change       -0.2411540E-02 Eh
   gradient norm :     0.0303311 Eh/α   predicted    -0.1980172E-02 ( -17.89%)
   displ. norm   :     0.6881094 α      lambda       -0.3256087E-02
   maximum displ.:     0.2397654 α      in ANC's #8, #14, #16, ...

........................................................................
.............................. CYCLE   26 ..............................
........................................................................

 iter      E             dE          RMSdq      gap      omega  full diag
   1   -220.9421691 -0.220942E+03  0.122E-01    0.02       0.0  T
   2   -220.9383354  0.383366E-02  0.132E-01    0.03       1.0  T
   3   -220.8994721  0.388633E-01  0.368E-01    0.11       1.0  T
   4   -220.9036242 -0.415212E-02  0.364E-01    0.09       1.0  T
   5   -220.9322074 -0.285832E-01  0.184E-01    0.05       1.0  T
   6   -220.9400136 -0.780618E-02  0.994E-02    0.02       1.0  T
   7   -220.9417109 -0.169734E-02  0.498E-02    0.03       1.0  T
   8   -220.9422355 -0.524598E-03  0.158E-02    0.02       1.0  T
   9   -220.9422412 -0.570419E-05  0.123E-02    0.03       1.0  T
  10   -220.9422785 -0.372905E-04  0.442E-03    0.03       2.1  T
  11   -220.9422793 -0.767412E-06  0.355E-03    0.03       2.6  T
  12   -220.9422822 -0.286716E-05  0.114E-03    0.03       8.2  T
  13   -220.9422822 -0.760221E-07  0.862E-04    0.03      10.8  T
  14   -220.9422824 -0.130387E-06  0.333E-04    0.03      28.0  T
     SCC iter.                  ...        0 min,  0.798 sec
     gradient                   ...        0 min,  0.043 sec
 * total energy  :  -218.4076279 Eh     change       -0.2685232E-02 Eh
   gradient norm :     0.0163868 Eh/α   predicted    -0.2398942E-02 ( -10.66%)
   displ. norm   :     0.7620870 α      lambda       -0.2634663E-02
   maximum displ.:     0.2672292 α      in ANC's #8, #14, #16, ...

........................................................................
.............................. CYCLE   27 ..............................
........................................................................

 iter      E             dE          RMSdq      gap      omega  full diag
   1   -220.9449678 -0.220945E+03  0.140E-01    0.02       0.0  T
   2   -220.9196661  0.253016E-01  0.282E-01    0.06       1.0  T
   3   -220.8969580  0.227081E-01  0.378E-01    0.13       1.0  T
   4   -220.9189871 -0.220291E-01  0.317E-01    0.05       1.0  T
   5   -220.9282903 -0.930324E-02  0.260E-01    0.05       1.0  T
   6   -220.9416212 -0.133309E-01  0.119E-01    0.02       1.0  T
   7   -220.9441174 -0.249621E-02  0.677E-02    0.02       1.0  T
   8   -220.9450737 -0.956265E-03  0.242E-02    0.02       1.0  T
   9   -220.9451308 -0.571567E-04  0.167E-02    0.02       1.0  T
  10   -220.9451950 -0.641951E-04  0.713E-03    0.02       1.3  T
  11   -220.9451961 -0.102040E-05  0.531E-03    0.02       1.8  T
  12   -220.9452041 -0.806331E-05  0.151E-03    0.02       6.2  T
  13   -220.9452041  0.373823E-07  0.154E-03    0.02       6.1  T
  14   -220.9452048 -0.669587E-06  0.330E-04    0.02      28.3  T
  15   -220.9452047  0.374119E-07  0.483E-04    0.02      19.3  T
     SCC iter.                  ...        0 min,  0.949 sec
     gradient                   ...        0 min,  0.044 sec
 * total energy  :  -218.4098986 Eh     change       -0.2270700E-02 Eh
   gradient norm :     0.0157029 Eh/α   predicted    -0.2082535E-02 (  -8.29%)
   displ. norm   :     0.7415784 α      lambda       -0.2425862E-02
   maximum displ.:     0.2695980 α      in ANC's #8, #16, #14, ...

........................................................................
.............................. CYCLE   28 ..............................
........................................................................

 iter      E             dE          RMSdq      gap      omega  full diag
   1   -220.9543634 -0.220954E+03  0.133E-01    0.02       0.0  T
   2   -220.9419652  0.123982E-01  0.200E-01    0.05       1.0  T
   3   -220.8871283  0.548369E-01  0.442E-01    0.17       1.0  T
   4   -220.9414606 -0.543323E-01  0.236E-01    0.02       1.0  T
   5   -220.9467727 -0.531217E-02  0.185E-01    0.03       1.0  T
   6   -220.9503871 -0.361440E-02  0.125E-01    0.02       1.0  T
   7   -220.9540019 -0.361473E-02  0.494E-02    0.02       1.0  T
   8   -220.9544724 -0.470547E-03  0.196E-02    0.02       1.0  T
   9   -220.9545077 -0.353302E-04  0.124E-02    0.02       1.0  T
  10   -220.9545404 -0.327042E-04  0.590E-03    0.02       1.6  T
  11   -220.9545384  0.204833E-05  0.505E-03    0.02       1.8  T
  12   -220.9545463 -0.788458E-05  0.150E-03    0.02       6.2  T
  13   -220.9545464 -0.107010E-06  0.106E-03    0.02       8.8  T
  14   -220.9545467 -0.311293E-06  0.384E-04    0.02      24.3  T
  15   -220.9545467  0.188089E-07  0.448E-04    0.02      20.8  T
     SCC iter.                  ...        0 min,  0.999 sec
     gradient                   ...        0 min,  0.044 sec
 * total energy  :  -218.4119042 Eh     change       -0.2005595E-02 Eh
   gradient norm :     0.0135076 Eh/α   predicted    -0.1879970E-02 (  -6.26%)
   displ. norm   :     0.7928676 α      lambda       -0.2131009E-02
   maximum displ.:     0.2970090 α      in ANC's #8, #16, #1, ...

........................................................................
.............................. CYCLE   29 ..............................
........................................................................

 iter      E             dE          RMSdq      gap      omega  full diag
   1   -220.9529344 -0.220953E+03  0.148E-01    0.01       0.0  T
   2   -220.9344089  0.185254E-01  0.244E-01    0.05       1.0  T
   3   -220.8945513  0.398576E-01  0.415E-01    0.17       1.0  T
   4   -220.9323727 -0.378214E-01  0.290E-01    0.03       1.0  T
   5   -220.9389689 -0.659621E-02  0.237E-01    0.05       1.0  T
   6   -220.9485317 -0.956275E-02  0.130E-01    0.03       1.0  T
   7   -220.9523763 -0.384460E-02  0.591E-02    0.01       1.0  T
   8   -220.9530819 -0.705577E-03  0.201E-02    0.01       1.0  T
   9   -220.9530872 -0.530517E-05  0.177E-02    0.01       1.0  T
  10   -220.9531513 -0.641675E-04  0.837E-03    0.01       1.1  T
  11   -220.9531509  0.375348E-06  0.679E-03    0.01       1.4  T
  12   -220.9531643 -0.133064E-04  0.157E-03    0.01       5.9  T
  13   -220.9531643 -0.311565E-07  0.153E-03    0.01       6.1  T
  14   -220.9531650 -0.684974E-06  0.389E-04    0.01      24.0  T
  15   -220.9531649  0.286945E-07  0.484E-04    0.01      19.3  T
     SCC iter.                  ...        0 min,  0.930 sec
     gradient                   ...        0 min,  0.044 sec
 * total energy  :  -218.4135687 Eh     change       -0.1664452E-02 Eh
   gradient norm :     0.0181757 Eh/α   predicted    -0.1735325E-02 (   4.26%)
   displ. norm   :     0.6709454 α      lambda       -0.1956891E-02
   maximum displ.:     0.2648673 α      in ANC's #8, #1, #16, ...

........................................................................
.............................. CYCLE   30 ..............................
........................................................................

 iter      E             dE          RMSdq      gap      omega  full diag
   1   -220.9639966 -0.220964E+03  0.110E-01    0.01       0.0  T
   2   -220.9598391  0.415750E-02  0.123E-01    0.02       1.0  T
   3   -220.8977182  0.621208E-01  0.438E-01    0.16       1.0  T
   4   -220.9560834 -0.583652E-01  0.186E-01    0.01       1.0  T
   5   -220.9612422 -0.515872E-02  0.112E-01    0.01       1.0  T
   6   -220.9613429 -0.100744E-03  0.101E-01    0.02       1.0  T
   7   -220.9638755 -0.253260E-02  0.299E-02    0.01       1.0  T
   8   -220.9640674 -0.191904E-03  0.949E-03    0.01       1.0  T
   9   -220.9640689 -0.147174E-05  0.736E-03    0.01       1.3  T
  10   -220.9640792 -0.103008E-04  0.315E-03    0.01       3.0  T
  11   -220.9640791  0.399323E-07  0.275E-03    0.01       3.4  T
  12   -220.9640814 -0.225144E-05  0.728E-04    0.01      12.8  T
  13   -220.9640813  0.920587E-07  0.775E-04    0.01      12.0  T
  14   -220.9640815 -0.157795E-06  0.268E-04    0.01      34.8  T
     SCC iter.                  ...        0 min,  0.808 sec
     gradient                   ...        0 min,  0.043 sec
 * total energy  :  -218.4151385 Eh     change       -0.1569870E-02 Eh
   gradient norm :     0.0136344 Eh/α   predicted    -0.1418921E-02 (  -9.62%)
   displ. norm   :     0.7390675 α      lambda       -0.1632679E-02
   maximum displ.:     0.2894551 α      in ANC's #8, #1, #16, ...

........................................................................
.............................. CYCLE   31 ..............................
........................................................................

 iter      E             dE          RMSdq      gap      omega  full diag
   1   -220.9636195 -0.220964E+03  0.122E-01    0.01       0.0  T
   2   -220.9619175  0.170208E-02  0.102E-01    0.02       1.0  T
   3   -220.9070111  0.549063E-01  0.432E-01    0.12       1.0  T
   4   -220.9360294 -0.290182E-01  0.286E-01    0.10       1.0  T
   5   -220.9626066 -0.265773E-01  0.639E-02    0.00       1.0  T
   6   -220.9613830  0.122356E-02  0.971E-02    0.00       1.0  T
   7   -220.9636027 -0.221970E-02  0.209E-02    0.01       1.0  T
   8   -220.9636292 -0.265003E-04  0.155E-02    0.01       1.0  T
   9   -220.9636679 -0.386605E-04  0.888E-03    0.01       1.0  T
  10   -220.9636848 -0.168948E-04  0.313E-03    0.01       3.0  T
  11   -220.9636857 -0.945217E-06  0.257E-03    0.01       3.6  T
  12   -220.9636872 -0.144014E-05  0.665E-04    0.01      14.0  T
  13   -220.9636871  0.116556E-06  0.874E-04    0.01      10.7  T
  14   -220.9636872 -0.155376E-06  0.256E-04    0.01      36.5  T
     SCC iter.                  ...        0 min,  1.043 sec
     gradient                   ...        0 min,  0.043 sec
 * total energy  :  -218.4165612 Eh     change       -0.1422696E-02 Eh
   gradient norm :     0.0128999 Eh/α   predicted    -0.1262242E-02 ( -11.28%)
   displ. norm   :     0.7668401 α      lambda       -0.1939519E-02
   maximum displ.:     0.2918334 α      in ANC's #8, #1, #3, ...

........................................................................
.............................. CYCLE   32 ..............................
........................................................................

 iter      E             dE          RMSdq      gap      omega  full diag
   1   -220.9710775 -0.220971E+03  0.107E-01    0.01       0.0  T
   2   -220.9656992  0.537836E-02  0.145E-01    0.03       1.0  T
   3   -220.9215043  0.441948E-01  0.388E-01    0.10       1.0  T
   4   -220.9605515 -0.390471E-01  0.190E-01    0.06       1.0  T
   5   -220.9702090 -0.965749E-02  0.594E-02    0.00       1.0  T
   6   -220.9681515  0.205741E-02  0.111E-01    0.01       1.0  T
   7   -220.9709756 -0.282402E-02  0.272E-02    0.01       1.0  T
   8   -220.9711230 -0.147426E-03  0.986E-03    0.01       1.0  T
   9   -220.9711443 -0.212910E-04  0.454E-03    0.01       2.1  T
  10   -220.9711441  0.153740E-06  0.360E-03    0.01       2.6  T
  11   -220.9711481 -0.392869E-05  0.121E-03    0.01       7.7  T
  12   -220.9711484 -0.336332E-06  0.423E-04    0.01      22.0  T
  13   -220.9711484 -0.149993E-08  0.344E-04    0.01      27.1  T
     SCC iter.                  ...        0 min,  0.799 sec
     gradient                   ...        0 min,  0.044 sec
 * total energy  :  -218.4181149 Eh     change       -0.1553663E-02 Eh
   gradient norm :     0.0158702 Eh/α   predicted    -0.1540022E-02 (  -0.88%)
   displ. norm   :     0.7739181 α      lambda       -0.1758636E-02
   maximum displ.:     0.2796521 α      in ANC's #8, #1, #3, ...

........................................................................
.............................. CYCLE   33 ..............................
........................................................................

 iter      E             dE          RMSdq      gap      omega  full diag
   1   -220.9665779 -0.220967E+03  0.131E-01    0.01       0.0  T
   2   -220.9455998  0.209781E-01  0.262E-01    0.07       1.0  T
   3   -220.9241205  0.214793E-01  0.358E-01    0.10       1.0  T
   4   -220.9547776 -0.306570E-01  0.208E-01    0.05       1.0  T
   5   -220.9638319 -0.905431E-02  0.118E-01    0.01       1.0  T
   6   -220.9650443 -0.121247E-02  0.790E-02    0.01       1.0  T
   7   -220.9666115 -0.156712E-02  0.261E-02    0.01       1.0  T
   8   -220.9667102 -0.987625E-04  0.133E-02    0.01       1.0  T
   9   -220.9667110 -0.802490E-06  0.118E-02    0.01       1.0  T
  10   -220.9667456 -0.345708E-04  0.495E-03    0.01       1.9  T
  11   -220.9667483 -0.267078E-05  0.310E-03    0.01       3.0  T
  12   -220.9667505 -0.220280E-05  0.729E-04    0.01      12.8  T
  13   -220.9667504  0.117526E-06  0.943E-04    0.01       9.9  T
  14   -220.9667505 -0.144496E-06  0.355E-04    0.01      26.3  T
     SCC iter.                  ...        0 min,  0.960 sec
     gradient                   ...        0 min,  0.044 sec
 * total energy  :  -218.4195506 Eh     change       -0.1435702E-02 Eh
   gradient norm :     0.0152981 Eh/α   predicted    -0.1405988E-02 (  -2.07%)
   displ. norm   :     0.7547128 α      lambda       -0.1617962E-02
   maximum displ.:     0.2610462 α      in ANC's #8, #3, #1, ...

........................................................................
.............................. CYCLE   34 ..............................
........................................................................

 iter      E             dE          RMSdq      gap      omega  full diag
   1   -220.9627618 -0.220963E+03  0.105E-01    0.01       0.0  T
   2   -220.9230203  0.397416E-01  0.351E-01    0.11       1.0  T
   3   -220.9531753 -0.301550E-01  0.178E-01    0.04       1.0  T
   4   -220.9385107  0.146645E-01  0.328E-01    0.05       1.0  T
   5   -220.9604199 -0.219092E-01  0.964E-02    0.03       1.0  T
   6   -220.9623630 -0.194312E-02  0.589E-02    0.01       1.0  T
   7   -220.9629156 -0.552580E-03  0.275E-02    0.01       1.0  T
   8   -220.9630515 -0.135837E-03  0.118E-02    0.01       1.0  T
   9   -220.9630751 -0.236327E-04  0.454E-03    0.01       2.1  T
  10   -220.9630756 -0.561337E-06  0.317E-03    0.01       2.9  T
  11   -220.9630778 -0.211494E-05  0.184E-03    0.01       5.1  T
  12   -220.9630780 -0.216876E-06  0.138E-03    0.01       6.8  T
  13   -220.9630785 -0.556181E-06  0.379E-04    0.01      24.6  T
  14   -220.9630786 -0.296623E-07  0.212E-04    0.01      44.0  T
     SCC iter.                  ...        0 min,  0.794 sec
     gradient                   ...        0 min,  0.043 sec
 * total energy  :  -218.4207401 Eh     change       -0.1189488E-02 Eh
   gradient norm :     0.0181443 Eh/α   predicted    -0.1269770E-02 (   6.75%)
   displ. norm   :     0.6549841 α      lambda       -0.1721657E-02
   maximum displ.:     0.2359817 α      in ANC's #3, #8, #1, ...

........................................................................
.............................. CYCLE   35 ..............................
........................................................................

 iter      E             dE          RMSdq      gap      omega  full diag
   1   -220.9680922 -0.220968E+03  0.101E-01    0.00       0.0  T
   2   -220.9339905  0.341017E-01  0.323E-01    0.10       1.0  T
   3   -220.9566855 -0.226950E-01  0.192E-01    0.04       1.0  T
   4   -220.9644040 -0.771848E-02  0.119E-01    0.03       1.0  T
   5   -220.9668533 -0.244923E-02  0.799E-02    0.01       1.0  T
   6   -220.9675180 -0.664753E-03  0.607E-02    0.00       1.0  T
   7   -220.9682549 -0.736920E-03  0.213E-02    0.01       1.0  T
   8   -220.9683332 -0.783211E-04  0.812E-03    0.01       1.1  T
   9   -220.9683447 -0.114873E-04  0.423E-03    0.01       2.2  T
  10   -220.9683463 -0.159058E-05  0.276E-03    0.01       3.4  T
  11   -220.9683480 -0.171319E-05  0.103E-03    0.01       9.1  T
  12   -220.9683483 -0.219220E-06  0.593E-04    0.01      15.7  T
  13   -220.9683483 -0.586573E-07  0.263E-04    0.01      35.4  T
     SCC iter.                  ...        0 min,  1.019 sec
     gradient                   ...        0 min,  0.041 sec
 * total energy  :  -218.4218917 Eh     change       -0.1151576E-02 Eh
   gradient norm :     0.0137872 Eh/α   predicted    -0.1230131E-02 (   6.82%)
   displ. norm   :     0.6520288 α      lambda       -0.1128820E-02
   maximum displ.:     0.2491399 α      in ANC's #3, #8, #1, ...

........................................................................
.............................. CYCLE   36 ..............................
........................................................................

 iter      E             dE          RMSdq      gap      omega  full diag
   1   -220.9685706 -0.220969E+03  0.947E-02    0.00       0.0  T
   2   -220.9339170  0.346536E-01  0.323E-01    0.11       1.0  T
   3   -220.9606329 -0.267159E-01  0.161E-01    0.03       1.0  T
   4   -220.9646055 -0.397258E-02  0.134E-01    0.02       1.0  T
   5   -220.9669796 -0.237412E-02  0.848E-02    0.02       1.0  T
   6   -220.9687346 -0.175504E-02  0.211E-02    0.01       1.0  T
   7   -220.9686077  0.126993E-03  0.314E-02    0.01       1.0  T
   8   -220.9688179 -0.210282E-03  0.793E-03    0.01       1.2  T
   9   -220.9688274 -0.946824E-05  0.332E-03    0.01       2.8  T
  10   -220.9688280 -0.629686E-06  0.259E-03    0.01       3.6  T
  11   -220.9688295 -0.151221E-05  0.974E-04    0.01       9.6  T
  12   -220.9688295  0.348741E-07  0.837E-04    0.01      11.1  T
  13   -220.9688297 -0.178527E-06  0.274E-04    0.01      34.0  T
     SCC iter.                  ...        0 min,  0.963 sec
     gradient                   ...        0 min,  0.045 sec
[...]
     Phys. Chem. Chem. Phys., 2023, 25, 17860-17868. DOI: 10.1039/D3CP02178E
   
   for DIPRO refer to:
   * J. Kohn, N. Gildemeister, S. Grimme, D. Fazzi, A. Hansen,
     J. Chem. Phys., 2023, just accepted.
   
   for PTB refer to:
   * S. Grimme, M. Mueller, A. Hansen, J. Chem. Phys., 2023, 158, 124111.
     DOI: 10.1063/5.0137838
   
   with help from (in alphabetical order)
   P. Atkinson, C. Bannwarth, F. Bohle, G. Brandenburg, E. Caldeweyher
   M. Checinski, S. Dohm, S. Ehlert, S. Ehrlich, I. Gerasimov, C. Hölzer
   A. Katbashev, J. Kohn, J. Koopman, C. Lavigne, S. Lehtola, F. März, M. Müller,
   F. Musil, H. Neugebauer, J. Pisarek, C. Plett, P. Pracht, F. Pultar,
   J. Seibert, P. Shushkov, S. Spicher, M. Stahn, M. Steiner, T. Strunk,
   J. Stückrath, T. Rose, and J. Unsleber
   
 * started run on 2025/03/06 at 14:31:20.969     
   ID    Z sym.   atoms
    1    6 C      1-9, 11, 12, 14-21, 26-34, 36, 37, 39-46, 54, 56, 60, 63,
                  66, 69, 71, 72, 74, 75, 116-124, 126, 127, 129-136,
                  141-149, 151, 152, 154-161, 169, 171, 175, 178, 181, 184,
                  186, 187, 189, 190
    2    7 N      10, 13, 35, 38, 70, 73, 125, 128, 150, 153, 185, 188
    3    8 O      22, 47, 52, 53, 55, 57-59, 61, 62, 64, 65, 67, 68, 137,
                  162, 167, 168, 170, 172-174, 176, 177, 179, 180, 182, 183
    4   16 S      23-25, 48-50, 138-140, 163-165
    5    5 B      51, 166
    6    1 H      76-115, 191-230

           -------------------------------------------------
          |                Calculation Setup                |
           -------------------------------------------------

          program call               : xtb opt_dimer.mol --dipro 0.3 --chrg 0 --uhf 2 --gfn 2
          coordinate file            : opt_dimer.mol
          omp threads                :                     8


molecular fragmentation (1/2 indicates fragments):
111111111111111111111111111111111111111111111111111111111111111111111111
111111111111111111111111111111111111111111122222222222222222222222222222
222222222222222222222222222222222222222222222222222222222222222222222222
22222222222222
# atoms in fragment 1/2:   115   115
 fragment masses (1/2) :     1128.06     1128.06
CMA distance (Bohr)    :  11.253
constraining FC (au)   :  0.0500

           -------------------------------------------------
          |                 G F N 2 - x T B                 |
           -------------------------------------------------

        Reference                      10.1021/acs.jctc.8b01176
      * Hamiltonian:
        H0-scaling (s, p, d)           1.850000    2.230000    2.230000
        zeta-weighting                 0.500000
      * Dispersion:
        s8                             2.700000
        a1                             0.520000
        a2                             5.000000
        s9                             5.000000
      * Repulsion:
        kExp                           1.500000    1.000000
        rExp                           1.000000
      * Coulomb:
        alpha                          2.000000
        third order                    shell-resolved
        anisotropic                    true
        a3                             3.000000
        a5                             4.000000
        cn-shift                       1.200000
        cn-exp                         4.000000
        max-rad                        5.000000

q/qsh data taken from xtbrestart
CAMM data taken from xtbrestart
           -------------------------------------------------
          |                    D I P R O                    |
           -------------------------------------------------
Calculation for dimer 
--------------------- 
  
charge of dimer :   0.
unpaired e- of dimer :  2
repulsion energy          5.0746691942220E+00 Eh
dispersion energy         4.4720586887718E-02 Eh
number of electrons       7.7000000000000E+02 e
integral cutoff           1.9311100799991E+01 bohr

------------------------------------------------------------
  cycle        total energy    energy error   density error
------------------------------------------------------------
      1     -434.8990771999  -4.4001847E+02   2.2946094E-01
      2     -435.7777065559  -8.7862936E-01   1.1471268E-01
      3     -432.8663601510   2.9113464E+00   9.1525825E-02
      4     -432.3407142493   5.2564590E-01   7.7648030E-02
      5     -435.6064220120  -3.2657078E+00   4.5969830E-02
      6     -434.8588246659   7.4759735E-01   4.8609489E-02
      7     -436.4456404963  -1.5868158E+00   3.2920834E-02
      8     -436.5181896865  -7.2549190E-02   2.8703659E-02
      9     -436.4378995890   8.0290097E-02   2.8603514E-02
     10     -436.7744445431  -3.3654495E-01   2.1650652E-02
     11     -436.7638040627   1.0640480E-02   1.9215405E-02
     12     -436.8793971795  -1.1559312E-01   1.2846139E-02
     13     -436.7035933073   1.7580387E-01   1.9000090E-02
     14     -436.9474228197  -2.4382951E-01   8.1287794E-03
     15     -436.9431773820   4.2454378E-03   7.6154969E-03
     16     -436.9493111457  -6.1337637E-03   6.9586236E-03
     17     -436.9669202819  -1.7609136E-02   3.2973638E-03
     18     -436.9617545808   5.1657012E-03   4.6211458E-03
     19     -436.9685082009  -6.7536201E-03   2.6484298E-03
     20     -436.9704657412  -1.9575403E-03   2.1384448E-03
     21     -436.9719939330  -1.5281918E-03   1.3095570E-03
     22     -436.9716850787   3.0885423E-04   1.3421109E-03
     23     -436.9725796034  -8.9452463E-04   6.7895128E-04
     24     -436.9727014660  -1.2186258E-04   4.7062190E-04
     25     -436.9727817943  -8.0328361E-05   3.0756448E-04
     26     -436.9728269569  -4.5162536E-05   1.3858127E-04
     27     -436.9728281445  -1.1876638E-06   1.1667661E-04
     28     -436.9728318543  -3.7097965E-06   8.9851759E-05
     29     -436.9728371745  -5.3201614E-06   3.2199412E-05
     30     -436.9728376713  -4.9680295E-07   1.6696094E-05
------------------------------------------------------------

electronic energy        -4.4209222745239E+02 Eh
total energy             -4.3697283767128E+02 Eh

 total:                                  35.304 sec
 - repulsion                              0.000 sec (  0%)
 - dispersion                             0.022 sec (  0%)
 - coulomb                                0.006 sec (  0%)
 - hamiltonian                            0.025 sec (  0%)
 - scc                                   35.251 sec ( 99%)

Found 2 fragments!
Fragment 1:  1-115
Fragment 2:  116-230

[Info] Fragment spin read from .UHFfrag
Calculation for fragment 1
 ------------------------------
   
charge of fragment :   0.
unpaired e- of fragment :  1
------------------------------------------------------------
  cycle        total energy    energy error   density error
------------------------------------------------------------
      1     -217.3871601105  -2.1993255E+02   2.2832594E-01
      2     -217.8100525579  -4.2289245E-01   1.1388377E-01
      3     -217.3003382459   5.0971431E-01   8.5668016E-02
      4     -217.9437161827  -6.4337794E-01   5.2587654E-02
      5     -217.8226032916   1.2111289E-01   4.5343677E-02
      6     -217.8635505113  -4.0947220E-02   4.1029906E-02
      7     -218.0558439412  -1.9229343E-01   3.7507724E-02
      8     -218.3789313003  -3.2308736E-01   2.0652600E-02
      9     -218.4143102737  -3.5378973E-02   1.2377204E-02
     10     -218.3765477532   3.7762520E-02   1.4874920E-02
     11     -218.4213274482  -4.4779695E-02   9.1290849E-03
     12     -218.3364747986   8.4852650E-02   2.0007432E-02
     13     -218.4196725145  -8.3197716E-02   8.4531681E-03
     14     -218.4261542728  -6.4817583E-03   6.4337956E-03
     15     -218.4317408643  -5.5865915E-03   3.8867290E-03
     16     -218.4330112852  -1.2704210E-03   3.1584453E-03
     17     -218.4347266290  -1.7153438E-03   1.3627242E-03
     18     -218.4350867630  -3.6013396E-04   5.0309205E-04
     19     -218.4351064738  -1.9710837E-05   4.6172089E-04
     20     -218.4351326231  -2.6149299E-05   3.2567011E-04
     21     -218.4351496501  -1.7027021E-05   1.6968242E-04
     22     -218.4351553371  -5.6870243E-06   3.8693501E-05
     23     -218.4351553303   6.8709483E-09   3.9557409E-05
     24     -218.4351557477  -4.1747026E-07   1.1291126E-05
------------------------------------------------------------

 total:                                   8.736 sec
Calculation for fragment 2
 ------------------------------
   
charge of fragment :   0.
unpaired e- of fragment :  1
------------------------------------------------------------
  cycle        total energy    energy error   density error
------------------------------------------------------------
      1     -217.4202237810  -2.1996261E+02   2.3123407E-01
      2     -217.9471544116  -5.2693063E-01   1.1442607E-01
      3     -217.2590975854   6.8805683E-01   8.7336382E-02
      4     -217.9222223021  -6.6312472E-01   5.2891582E-02
      5     -217.9348380533  -1.2615751E-02   4.2005452E-02
      6     -218.0065137009  -7.1675648E-02   3.6930352E-02
      7     -218.2248388207  -2.1832512E-01   3.0418947E-02
      8     -218.4075273446  -1.8268852E-01   1.7136997E-02
      9     -218.4270672546  -1.9539910E-02   1.2441748E-02
     10     -218.2931697292   1.3389753E-01   2.4797615E-02
     11     -218.4356100704  -1.4244034E-01   9.8089131E-03
     12     -218.4369301354  -1.3200650E-03   7.8054944E-03
     13     -218.4217615140   1.5168621E-02   9.8297002E-03
     14     -218.4412469489  -1.9485435E-02   6.1472144E-03
     15     -218.4500338293  -8.7868804E-03   2.6247538E-03
     16     -218.4512597907  -1.2259614E-03   1.5857702E-03
     17     -218.4515181761  -2.5838534E-04   9.0115771E-04
     18     -218.4516252212  -1.0704507E-04   3.3797037E-04
     19     -218.4516305946  -5.3734352E-06   2.3934132E-04
     20     -218.4516463641  -1.5769489E-05   5.3248863E-05
     21     -218.4516463570   7.1077011E-09   4.6638307E-05
     22     -218.4516467080  -3.5102065E-07   2.3919161E-05
     23     -218.4516467634  -5.5429069E-08   1.4238521E-05
------------------------------------------------------------

 total:                                   8.149 sec
   
   ::::::::::::::::::::::::::::::::::::::::::::::
   ::     D I P R O      C O U P L I N G S     ::
   ::::::::::::::::::::::::::::::::::::::::::::::
   
energy threshhold for near-degenerate orbitals near HOMO and LUMO considered for DIPRO:  0.300 eV
no. of orbitals within energy window of frag 1         6
no. of orbitals within energy window of frag 2         6
   
  Fragment 1 SOMO-3  Fragment 2 SOMO-3
--------------------------------------
E_mon(orb) frag1 frag2             -10.448   -10.467 eV
J(AB):               -0.018 eV
S(AB):             0.00080011 Eh
|J(AB,eff)|:            0.009 eV
   
  Fragment 1 SOMO-3  Fragment 2 SOMO-2
--------------------------------------
E_mon(orb) frag1 frag2             -10.448   -10.464 eV
J(AB):               -0.035 eV
S(AB):             0.00171729 Eh
|J(AB,eff)|:            0.017 eV
   
  Fragment 1 SOMO-3  Fragment 2 SOMO-1
--------------------------------------
E_mon(orb) frag1 frag2             -10.448   -10.332 eV
J(AB):                0.008 eV
S(AB):            -0.00023965 Eh
|J(AB,eff)|:            0.005 eV
   
  Fragment 1 SOMO-3  Fragment 2 SOMO 
--------------------------------------
E_mon(orb) frag1 frag2             -10.448   -10.151 eV
J(AB):               -0.006 eV
S(AB):             0.00012075 Eh
|J(AB,eff)|:            0.005 eV
   
  Fragment 1 SOMO-3  Fragment 2 LUMO 
--------------------------------------
E_mon(orb) frag1 frag2             -10.448   -10.087 eV
J(AB):               -0.023 eV
S(AB):             0.00117699 Eh
|J(AB,eff)|:            0.011 eV
   
  Fragment 1 SOMO-3  Fragment 2 LUMO+1
--------------------------------------
E_mon(orb) frag1 frag2             -10.448   -10.055 eV
J(AB):                0.022 eV
S(AB):            -0.00108104 Eh
|J(AB,eff)|:            0.011 eV
   
  Fragment 1 SOMO-2  Fragment 2 SOMO-3
--------------------------------------
E_mon(orb) frag1 frag2             -10.416   -10.467 eV
J(AB):                0.005 eV
S(AB):            -0.00024461 Eh
|J(AB,eff)|:            0.003 eV
   
  Fragment 1 SOMO-2  Fragment 2 SOMO-2
--------------------------------------
E_mon(orb) frag1 frag2             -10.416   -10.464 eV
J(AB):                0.008 eV
S(AB):            -0.00039523 Eh
|J(AB,eff)|:            0.004 eV
   
  Fragment 1 SOMO-2  Fragment 2 SOMO-1
--------------------------------------
E_mon(orb) frag1 frag2             -10.416   -10.332 eV
J(AB):               -0.003 eV
S(AB):             0.00009945 Eh
|J(AB,eff)|:            0.002 eV
   
  Fragment 1 SOMO-2  Fragment 2 SOMO 
--------------------------------------
E_mon(orb) frag1 frag2             -10.416   -10.151 eV
J(AB):                0.013 eV
S(AB):            -0.00058473 Eh
|J(AB,eff)|:            0.007 eV
   
  Fragment 1 SOMO-2  Fragment 2 LUMO 
--------------------------------------
E_mon(orb) frag1 frag2             -10.416   -10.087 eV
J(AB):                0.018 eV
S(AB):            -0.00083505 Eh
|J(AB,eff)|:            0.009 eV
   
  Fragment 1 SOMO-2  Fragment 2 LUMO+1
--------------------------------------
E_mon(orb) frag1 frag2             -10.416   -10.055 eV
J(AB):               -0.017 eV
S(AB):             0.00077703 Eh
|J(AB,eff)|:            0.009 eV
   
  Fragment 1 SOMO-1  Fragment 2 SOMO-3
--------------------------------------
E_mon(orb) frag1 frag2             -10.334   -10.467 eV
J(AB):                0.006 eV
S(AB):            -0.00026995 Eh
|J(AB,eff)|:            0.004 eV
   
  Fragment 1 SOMO-1  Fragment 2 SOMO-2
--------------------------------------
E_mon(orb) frag1 frag2             -10.334   -10.464 eV
J(AB):                0.011 eV
S(AB):            -0.00053309 Eh
|J(AB,eff)|:            0.005 eV
   
  Fragment 1 SOMO-1  Fragment 2 SOMO-1
--------------------------------------
E_mon(orb) frag1 frag2             -10.334   -10.332 eV
J(AB):               -0.007 eV
S(AB):             0.00021209 Eh
|J(AB,eff)|:            0.004 eV
   
  Fragment 1 SOMO-1  Fragment 2 SOMO 
--------------------------------------
E_mon(orb) frag1 frag2             -10.334   -10.151 eV
J(AB):               -0.016 eV
S(AB):             0.00086250 Eh
|J(AB,eff)|:            0.007 eV
   
  Fragment 1 SOMO-1  Fragment 2 LUMO 
--------------------------------------
E_mon(orb) frag1 frag2             -10.334   -10.087 eV
J(AB):               -0.004 eV
S(AB):             0.00009360 Eh
|J(AB,eff)|:            0.003 eV
   
  Fragment 1 SOMO-1  Fragment 2 LUMO+1
--------------------------------------
E_mon(orb) frag1 frag2             -10.334   -10.055 eV
J(AB):                0.007 eV
S(AB):            -0.00027501 Eh
|J(AB,eff)|:            0.004 eV
   
  Fragment 1 SOMO   Fragment 2 SOMO-3
--------------------------------------
E_mon(orb) frag1 frag2             -10.163   -10.467 eV
J(AB):                0.016 eV
S(AB):            -0.00067453 Eh
|J(AB,eff)|:            0.009 eV
   
  Fragment 1 SOMO   Fragment 2 SOMO-2
--------------------------------------
E_mon(orb) frag1 frag2             -10.163   -10.464 eV
J(AB):                0.033 eV
S(AB):            -0.00148450 Eh
|J(AB,eff)|:            0.018 eV
   
  Fragment 1 SOMO   Fragment 2 SOMO-1
--------------------------------------
E_mon(orb) frag1 frag2             -10.163   -10.332 eV
J(AB):               -0.004 eV
S(AB):             0.00010463 Eh
|J(AB,eff)|:            0.003 eV
   
  Fragment 1 SOMO   Fragment 2 SOMO 
--------------------------------------
E_mon(orb) frag1 frag2             -10.163   -10.151 eV
J(AB):               -0.026 eV
S(AB):             0.00111719 Eh
|J(AB,eff)|:            0.014 eV
   
  Fragment 1 SOMO   Fragment 2 LUMO 
--------------------------------------
E_mon(orb) frag1 frag2             -10.163   -10.087 eV
J(AB):               -0.017 eV
S(AB):             0.00053814 Eh
|J(AB,eff)|:            0.011 eV
   
  Fragment 1 SOMO   Fragment 2 LUMO+1
--------------------------------------
E_mon(orb) frag1 frag2             -10.163   -10.055 eV
J(AB):                0.018 eV
S(AB):            -0.00060653 Eh
|J(AB,eff)|:            0.011 eV
   
  Fragment 1 LUMO   Fragment 2 SOMO-3
--------------------------------------
E_mon(orb) frag1 frag2             -10.084   -10.467 eV
J(AB):               -0.014 eV
S(AB):             0.00068071 Eh
|J(AB,eff)|:            0.007 eV
   
  Fragment 1 LUMO   Fragment 2 SOMO-2
--------------------------------------
E_mon(orb) frag1 frag2             -10.084   -10.464 eV
J(AB):               -0.004 eV
S(AB):             0.00027060 Eh
|J(AB,eff)|:            0.001 eV
   
  Fragment 1 LUMO   Fragment 2 SOMO-1
--------------------------------------
E_mon(orb) frag1 frag2             -10.084   -10.332 eV
J(AB):                0.019 eV
S(AB):            -0.00080154 Eh
|J(AB,eff)|:            0.010 eV
   
  Fragment 1 LUMO   Fragment 2 SOMO 
--------------------------------------
E_mon(orb) frag1 frag2             -10.084   -10.151 eV
J(AB):               -0.029 eV
S(AB):             0.00117883 Eh
|J(AB,eff)|:            0.017 eV
   
  Fragment 1 LUMO   Fragment 2 LUMO 
--------------------------------------
E_mon(orb) frag1 frag2             -10.084   -10.087 eV
J(AB):               -0.046 eV
S(AB):             0.00217507 Eh
|J(AB,eff)|:            0.024 eV
   
  Fragment 1 LUMO   Fragment 2 LUMO+1
--------------------------------------
E_mon(orb) frag1 frag2             -10.084   -10.055 eV
J(AB):                0.037 eV
S(AB):            -0.00171322 Eh
|J(AB,eff)|:            0.020 eV
   
  Fragment 1 LUMO+1  Fragment 2 SOMO-3
--------------------------------------
E_mon(orb) frag1 frag2             -10.039   -10.467 eV
J(AB):                0.002 eV
S(AB):            -0.00010605 Eh
|J(AB,eff)|:            0.001 eV
   
  Fragment 1 LUMO+1  Fragment 2 SOMO-2
--------------------------------------
E_mon(orb) frag1 frag2             -10.039   -10.464 eV
J(AB):               -0.001 eV
S(AB):            -0.00005794 Eh
|J(AB,eff)|:            0.002 eV
   
  Fragment 1 LUMO+1  Fragment 2 SOMO-1
--------------------------------------
E_mon(orb) frag1 frag2             -10.039   -10.332 eV
J(AB):               -0.006 eV
S(AB):             0.00021118 Eh
|J(AB,eff)|:            0.004 eV
   
  Fragment 1 LUMO+1  Fragment 2 SOMO 
--------------------------------------
E_mon(orb) frag1 frag2             -10.039   -10.151 eV
J(AB):                0.049 eV
S(AB):            -0.00207830 Eh
|J(AB,eff)|:            0.028 eV
   
  Fragment 1 LUMO+1  Fragment 2 LUMO 
--------------------------------------
E_mon(orb) frag1 frag2             -10.039   -10.087 eV
J(AB):                0.030 eV
S(AB):            -0.00137294 Eh
|J(AB,eff)|:            0.017 eV
   
  Fragment 1 LUMO+1  Fragment 2 LUMO+1
--------------------------------------
E_mon(orb) frag1 frag2             -10.039   -10.055 eV
J(AB):               -0.036 eV
S(AB):             0.00162334 Eh
|J(AB,eff)|:            0.020 eV
   
..............................................................................
:  total |J(AB,eff)| for hole transport (occ. MOs) :               0.035 eV  :
:  total |J(AB,eff)| for charge transport (unocc. MOs) :           0.040 eV  :
:  total |J(AB,eff)| for charge transfer (CT) :                    0.044 eV  :
..............................................................................
  
 Please remember, DIPRO is not available for restart!
   
normal termination of dipro
----------------------------------------------------------
 * finished run on 2025/03/06 at 14:32:13.244     
----------------------------------------------------------
 dipro:
 * wall-time:     0 d,  0 h,  0 min, 52.263 sec
 *  cpu-time:     0 d,  0 h,  3 min, 51.955 sec
 * ratio c/w:     4.438 speedup
Reorganization energy (electron): 0.13359683833324415 eV
Reorganization energy (hole): 0.18048154789795154 eV
Electron Transfer integral J: 0.04 eV
Hole Transfer integral J: 0.035 eV
