156
 energy: -260.471400411877 gnorm: 0.292697528449 xtb: 6.7.1 (edcfbbe)
C           -0.68170000000000        2.56310000000000       -2.28500000000000
C            2.33730000000000       -2.73140000000000        2.01870000000000
C           -4.49690000000000       -0.52920000000000       -0.94130000000000
C           -3.38230000000000       -1.06190000000000       -0.30220000000000
C           -2.15870000000000       -0.30520000000000       -0.32580000000000
C           -2.03110000000000        0.76800000000000       -1.24690000000000
C           -3.18050000000000        1.23770000000000       -1.87900000000000
C           -4.39610000000000        0.62950000000000       -1.68970000000000
C           -1.02030000000000       -0.64600000000000        0.48660000000000
C            0.26460000000000       -0.32490000000000       -0.02810000000000
C            0.38900000000000        0.63980000000000       -1.06870000000000
N           -0.76370000000000        1.29250000000000       -1.53360000000000
C           -1.10130000000000       -1.20650000000000        1.80790000000000
C            0.07320000000000       -1.77800000000000        2.36500000000000
N            1.26900000000000       -1.78700000000000        1.62920000000000
C            1.42240000000000       -0.94430000000000        0.51990000000000
C            2.66580000000000       -0.63220000000000       -0.02210000000000
C            2.77900000000000        0.30730000000000       -1.02500000000000
C            1.66430000000000        0.93610000000000       -1.53650000000000
C           -2.27410000000000       -1.08430000000000        2.63140000000000
C           -2.25410000000000       -1.64580000000000        3.90380000000000
C           -1.09680000000000       -2.18050000000000        4.43020000000000
C            0.04300000000000       -2.25960000000000        3.67260000000000
O           -3.35460000000000       -0.31300000000000        2.20080000000000
O           -3.36950000000000       -2.31140000000000        0.30970000000000
S           -5.86340000000000        1.37030000000000       -2.43900000000000
S           -1.02250000000000       -2.68770000000000        6.15950000000000
S            4.42550000000000        0.76060000000000       -1.61880000000000
O            4.04070000000000        2.07020000000000       -2.36150000000000
O            4.52210000000000       -0.33320000000000       -2.89460000000000
C            3.66750000000000       -0.02590000000000       -3.94540000000000
O           -5.19040000000000        2.60930000000000       -3.09710000000000
O           -6.48290000000000        2.04370000000000       -1.02520000000000
C           -5.74320000000000        3.13840000000000       -0.59310000000000
O           -2.46540000000000       -3.23600000000000        6.33640000000000
O           -0.14180000000000       -4.09700000000000        5.92080000000000
C           -0.89450000000000       -5.06990000000000        5.27450000000000
H           -5.45280000000000       -1.01350000000000       -0.86880000000000
H           -3.14690000000000        2.09470000000000       -2.52540000000000
H           -3.11480000000000       -1.58620000000000        4.54190000000000
H            0.93230000000000       -2.64650000000000        4.13280000000000
H            3.57100000000000       -1.02950000000000        0.39940000000000
H            1.81950000000000        1.66970000000000       -2.30360000000000
C            1.88930000000000       -4.17900000000000        1.86970000000000
C            2.95590000000000       -5.18010000000000        2.27770000000000
C           -1.16750000000000        3.74360000000000       -1.45310000000000
C           -1.23570000000000        5.03880000000000       -2.24260000000000
C           -4.58570000000000       -0.60610000000000        2.82290000000000
C           -4.55380000000000       -3.05690000000000        0.16600000000000
H           -6.22970000000000        3.57630000000000        0.28270000000000
H           -5.70000000000000        3.87480000000000       -1.40130000000000
H           -4.73040000000000        2.82220000000000       -0.33100000000000
H           -0.30660000000000       -5.98840000000000        5.19710000000000
H           -1.17090000000000       -4.72380000000000        4.27490000000000
H           -1.80010000000000       -5.25780000000000        5.85950000000000
H            3.91280000000000       -0.66520000000000       -4.79750000000000
H            3.80560000000000        1.02400000000000       -4.22060000000000
H            2.63230000000000       -0.20450000000000       -3.64540000000000
H            2.64280000000000       -2.51280000000000        3.04380000000000
H            3.22710000000000       -2.56660000000000        1.41030000000000
H            1.58570000000000       -4.34750000000000        0.82850000000000
H            0.97610000000000       -4.34060000000000        2.45520000000000
H            3.86060000000000       -5.05620000000000        1.68080000000000
H            2.61840000000000       -6.21060000000000        2.15170000000000
H            3.23580000000000       -5.05450000000000        3.32440000000000
H           -5.38620000000000       -0.16560000000000        2.22740000000000
H           -4.61520000000000       -0.17940000000000        3.82400000000000
H           -4.72700000000000       -1.68640000000000        2.86750000000000
H           -4.40930000000000       -4.02750000000000        0.64150000000000
H           -4.76970000000000       -3.20770000000000       -0.89240000000000
H           -5.38110000000000       -2.54320000000000        0.65600000000000
H           -1.58430000000000        5.87170000000000       -1.62910000000000
H           -1.91840000000000        4.94700000000000       -3.08890000000000
H           -0.25760000000000        5.30900000000000       -2.64330000000000
H           -0.51670000000000        3.86090000000000       -0.57830000000000
H           -2.15050000000000        3.51170000000000       -1.02420000000000
H           -1.26610000000000        2.46260000000000       -3.20310000000000
H            0.33790000000000        2.74790000000000       -2.62290000000000
C            1.68920000000000        2.22750000000000        1.57890000000000
C            3.42080000000000       -2.43560000000000        7.07480000000000
C           -2.53490000000000        1.72960000000000        4.37710000000000
C           -1.55210000000000        1.12190000000000        5.14890000000000
C           -0.17890000000000        1.22830000000000        4.72900000000000
C            0.11180000000000        1.78340000000000        3.45270000000000
C           -0.92960000000000        2.34890000000000        2.71590000000000
C           -2.22580000000000        2.30020000000000        3.15960000000000
C            0.89250000000000        0.63860000000000        5.48360000000000
C            2.07970000000000        0.27880000000000        4.80010000000000
C            2.35970000000000        0.84250000000000        3.52480000000000
N            1.39560000000000        1.64700000000000        2.90490000000000
C            0.80260000000000        0.29310000000000        6.87820000000000
C            1.55160000000000       -0.82030000000000        7.35290000000000
N            2.63630000000000       -1.28110000000000        6.59490000000000
C            2.98070000000000       -0.65540000000000        5.38880000000000
C            4.15430000000000       -0.95620000000000        4.70670000000000
C            4.45110000000000       -0.35990000000000        3.50140000000000
C            3.57800000000000        0.53680000000000        2.92430000000000
C            0.00810000000000        1.04650000000000        7.81160000000000
C           -0.28400000000000        0.45840000000000        9.03590000000000
C            0.25950000000000       -0.76300000000000        9.38490000000000
C            1.19700000000000       -1.37510000000000        8.58530000000000
O           -0.39790000000000        2.32670000000000        7.45190000000000
O           -1.87310000000000        0.30560000000000        6.23170000000000
S           -3.55290000000000        2.88310000000000        2.08350000000000
S           -0.27380000000000       -1.58060000000000       10.90240000000000
S            5.97570000000000       -0.75860000000000        2.61620000000000
O            5.31980000000000       -1.49130000000000        1.40520000000000
O            6.44270000000000       -2.03870000000000        3.61190000000000
C            6.00220000000000       -3.26870000000000        3.14220000000000
O           -2.72220000000000        3.75480000000000        1.10350000000000
O           -4.17810000000000        4.04740000000000        3.11640000000000
C           -3.27750000000000        5.08040000000000        3.34480000000000
O           -1.66930000000000       -0.91050000000000       11.05080000000000
O           -0.67610000000000       -3.04910000000000       10.18620000000000
C           -1.84160000000000       -2.96460000000000        9.43370000000000
H           -3.56560000000000        1.68910000000000        4.67480000000000
H           -0.75860000000000        2.80480000000000        1.76010000000000
H           -0.97330000000000        0.91950000000000        9.71860000000000
H            1.60360000000000       -2.31600000000000        8.90680000000000
H            4.85860000000000       -1.66260000000000        5.10020000000000
H            3.86580000000000        0.98240000000000        1.99120000000000
C            2.92190000000000       -3.73690000000000        6.46640000000000
C            3.71150000000000       -4.95020000000000        6.92470000000000
C            2.26580000000000        3.62960000000000        1.65690000000000
C            2.68140000000000        4.16150000000000        0.29350000000000
C           -1.12350000000000        3.01690000000000        8.43940000000000
C           -3.18490000000000        0.42860000000000        6.73030000000000
H           -3.76810000000000        5.85460000000000        3.94100000000000
H           -2.96680000000000        5.49660000000000        2.38160000000000
H           -2.40510000000000        4.70100000000000        3.88370000000000
H           -2.03730000000000       -3.93280000000000        8.96320000000000
H           -1.73030000000000       -2.19990000000000        8.66050000000000
H           -2.66790000000000       -2.69310000000000       10.09790000000000
H            6.40270000000000       -4.06430000000000        3.77590000000000
H            6.35110000000000       -3.39840000000000        2.11350000000000
H            4.91140000000000       -3.29230000000000        3.16240000000000
H            3.38500000000000       -2.47690000000000        8.16520000000000
H            4.47830000000000       -2.28080000000000        6.85320000000000
H            2.95210000000000       -3.65320000000000        5.37340000000000
H            1.85870000000000       -3.85990000000000        6.70850000000000
H            4.76520000000000       -4.85880000000000        6.65690000000000
H            3.33650000000000       -5.87350000000000        6.47890000000000
H            3.66220000000000       -5.06520000000000        8.00840000000000
H           -1.36910000000000        4.00800000000000        8.05650000000000
H           -0.51580000000000        3.12260000000000        9.33900000000000
H           -2.04840000000000        2.48410000000000        8.66210000000000
H           -3.24040000000000       -0.10850000000000        7.67810000000000
H           -3.89590000000000       -0.01490000000000        6.03460000000000
H           -3.42030000000000        1.47930000000000        6.90150000000000
H            3.10500000000000        5.16530000000000        0.35630000000000
H            1.83270000000000        4.20530000000000       -0.38950000000000
H            3.42910000000000        3.51770000000000       -0.17310000000000
H            3.12360000000000        3.62420000000000        2.34120000000000
H            1.53190000000000        4.29690000000000        2.12610000000000
H            0.79420000000000        2.20780000000000        0.95600000000000
H            2.37930000000000        1.57260000000000        1.04990000000000
156
 energy: -260.524230003311 gnorm: 0.188719467856 xtb: 6.7.1 (edcfbbe)
C           -0.68530119686935        2.55230251321791       -2.27957302583060
C            2.32540602397570       -2.72633257034028        2.01559843072776
C           -4.49275278172676       -0.53519612110326       -0.94393845503851
C           -3.37765692584492       -1.05299726401551       -0.30306647307744
C           -2.15460042121446       -0.31443827051452       -0.33208861374419
C           -2.02058619146194        0.75833720501405       -1.25039877928002
C           -3.16488662483808        1.23627039743433       -1.88437741768268
C           -4.38206445664856        0.62817183889776       -1.68773001108887
C           -1.02655290885868       -0.64774085078297        0.48780258382349
C            0.25930006242766       -0.32416514495201       -0.02379729605095
C            0.38004786199314        0.64150726745402       -1.06265861712644
N           -0.76348324802459        1.29285489296553       -1.52411715405830
C           -1.10068297678040       -1.19650341871415        1.80786984495509
C            0.07866227847044       -1.76515082569871        2.36108543037237
N            1.26295286259357       -1.79247642783400        1.62082686900926
C            1.41544719336126       -0.94419701333054        0.52526939546985
C            2.66233348995875       -0.63309038145408       -0.00993029436616
C            2.76394820348661        0.30172642225085       -1.02456006094942
C            1.65140122629345        0.93562351186818       -1.54084413112317
C           -2.26246473404659       -1.08166975536862        2.63201105599520
C           -2.25041612080332       -1.63184268177268        3.90352254908670
C           -1.09469140954220       -2.17793354929705        4.42064816660369
C            0.05814925230586       -2.24315651195768        3.66933269256442
O           -3.34121539716233       -0.33286057461826        2.19304913022350
O           -3.36914708934613       -2.28955576960853        0.30856433881503
S           -5.84062561856030        1.39144905698899       -2.43579936101292
S           -1.05213361639021       -2.69209646575394        6.14831352166716
S            4.40079088961870        0.77255969144650       -1.63530721425635
O            4.08069959427980        2.08173406266662       -2.33035187279723
O            4.51864366915248       -0.33572739991798       -2.89134197066250
C            3.66726872654600       -0.03399775028331       -3.95463512478199
O           -5.22504489022775        2.58322263026653       -3.14086978774513
O           -6.47947910161235        2.03890145051210       -1.02146775004084
C           -5.74483845911028        3.14484843207959       -0.58432153357286
O           -2.46403379548954       -3.19679791869367        6.35896265037784
O           -0.15090887415778       -4.09070299419146        5.91860523429954
C           -0.89441775385381       -5.07998513261702        5.27188928736382
H           -5.45438608803053       -1.01577930270072       -0.87339519574000
H           -3.14337463111862        2.09542253512401       -2.53060580922511
H           -3.11578446349759       -1.59560723522411        4.54139596802812
H            0.94193310459535       -2.64667031798983        4.13060033337593
H            3.57275093948264       -1.03948640170362        0.39505649719980
H            1.81765477561079        1.67564389612530       -2.30342690038914
C            1.87780492535008       -4.18026684725100        1.86634946380401
C            2.95570144179571       -5.17460400249939        2.27697900950065
C           -1.16971427682068        3.73931564605708       -1.44696125102764
C           -1.23160336861618        5.03178259323179       -2.24763220490347
C           -4.57755540421602       -0.60880350898297        2.81814494212090
C           -4.54783837932359       -3.04940714967212        0.16680703497325
H           -6.24119101336447        3.57127174080902        0.28546002995156
H           -5.69505104053381        3.88494132574170       -1.38829546332376
H           -4.72866214647458        2.83968423908000       -0.31866234707889
H           -0.29488474008862       -5.98709605002688        5.20467750427317
H           -1.17310352867514       -4.74085094439563        4.26939356535343
H           -1.80451211044094       -5.27194583061158        5.84697157527667
H            3.92559692335090       -0.67278709905365       -4.79761879370193
H            3.79550246255088        1.01779216667146       -4.23085186045285
H            2.62704295397838       -0.21051406700720       -3.66383879491212
H            2.62863692730122       -2.51291982649736        3.04565106482514
H            3.21008943674822       -2.56290022524339        1.40118047096774
H            1.59281137780032       -4.34954568382315        0.82329507832052
H            0.97590573937734       -4.34611201752206        2.46250461474495
H            3.85665628072430       -5.04974202015703        1.67751415426296
H            2.61098608892534       -6.19992389891513        2.14832418480720
H            3.22953858533174       -5.05033260668557        3.32439548114370
H           -5.36713198880426       -0.15897821480785        2.21442717354912
H           -4.62084596480562       -0.17932380088206        3.82168632077998
H           -4.73726622389105       -1.68770769938714        2.87618200294933
H           -4.38602291727834       -4.01563476870916        0.64555243458547
H           -4.77478707571540       -3.21193183271867       -0.89094372542830
H           -5.39049261041482       -2.55258007751766        0.65452685002167
H           -1.58096377954993        5.85476937791379       -1.62541183731183
H           -1.91965855992611        4.93834743987366       -3.08704075723842
H           -0.25273700837057        5.30272967580307       -2.64328977872711
H           -0.50853365959412        3.86678365506501       -0.58457689630467
H           -2.15393283379842        3.51936732005444       -1.02797375741451
H           -1.27579096419305        2.45682357891887       -3.19604323005667
H            0.33844469873089        2.73604784774329       -2.60515703316605
C            1.68927174498082        2.22526389511430        1.59221769028145
C            3.41469208442503       -2.42477926631473        7.07007421316916
C           -2.53469396840473        1.71567760264791        4.37554578152490
C           -1.54710631461099        1.11893366409675        5.14242829440273
C           -0.18124023378958        1.21253330956191        4.72703079346239
C            0.11325351972049        1.76167122423629        3.44837611347239
C           -0.91937446518087        2.33775855698731        2.71068497860445
C           -2.21479380052990        2.30315668931989        3.16669735921924
C            0.88654335763509        0.63514091479226        5.48684641152087
C            2.07176450182597        0.27355887916980        4.79869029461827
C            2.34987935384772        0.83906630573431        3.52349332237449
N            1.39609866776703        1.64599682911551        2.90942136798586
C            0.80760778474531        0.29982504271016        6.87912137160599
C            1.55877936544462       -0.81058585582290        7.35087666897590
N            2.62957546025191       -1.28094884982150        6.59207676609741
C            2.96997706738117       -0.65752596246858        5.39128324126308
C            4.14871324680793       -0.95644514195760        4.71874771344232
C            4.44466953361241       -0.34690481961844        3.51602836830235
C            3.57424369617570        0.54948163985920        2.92655461892709
C            0.00924990276260        1.03625743598391        7.80599128450695
C           -0.27850546256262        0.46562501251877        9.03459462739332
C            0.26200594794711       -0.75875597148533        9.37432739279929
C            1.20780163358246       -1.37403033174593        8.57844410907382
O           -0.39838430630448        2.30195617188631        7.44928889956787
O           -1.85951125878201        0.32438109357823        6.22850569520335
S           -3.53203479831724        2.89723905614886        2.08470022955203
S           -0.30087322809934       -1.57027236172394       10.88836605636902
S            5.95232633413724       -0.77072435682882        2.61101623580335
O            5.34712600814018       -1.45465189451321        1.39432319703546
O            6.46054826532123       -2.03687179237924        3.59775739727789
C            6.00805428513097       -3.27766344655610        3.14155782917575
O           -2.75008182367088        3.71854988558021        1.08180017405142
O           -4.17568292490515        4.04182298795652        3.12532109639536
C           -3.27989381606653        5.08919732886410        3.35221412898429
O           -1.64299419701130       -0.89831637478623       11.09424504019674
O           -0.67296999900192       -3.04791998659694       10.18588334305161
C           -1.84692995254629       -2.97100889660348        9.43154101711868
H           -3.56816248331533        1.69094640181581        4.67628221348881
H           -0.75679898121558        2.80779718394844        1.75812858234019
H           -0.96894753631397        0.91958545225184        9.72453859574498
H            1.61195986583439       -2.31587616046635        8.90644080346477
H            4.85774746464297       -1.66140183400227        5.11230860228089
H            3.86785492365306        0.98821474916819        1.99021858687244
C            2.91706137777756       -3.73439981104092        6.46277859946082
C            3.71526403080693       -4.94419445670272        6.92676540286287
C            2.26644972262472        3.63447828568287        1.66812771171829
C            2.67880323976567        4.15527965728779        0.29573194323391
C           -1.12024785878013        3.00896880796237        8.43362493609187
C           -3.17535823262725        0.43104613439979        6.72910967224591
H           -3.78080021664890        5.85477444516428        3.94258621123123
H           -2.96205011335602        5.50511369817191        2.39108797805061
H           -2.40152817167804        4.71818115301987        3.89036954351764
H           -2.03023982432209       -3.93809769188348        8.96805607085955
H           -1.74475188392630       -2.21002574431643        8.65252193112781
H           -2.67998378144407       -2.69999647967323       10.08600447529577
H            6.41587807246088       -4.05721060311778        3.78353294622267
H            6.34286323711486       -3.42635379768488        2.11234897335863
H            4.91649235548567       -3.30941936738021        3.16548825076780
H            3.37013469228898       -2.46798861974049        8.15998483652771
H            4.47165971036238       -2.27148730777675        6.83923189168785
H            2.96282685467595       -3.65606964287914        5.37170110356088
H            1.86144130008415       -3.86496809556215        6.71505851699184
H            4.76664717681794       -4.85247279052775        6.65492762805470
H            3.33299247142294       -5.86013233789293        6.47763600908410
H            3.65896963799932       -5.05856611810088        8.00843844805557
H           -1.35550760013215        3.99677709150430        8.03587719878682
H           -0.52081910190250        3.12625401775026        9.34086745036873
H           -2.05315383212918        2.49222161985358        8.67174106077663
H           -3.21719543113897       -0.11290337144449        7.67287779070924
H           -3.89795229916074       -0.01695380425999        6.04235875169837
H           -3.43214064397357        1.47854604388814        6.90510261040534
H            3.09938383857580        5.15732078757951        0.36705573294713
H            1.82720508119895        4.20272690974974       -0.38047878481838
H            3.42616721948050        3.51286027255529       -0.16905388433883
H            3.13152939082871        3.62485651521918        2.33890355123479
H            1.52727041642395        4.30256360187132        2.12112124878407
H            0.79004821604270        2.21449684122457        0.97565385032200
H            2.38467785783188        1.57505395927365        1.06534348063605
156
 energy: -260.552688583866 gnorm: 0.033001473386 xtb: 6.7.1 (edcfbbe)
C           -0.68800483838731        2.53881001206063       -2.27248552506452
C            2.31088264163010       -2.71816741961904        2.01018479881955
C           -4.49387366189035       -0.53726446852958       -0.95032754150565
C           -3.37530814015598       -1.04479765392435       -0.31084678877088
C           -2.15256032688010       -0.32319951546956       -0.34001738596438
C           -2.01157011080693        0.75088757600407       -1.25414755658988
C           -3.15283187905876        1.23938241337701       -1.88718398147926
C           -4.37368443909443        0.63305362286798       -1.68448285372713
C           -1.03377217769325       -0.64834496283560        0.48909934935466
C            0.25582124672238       -0.32139706100470       -0.02035559085025
C            0.37169551103822        0.64428818939608       -1.05742451031226
N           -0.76381786828363        1.29449743744947       -1.51231453531245
C           -1.10050136888265       -1.18326667056931        1.80980937435970
C            0.08519418946597       -1.74879908459879        2.36047989867955
N            1.25533844293003       -1.79865398945778        1.60935350895380
C            1.41029306104625       -0.94125035827652        0.52921840812679
C            2.66176918389218       -0.63247131465367       -0.00245101445501
C            2.75209412238924        0.29443518985285       -1.02880083168763
C            1.64130148903328        0.93461035510513       -1.54644896696913
C           -2.25254542276119       -1.07810445808181        2.63376071965392
C           -2.24773026829529       -1.62403129657444        3.90334606387944
C           -1.09272953245157       -2.18152778104215        4.41155148936861
C            0.07346372051291       -2.22580439064256        3.66835798939456
O           -3.32853810942355       -0.35557383014003        2.18531687481978
O           -3.37169557875046       -2.26597818474644        0.30313674006810
S           -5.82223641997711        1.41956286540515       -2.44947942640186
S           -1.09103306896584       -2.69554255913201        6.14394691891811
S            4.38574523958659        0.79710913478864       -1.65067149539582
O            4.09508378413534        2.06582840192059       -2.29450535280222
O            4.51174981449034       -0.33402356084238       -2.87865015669258
C            3.66520273918184       -0.04231618733585       -3.96056310095431
O           -5.24348511058675        2.54207245771199       -3.15287368964131
O           -6.47063647467610        2.02795088300960       -1.02495943239377
C           -5.74395706044101        3.14840737994386       -0.57631695172044
O           -2.44869763679606       -3.15313051026762        6.36337692215760
O           -0.16247077785082       -4.08064850801240        5.91686499797641
C           -0.89570286286159       -5.08862467986931        5.26825297477954
H           -5.45974622499935       -1.01143451938470       -0.88247284971773
H           -3.14681547438896        2.09660636447712       -2.53698281789776
H           -3.11382041437940       -1.60868934296434        4.54347959449063
H            0.94776172565239       -2.64514593067342        4.13436098974137
H            3.57847606445385       -1.04193347393086        0.38391028341194
H            1.82315739278709        1.67758756290178       -2.30498438858324
C            1.86565884534231       -4.18087915263854        1.86270317703866
C            2.95449218734413       -5.17014767527788        2.27626889076908
C           -1.17065934710829        3.73503969691606       -1.44134724245593
C           -1.22824016032529        5.02599878839229       -2.25309246429658
C           -4.56964454959968       -0.60998100562926        2.81164492603765
C           -4.54126023091454       -3.04330511263029        0.16858343008687
H           -6.25356527557366        3.56323696640877        0.28687624515692
H           -5.69092721010184        3.89321705556778       -1.37610636822886
H           -4.72587527600590        2.85512651483345       -0.30298839085697
H           -0.28296078147570       -5.98361701268920        5.21413454728957
H           -1.17350467933418       -4.75850977112486        4.26109473308132
H           -1.80978619746417       -5.28691689365620        5.83432553436306
H            3.93975260472495       -0.68083472970817       -4.79411773410242
H            3.78468603175030        1.01057147346457       -4.24160517197818
H            2.61983327490221       -0.22020978732893       -3.68291790192117
H            2.61414568524378       -2.51187138438252        3.04394734204751
H            3.19100238574610       -2.56232570721539        1.39070214156319
H            1.59787033584372       -4.35182145499253        0.81963346239030
H            0.97551978002687       -4.35104445447845        2.46770661192184
H            3.85080166555981       -5.04207516010086        1.67430674440513
H            2.60347782172338       -6.19085693181208        2.14484078501391
H            3.22190982467787       -5.04507087833121        3.32373369020465
H           -5.34367835020445       -0.14885623751200        2.19702388472966
H           -4.62370617790800       -0.17670971901596        3.81675410947732
H           -4.74914080722551       -1.68725852311833        2.88351077894945
H           -4.35562946575333       -4.00280863353343        0.65167158280426