116
 energy: -22.928061455056 gnorm: 0.329736929581 xtb: 6.6.1 (8d0f1dd)
C           -3.31122850772930        0.79849766164622       -0.92477639677520
C           -2.44380812530352       -0.12270372891954       -0.27661132624697
C           -1.41337090092821        0.39579727573559        0.56335275196199
C           -0.89266158675590        1.65801491088749        0.27377586709581
C           -1.72665675402493        2.51431363229076       -0.49448366572522
C           -2.95444148494349        2.13954154133227       -1.01494489940871
C           -0.74098268209890       -0.43411532818871        1.49825021926784
C            0.56872586496315        0.03782116815119        1.86248088067890
C            1.03782416582094        1.29402317993033        1.50887470833621
N            0.31238977034758        2.07067427098208        0.65193736800696
C           -1.29695700510141       -1.39996043042223        2.41574187746061
C           -0.38243517664656       -2.18060797534842        3.13232615520648
N            0.91308504082021       -1.90366887689689        3.30325166013478
C            1.37712470144904       -0.74872102533751        2.81811050966982
C            2.52149331701875       -0.17739833758153        3.39379298866852
C            2.95849061756259        1.02681208890480        2.95105897606587
C            2.24288949469137        1.78498308775960        2.03503020483770
C           -2.74860936222260       -1.74497937691422        2.38401158947411
C           -3.09416315450955       -2.91614440870436        3.00571134491758
C           -2.16786021984049       -3.77788778654213        3.63251872101904
C           -0.85708937311598       -3.40495313382985        3.68547234358092
O           -3.71994433332149       -0.94984598373544        1.67726658385724
O           -2.55702603277562       -1.47241711578389       -0.57241635275616
C           -3.84297843593025        3.13357444054366       -1.60938954875544
C           -2.68769581069131       -5.03867041417370        4.30484659386931
H           -1.39666850744143        3.51251503834900       -0.76806311868865
H           -4.27662633836220        0.55105838579656       -1.33106614114542
H            2.66329581305412        2.73912661909249        1.72562431984580
H            3.05775395548473       -0.69369546277216        4.16536137542516
H           -0.24710966264510       -4.12034095424229        4.22946223699121
H           -4.11477991332403       -3.04712728052358        3.03244694615357
O           -4.21824883374556        4.03433712717988       -0.87713382485991
O           -4.44510595673734        2.90643496899600       -2.81853501752979
C           -5.44216520282800        3.83300025693726       -3.02488532025093
C            4.23586651889298        1.50004220933226        3.59165660008449
O            5.05927614697201        0.66079890002952        3.91714215179376
O            4.47001334453535        2.86385149488593        3.72605651435371
C            5.79457498613219        3.08584475587818        4.15829123132174
O           -3.82227255313510       -5.27347675879771        4.16636005494405
O           -1.85023202017753       -5.79767454267276        5.06656077253571
C           -2.55119635829503       -6.86252441382958        5.62930343183426
C           -5.07197156564436       -1.42399175670916        1.58830531863830
C           -1.33089900128490       -2.23622472573986       -0.99264499351172
H           -2.54510546830388       -7.76426885143998        4.99136022291012
H           -3.57194749219491       -6.44405511486021        5.74196173723541
H           -2.09133598235598       -7.02043774843818        6.64022264233588
H            5.72707967266424        3.46798026205549        5.10135971236643
H            6.34060091246885        3.78468702308830        3.50069950143490
H            6.17933064298187        2.03010500085905        4.19342358084693
H           -0.91862729772622       -2.57650129080332       -0.01361370304871
H           -0.49769766914251       -1.60651221708571       -1.34094446550576
H           -1.52632419730509       -2.94569707152159       -1.75361447637286
H           -5.11788846557077       -2.41810833635233        1.17520213188926
H           -5.67929807973498       -0.69619639428435        1.04301666067831
H           -5.57598832326623       -1.42383358739762        2.57928294206544
H           -6.13050215934830        3.76035386975488       -2.23272855695873
H           -5.86615610071888        3.45938329385866       -4.02668959924245
H           -5.13479557532099        4.87790991548477       -2.98314551356402
C           -1.38192942069774        3.73616555005018        2.91232598411686
C           -1.84821468128685        2.59982427735607        3.49755545445181
C           -1.05946531454833        2.05730632010638        4.60922730982276
C            0.19893954712228        2.69376791964407        4.86302140881997
C            0.50425395911860        3.94630308659851        4.28768785650746
C           -0.26031777722226        4.46998310053134        3.25072669343212
C           -1.20488993561782        0.74454293276906        5.14851520323437
C           -0.06287609782692        0.02744069315890        5.60930570802864
C            1.19208754369866        0.71421540266195        5.78882868583885
N            1.19428660993148        2.06344359410476        5.62744624321596
C           -2.41361422770794        0.07928500213936        5.25249410304426
C           -2.45851584031083       -1.32662100968547        5.60237876023992
N           -1.29466212405906       -1.98318595734370        5.89916817085159
C           -0.14475655767527       -1.32117560077092        5.98824682881008
C            0.97209270935794       -1.98958449505532        6.53157704134458
C            2.21982707914082       -1.36973967291181        6.68703967237737
C            2.30561929262884       -0.09745313075593        6.26436900324455
C           -3.73018485967715        0.71367583494582        5.25810242262992
C           -4.89964478833448       -0.06184623426677        5.21204641615509
C           -4.82617965800088       -1.39228978090841        5.46901303780036
C           -3.67144193418464       -1.98914944386360        5.67265433266067
O           -3.75568638935321        2.07705011038914        5.52067969627343
O           -2.94192434743730        1.91263938797883        3.01658762327703
C            0.21273512614467        5.50086066357994        2.34765104514621
C           -6.06660304520411       -2.17604633098929        5.80641622556876
H            1.41756699010566        4.38133362238595        4.66974005703471
H           -1.82880610647429        4.11982501512100        2.06992133318584
H            3.26888037378556        0.32655662585251        6.31721410015598
H            0.87146188387207       -3.08471526305024        6.57830423410869
H           -3.67716811065157       -3.05999292755990        5.83019634570050
H           -5.77379677507622        0.43595144608221        4.71017130754348
O            1.34459852619901        5.82615848916894        2.44941456579099
O           -0.74718748219123        6.07961784856304        1.59848183464284
C           -0.21473095568964        7.24015934882472        1.05753806029483
C            3.53228080814219       -2.00967610361154        7.02506769044485
O            3.64093082622715       -3.14437803815732        7.50071391725347
O            4.56565258381079       -1.22937033368332        6.69086985080897
C            5.72579357310716       -1.80692399125161        7.22246151275881
O           -7.04801223588612       -1.95726935745904        5.14194115322235
O           -6.01514389321278       -2.93743591896022        6.94765316328794
C           -7.21292732384718       -3.62681918543340        7.15115816329978
C           -4.95459780685163        2.65960679932188        5.86868674392943
C           -3.68284113682406        2.59129188358641        2.05479246020704
H           -7.43119628931628       -4.22607794725959        6.20622607140901
H           -8.06548455146707       -2.91765848248592        7.29781126410398
H           -7.07314693247270       -4.33087306029711        7.91223421050944
H            6.57332189837178       -1.29353136199234        6.78341268688262
H            5.74663761932316       -2.84282155125561        6.88089468184451
H            5.69426191474290       -1.72781984964892        8.29460302186842
H           -4.10481209541493        3.44288266176275        2.60483747673152
H           -4.49244774344916        1.87419893016926        1.82433103764650
H           -3.18901540870812        2.85154642679373        1.06781919454921
H           -5.55414326821421        2.76698137191684        4.93950725322359
H           -4.78658370641210        3.62090640967288        6.25983200635257
H           -5.43485580473958        1.97242995129449        6.65265772412460
H            0.89164886030839        7.38838561720231        1.13776105146914
H           -0.62894889903848        8.04195665205089        1.64837664327952
H           -0.59282546386754        7.45699159724320        0.03719083132488
116
 energy: -22.706822918491 gnorm: 0.438528705493 xtb: 6.6.1 (8d0f1dd)
C           -2.30684222925437        0.76601625781877       -2.01909959976153
C           -1.71629573218683       -0.13607481183220       -1.10606515147432
C           -1.06342331363192        0.43213228566900        0.07095916966933
C           -0.55848637621943        1.86828300179870        0.06713703714031
C           -1.05884189913836        2.62408082454878       -1.04730221034746
C           -2.12640015042791        2.11076080716290       -1.82707025166266
C           -0.42205155917506       -0.38032264627321        1.04825389084569
C            0.87266933036616        0.07120716487012        1.46715771382643
C            1.09268408168845        1.50544579488490        1.49560446847506
N            0.39970073823034        2.45895603674241        0.90544750645045
C           -0.83885558023108       -1.57244268710278        1.57517902573737
C            0.00857517039323       -2.35865128626495        2.48335166266027
N            1.22508399231443       -1.88124213721229        2.76561453466644
C            1.73195561484619       -0.70023958015534        2.28155043511550
C            2.95695870621732       -0.09231600720814        2.82561700604034
C            3.04090571654042        1.30239863295992        2.88151608185028
C            2.08017660276767        2.11750306137997        2.22511219321898
C           -2.16363965158982       -2.04803498730085        1.43751467394515
C           -2.42144931213591       -3.23110917772880        2.09070198024360
C           -1.59558180728997       -4.06213873611939        2.79621165656466
C           -0.32499193002391       -3.58036008779530        3.01399495803740
O           -3.10521199865843       -1.25708058261817        0.79880302728015
O           -1.47098101636688       -1.53843306902817       -1.64346121116017
C           -2.67681737146203        3.11544821855274       -2.78982018423330
C           -2.26639514075282       -5.31891967074061        3.22506731684337
H           -0.52198165150156        3.53549483053169       -1.27862975936940
H           -3.23361209943133        0.51873963237276       -2.62028195807510
H            2.16501974358311        3.10494850701502        2.15719229237002
H            3.56995170645759       -0.57909638435828        3.50955035799837
H            0.44304526241135       -4.04488589250349        3.68314827139838
H           -3.39251489093376       -3.61972609611617        2.16833543528369
O           -1.98811977872432        4.13042438728498       -3.01290900469021
O           -3.97979343074112        3.14110890014738       -3.27518777644113
C           -4.52762184875079        4.44432489443063       -3.46029177085369
C            4.09601372834406        2.06498661818928        3.54673377912656
O            4.88157774131328        1.36734883020583        4.08079764091139
O            4.23139290817668        3.47216655698089        3.48640004975062
C            5.50282488802618        3.73027771837887        4.37082365457212
O           -3.42244723331479       -5.46982666678334        2.88486720735639
O           -1.58675134010351       -6.31129219670827        3.85134763060062
C           -2.23163770939165       -7.58220909314525        4.40739176521536
C           -4.25962414656419       -1.92317283385814        0.23120750381669
C           -0.20610243168563       -1.89305640735253       -2.22227171185389
H           -3.27511097214467       -7.52448790234340        4.29076236359124
H           -2.00146452658207       -7.87122857912850        5.44912609206954
H           -1.92890400626291       -8.37575119854527        3.71486243354803
H            5.11006747957033        4.18297979647271        5.39733991430502
H            5.98546142643298        4.63921356156085        4.05118134773615
H            6.22545379519679        2.82494721996361        4.42187234688775
H           -0.42750139431779       -2.65233647352734       -2.94630756803701
H            0.58403948240982       -1.98449645932643       -1.50798736825849
H            0.26075618233434       -1.17419983840511       -2.97006308914216
H           -4.07667102983724       -2.24329632404587       -0.79178419101752
H           -5.12975544120206       -1.18273992618182        0.28226163801405
H           -4.49368430507479       -2.80341000746546        0.80346084566314
H           -3.67432967947607        5.15847217744138       -3.14419287602872
H           -5.44611809988279        4.50040878224401       -2.90302752575802
H           -4.77098897076682        4.55950847229690       -4.47971428694906
C           -2.31546471554643        3.53037643288051        3.55148806394137
C           -2.54704876898651        2.51787696775309        4.48863337782876
C           -1.50149350360639        2.13875348675889        5.39496526801306
C           -0.15601585960846        2.54886695396765        5.01199298213645
C            0.00980164778917        3.49181264916714        3.98418694199687
C           -1.06311414275432        3.93276127083486        3.22934877187968
C           -1.62040325798707        0.86961104989136        6.11611048685441
C           -0.41859764412423        0.19421306465030        6.44170097278603
C            0.84442007098409        0.62197617958827        6.08778534087229
N            0.95888690966544        1.82950379670076        5.44147987779722
C           -2.82521875712412        0.21092466285580        6.65397971496389
C           -2.77176140442086       -1.10590938732319        7.16088697209436
N           -1.65623876850508       -1.73747127192222        7.44953063527119
C           -0.49440476568203       -1.11561381981958        7.06676196315948
C            0.76179283743156       -1.84845618289913        7.16082145443287
C            1.95557158772313       -1.39030304779769        6.74664352720382
C            2.06942201689663       -0.17627467974942        6.14444225353625
C           -3.95875789634282        1.14187901216849        7.06334684024096
C           -5.15587804624402        0.66577507781784        7.58133024048305
C           -5.25071431029021       -0.73819390897383        7.70468080843679
C           -4.04253660793773       -1.54909646483227        7.79200570814416
O           -3.61111204150373        2.57567836873593        7.05622865620485
O           -3.74129062596165        1.85843662773913        4.45883381256086
C           -0.84169634325007        5.08304921846360        2.30978425126888
C           -6.62069461707587       -1.41497621304789        8.12663909065220
H            0.96709340216287        3.83483020950972        3.80597790044811
H           -3.04784170410205        4.04508225082302        2.99781432022188
H            3.11338860843072       -0.03637124507045        5.99728191409446
H            0.69793293372243       -2.86239367071500        7.43870597533254
H           -4.24434631475535       -2.56894147539757        8.11631072402348
H           -5.74542678813742        1.32111830459169        8.18960678168237
O            0.20520853393334        5.71555472004611        2.42299116169148
O           -1.81096337198693        5.11220165590405        1.31900518127977
C           -1.21837419137729        5.96919208949196        0.39061634788086
C            3.12179490689179       -2.27361414631694        6.75849367342368
O            3.20428768072215       -3.22907945724022        7.51591834735205
O            3.80303999611900       -2.14524563939437        5.57291510231806
C            4.85729156962811       -2.93490132042762        5.69552888967960
O           -7.48892966373229       -0.57145820588366        8.40447827703630
O           -6.75414206826807       -2.78768087637307        7.97940735003659
C           -8.11572305498552       -3.06486170632207        7.87519374098442
C           -4.59757401630596        3.66080603694286        6.96067973156494
C           -4.03134343310161        1.35079830721173        3.27832468144812
H           -8.68767019681430       -2.22736478069386        7.56566203749768
H           -8.46349979018090       -3.48482337412257        8.82321996466138
H           -8.06784734128132       -3.97573990208084        7.33952105308906
H            5.59860916733381       -2.39546216115937        4.96313842037003
H            4.65673187136001       -4.00235308748318        5.54000518870703
H            5.29104842584307       -2.84522165794894        6.78200145870313
H           -3.17910549242543        0.56159681348638        2.99468649565993
H           -4.00307298208786        2.14978408570271        2.50449701479905
H           -5.02514593475383        0.83967850165254        3.23692062274977
H           -5.49194836091940        3.58441545041764        6.29024741985491
H           -4.22801742379027        4.56208621833790        6.35548408862401
H           -5.23255019882216        3.88802695698486        7.84773308282524
H           -1.36045159951632        7.09150527724827        0.45437489008004
H           -1.54483558696548        5.62626188213477       -0.57110197553291
H           -0.07923968082594        6.02039999381381        0.51181554983046
116
 energy: -22.710729006993 gnorm: 0.475231534205 xtb: 6.6.1 (8d0f1dd)
C           -1.69053289469568        0.74676911335585       -2.20833641851373
C           -0.91356917151184       -0.08445426970078       -1.38450955824301
C           -0.44712221755691        0.41516327231140       -0.09761165786816
C           -0.35494562079945        1.80758387928828       -0.03950533649800
C           -0.96169923335436        2.58340846110462       -1.04684824822023
C           -1.85461711689165        2.10007613446398       -1.94234186789283
C            0.18625828785044       -0.29472020161979        0.99575600944908
C            1.41561009517764        0.14537233873685        1.52182604905053
C            1.47265029531841        1.53950664463416        1.48316508214813
N            0.57088262128502        2.29696064673710        0.79572732910031
C           -0.35393819438811       -1.59455355338537        1.39321695915817
C            0.52186111335318       -2.48956885852849        2.28508628689989
N            1.66176473340842       -2.05809670209955        2.79693473669945
C            2.11665563546204       -0.80372340562231        2.40111607237434
C            3.17301736073942       -0.16003574658252        3.18076918364525
C            3.41341570534675        1.22841123424208        3.03246872498214
C            2.58658916765710        2.03072955195319        2.22958732733992
C           -1.72011491935288       -2.01327066430796        1.17667753717016
C           -2.04049155941837       -3.37691911270858        1.25040663008216
C           -1.20390289559685       -4.19842418812759        2.00854444691747
C           -0.06372515941346       -3.75263441650373        2.57189987340483
O           -2.71344167297687       -0.96332038160048        1.13224888620007
O           -0.71838757247606       -1.37311710273453       -1.76511395620607
C           -2.43775148212482        3.13808872451243       -3.02373480737727
C           -1.92634050251883       -5.54154862075838        2.37717866292724
H           -0.59903534455471        3.63789483924543       -1.09721183178877
H           -1.96368219526127        0.29978812632291       -3.18857225162205
H            2.86926696938066        3.02356801791651        2.21232434162564
H            3.55293434697429       -0.56655410285958        4.05001861057242
H            0.22231049098945       -4.26666984780534        3.51227212686093
H           -3.02384415637588       -3.91850860267257        1.05159491839138
O           -2.46747619978524        4.29213046638133       -2.71308457467171
O           -2.68560316189702        2.56620352429464       -4.24235909427063
C           -3.07417415015828        3.65342130117867       -5.11751417106979
C            4.63398602367081        1.73421489197696        3.73108873681517
O            5.02982705231944        0.93784191512630        4.60210706509684
O            5.18324100369722        2.86436955770615        3.23657976914778
C            5.98552901365490        3.47099726754699        4.16755909369354
O           -3.05370471050142       -5.88237653871192        2.12815526657410
O           -0.89549648177857       -6.39700234303457        2.80923152034902
C           -1.32634824998673       -7.66906712385157        2.67149049474997
C           -4.01079823782206       -1.46279241790475        1.16993294734384
C           -1.98319672657805       -1.96500036901310       -1.99413787800972
H           -0.65047867653855       -8.25459010696074        1.96611949365726
H           -2.36464751936734       -7.64186005886651        2.43585627646595
H           -1.23444044796343       -7.96983704969094        3.73444499526150
H            6.34566514173530        4.55162177371251        3.83487105842993
H            6.77821221375279        2.81323018577078        4.51617220997572
H            5.41094343187879        3.63221244675875        5.11699969603962
H           -2.75152736492602       -1.64531954825370       -1.25418709986086
H           -1.99022585233950       -3.01706565235643       -1.60696277897299
H           -2.13722643312723       -2.13610164169137       -3.09268814061169
H           -4.47601475772044       -2.12964426772928        0.40945832571430
H           -4.65338405650039       -0.57685824954275        1.03640972732926
H           -4.10395994155944       -1.90195934997723        2.23044383187671
H           -3.82429905910326        4.32409888241478       -4.76722208432015
H           -3.15689670313127        3.19724524214482       -6.02950479811457
H           -2.16382015562861        4.41010741565642       -5.05065438187979
C           -2.92341654412301        3.31156370835398        3.19823301528231
C           -3.23010326445062        2.23638285165182        4.08884345456524
C           -2.11399759276777        1.78179303171949        4.86450822127294
C           -0.82341306968345        2.26386872826110        4.60271657868903
C           -0.60719582886572        3.37456181412815        3.72581190966102
C           -1.65168577033686        3.96805322596274        2.99606159854243
C           -2.27491845191800        0.81031885098158        5.93901189760149
C           -1.03728764645114        0.13038048177578        6.11914524650982
C            0.20092405081906        0.56023035555483        5.66707733562844
N            0.33748352560857        1.77915013593029        4.97906208975857
C           -3.43748570203526        0.45448024229140        6.63718006692987
C           -3.48126487269718       -0.79020109405568        7.22147342366090
N           -2.37631013682379       -1.55937404540503        7.16221901923537
C           -1.14599607150688       -1.08630976437340        6.76337469572207
C            0.05480406313296       -1.85934360019267        6.95457657857986
C            1.32029736491936       -1.43596631326298        6.54882403997761
C            1.39563394050345       -0.20413918523598        6.01067688305111
C           -4.41493124556994        1.38507411705972        6.95680778608670
C           -5.51498589190547        0.82697419723540        7.74558466704116
C           -5.54720621838360       -0.56377673070317        8.10172838685347
C           -4.54712050979634       -1.36453447988992        7.82278957873209
O           -4.41940702333590        2.86238220053808        6.59370123639699
O           -4.38213298119244        1.42513148006974        4.10457348616745
C           -1.33752076826590        5.43465138793462        2.41764871578782
C           -6.60737213975991       -0.84811083602659        9.05566428584002
H            0.48996328029834        3.65279573364991        3.65514111388830
H           -3.79605430334574        3.81193464866683        2.75726265453042
H            2.23081047656607        0.20208793630626        5.45023351574209
H           -0.04166013566918       -2.89153007083796        7.34796142726735
H           -4.44324263395121       -2.38912995925438        8.12726834412943
H           -6.45158142779177        1.44489908263183        8.00442485591828
O           -0.15137841348878        5.70951626013258        2.63470880232508
O           -2.45769598043987        6.22307384629603        2.10393603255023
C           -2.42066535700288        7.34919896754146        1.19943867013927
C            2.50312159852475       -2.33002431319285        6.63704476284048
O            2.30504478289989       -3.51029889104488        6.79029510655630
O            3.77293684028040       -1.86019899756547        6.32983496836697
C            4.60025587600217       -2.98850815149013        6.45267508219500
O           -7.46587663979577       -0.08598780435551        9.34544345560376
O           -6.44585204983096       -2.12226725732531        9.69933352674064
C           -7.39436335473846       -2.16146165233164       10.67161933825448
C           -3.68355925898013        3.66671695173053        7.43352269159921
C           -3.85551026199305        0.16419916204578        3.70096360857139
H           -8.29717859302938       -1.89565603975047       10.11713549594260
H           -7.26667508276132       -1.54056826795023       11.44337949321292
H           -7.20063762069087       -3.18014060119282       11.04463792426603
H            5.49118006517993       -2.69678207785179        5.87890108712244
H            4.25856398748585       -3.76528538643048        5.85690264568942
H            4.87289994631217       -3.36149087851753        7.43416922276064
H           -2.85174680028035        0.24684227143810        3.33073788485842
H           -4.50356928510068       -0.29230687022489        2.91200724621760
H           -3.79635111105344       -0.45114400966852        4.58098018845804
H           -2.62215032152601        3.75339672350124        7.47764959818760
H           -4.04919031746638        3.29922920804945        8.55182827837395
H           -4.13645088860799        4.66503931521488        7.34150434291377
H           -3.27052639398022        7.95092147307642        1.53999341550964
H           -2.47192610111087        7.02174615170923        0.17960719422087
H           -1.46664284626314        7.84422059943385        1.33000738830714
116
 energy: -22.679890028016 gnorm: 0.517723171598 xtb: 6.6.1 (8d0f1dd)
C           -1.64479789004668        0.99846610799061       -2.01613667789770
C           -1.23294135022332        0.08589655629264       -1.08369840345455
C           -0.81117334091677        0.54729986880833        0.22410262674379
C           -0.42645080761546        2.02448620996278        0.32120286054289
C           -0.79486383164066        2.83902716714526       -0.70991999190713
C           -1.53750766178264        2.39413804826618       -1.77455684146597
C           -0.30986395781474       -0.39383141901316        1.16719734561560
C            0.90523238644053        0.07591166250156        1.83514076569215
C            1.26685471508253        1.39831565169460        1.90688245914351
N            0.49987992759199        2.30041550145622        1.30886595148870
C           -0.53330548336890       -1.76590513694102        1.30182775514035
C            0.50613678421703       -2.56252564615305        1.72686526836598
N            1.65029406100287       -2.16744037529816        2.39509045383311
C            1.83927372199335       -0.82769335531730        2.32508785823959
C            3.18384576530538       -0.31931786939473        2.72069429230461
C            3.48688043018815        1.02130846581044        2.80595092667458
C            2.45837930512467        1.87105769806282        2.37847402543086
C           -1.78372446192242       -2.41599776564373        1.07011146470543
C           -2.02069149539513       -3.75411095197052        1.51973752422476
C           -0.93826608817435       -4.49008109260506        1.92609180654781
C            0.30788078285779       -3.91641311138874        1.91874698817000
O           -2.81296650730168       -1.51590439913526        0.65813563958216
O           -1.03574634160963       -1.30822069822129       -1.18656212775116
C           -2.08641158866730        3.28327934476646       -2.70509135502446
C           -1.13118453184158       -5.94497280242566        1.78208292059529
H           -0.48949332254908        3.83116567142121       -0.46418888188606
H           -2.29506761380866        0.72754439431220       -2.80434170460892
H            2.63694286247502        2.84698208720425        2.65444355095961
H            3.80181980691007       -1.03637255082385        3.04496993277815
H            1.13171250206664       -4.61631360453629        2.04397630144958
H           -2.98939098104679       -4.19505768668543        1.47869736990178
O           -3.29984755572926        3.53448002427501       -2.39037859349946