116
 energy: -22.928061455056 gnorm: 0.329736929581 xtb: 6.6.1 (8d0f1dd)
C           -3.31122850772930        0.79849766164622       -0.92477639677520
C           -2.44380812530352       -0.12270372891954       -0.27661132624697
C           -1.41337090092821        0.39579727573559        0.56335275196199
C           -0.89266158675590        1.65801491088749        0.27377586709581
C           -1.72665675402493        2.51431363229076       -0.49448366572522
C           -2.95444148494349        2.13954154133227       -1.01494489940871
C           -0.74098268209890       -0.43411532818871        1.49825021926784
C            0.56872586496315        0.03782116815119        1.86248088067890
C            1.03782416582094        1.29402317993033        1.50887470833621
N            0.31238977034758        2.07067427098208        0.65193736800696
C           -1.29695700510141       -1.39996043042223        2.41574187746061
C           -0.38243517664656       -2.18060797534842        3.13232615520648
N            0.91308504082021       -1.90366887689689        3.30325166013478
C            1.37712470144904       -0.74872102533751        2.81811050966982
C            2.52149331701875       -0.17739833758153        3.39379298866852
C            2.95849061756259        1.02681208890480        2.95105897606587
C            2.24288949469137        1.78498308775960        2.03503020483770
C           -2.74860936222260       -1.74497937691422        2.38401158947411
C           -3.09416315450955       -2.91614440870436        3.00571134491758
C           -2.16786021984049       -3.77788778654213        3.63251872101904
C           -0.85708937311598       -3.40495313382985        3.68547234358092
O           -3.71994433332149       -0.94984598373544        1.67726658385724
O           -2.55702603277562       -1.47241711578389       -0.57241635275616
C           -3.84297843593025        3.13357444054366       -1.60938954875544
C           -2.68769581069131       -5.03867041417370        4.30484659386931
H           -1.39666850744143        3.51251503834900       -0.76806311868865
H           -4.27662633836220        0.55105838579656       -1.33106614114542
H            2.66329581305412        2.73912661909249        1.72562431984580
H            3.05775395548473       -0.69369546277216        4.16536137542516
H           -0.24710966264510       -4.12034095424229        4.22946223699121
H           -4.11477991332403       -3.04712728052358        3.03244694615357
O           -4.21824883374556        4.03433712717988       -0.87713382485991
O           -4.44510595673734        2.90643496899600       -2.81853501752979
C           -5.44216520282800        3.83300025693726       -3.02488532025093
C            4.23586651889298        1.50004220933226        3.59165660008449
O            5.05927614697201        0.66079890002952        3.91714215179376
O            4.47001334453535        2.86385149488593        3.72605651435371
C            5.79457498613219        3.08584475587818        4.15829123132174
O           -3.82227255313510       -5.27347675879771        4.16636005494405
O           -1.85023202017753       -5.79767454267276        5.06656077253571
C           -2.55119635829503       -6.86252441382958        5.62930343183426
C           -5.07197156564436       -1.42399175670916        1.58830531863830
C           -1.33089900128490       -2.23622472573986       -0.99264499351172
H           -2.54510546830388       -7.76426885143998        4.99136022291012
H           -3.57194749219491       -6.44405511486021        5.74196173723541
H           -2.09133598235598       -7.02043774843818        6.64022264233588
H            5.72707967266424        3.46798026205549        5.10135971236643
H            6.34060091246885        3.78468702308830        3.50069950143490
H            6.17933064298187        2.03010500085905        4.19342358084693
H           -0.91862729772622       -2.57650129080332       -0.01361370304871
H           -0.49769766914251       -1.60651221708571       -1.34094446550576
H           -1.52632419730509       -2.94569707152159       -1.75361447637286
H           -5.11788846557077       -2.41810833635233        1.17520213188926
H           -5.67929807973498       -0.69619639428435        1.04301666067831
H           -5.57598832326623       -1.42383358739762        2.57928294206544
H           -6.13050215934830        3.76035386975488       -2.23272855695873
H           -5.86615610071888        3.45938329385866       -4.02668959924245
H           -5.13479557532099        4.87790991548477       -2.98314551356402
C           -1.38192942069774        3.73616555005018        2.91232598411686
C           -1.84821468128685        2.59982427735607        3.49755545445181
C           -1.05946531454833        2.05730632010638        4.60922730982276
C            0.19893954712228        2.69376791964407        4.86302140881997
C            0.50425395911860        3.94630308659851        4.28768785650746
C           -0.26031777722226        4.46998310053134        3.25072669343212
C           -1.20488993561782        0.74454293276906        5.14851520323437
C           -0.06287609782692        0.02744069315890        5.60930570802864
C            1.19208754369866        0.71421540266195        5.78882868583885
N            1.19428660993148        2.06344359410476        5.62744624321596
C           -2.41361422770794        0.07928500213936        5.25249410304426
C           -2.45851584031083       -1.32662100968547        5.60237876023992
N           -1.29466212405906       -1.98318595734370        5.89916817085159
C           -0.14475655767527       -1.32117560077092        5.98824682881008
C            0.97209270935794       -1.98958449505532        6.53157704134458
C            2.21982707914082       -1.36973967291181        6.68703967237737
C            2.30561929262884       -0.09745313075593        6.26436900324455
C           -3.73018485967715        0.71367583494582        5.25810242262992
C           -4.89964478833448       -0.06184623426677        5.21204641615509
C           -4.82617965800088       -1.39228978090841        5.46901303780036
C           -3.67144193418464       -1.98914944386360        5.67265433266067
O           -3.75568638935321        2.07705011038914        5.52067969627343
O           -2.94192434743730        1.91263938797883        3.01658762327703
C            0.21273512614467        5.50086066357994        2.34765104514621
C           -6.06660304520411       -2.17604633098929        5.80641622556876
H            1.41756699010566        4.38133362238595        4.66974005703471
H           -1.82880610647429        4.11982501512100        2.06992133318584
H            3.26888037378556        0.32655662585251        6.31721410015598
H            0.87146188387207       -3.08471526305024        6.57830423410869
H           -3.67716811065157       -3.05999292755990        5.83019634570050
H           -5.77379677507622        0.43595144608221        4.71017130754348
O            1.34459852619901        5.82615848916894        2.44941456579099
O           -0.74718748219123        6.07961784856304        1.59848183464284
C           -0.21473095568964        7.24015934882472        1.05753806029483
C            3.53228080814219       -2.00967610361154        7.02506769044485
O            3.64093082622715       -3.14437803815732        7.50071391725347
O            4.56565258381079       -1.22937033368332        6.69086985080897
C            5.72579357310716       -1.80692399125161        7.22246151275881
O           -7.04801223588612       -1.95726935745904        5.14194115322235
O           -6.01514389321278       -2.93743591896022        6.94765316328794
C           -7.21292732384718       -3.62681918543340        7.15115816329978
C           -4.95459780685163        2.65960679932188        5.86868674392943
C           -3.68284113682406        2.59129188358641        2.05479246020704
H           -7.43119628931628       -4.22607794725959        6.20622607140901
H           -8.06548455146707       -2.91765848248592        7.29781126410398
H           -7.07314693247270       -4.33087306029711        7.91223421050944
H            6.57332189837178       -1.29353136199234        6.78341268688262
H            5.74663761932316       -2.84282155125561        6.88089468184451
H            5.69426191474290       -1.72781984964892        8.29460302186842
H           -4.10481209541493        3.44288266176275        2.60483747673152
H           -4.49244774344916        1.87419893016926        1.82433103764650
H           -3.18901540870812        2.85154642679373        1.06781919454921
H           -5.55414326821421        2.76698137191684        4.93950725322359
H           -4.78658370641210        3.62090640967288        6.25983200635257
H           -5.43485580473958        1.97242995129449        6.65265772412460
H            0.89164886030839        7.38838561720231        1.13776105146914
H           -0.62894889903848        8.04195665205089        1.64837664327952
H           -0.59282546386754        7.45699159724320        0.03719083132488
116
 energy: -22.589738014371 gnorm: 0.546066034442 xtb: 6.6.1 (8d0f1dd)
C           -2.24744769250589        0.69255543288359       -1.96994746227690
C           -1.80850282622305       -0.23491492551046       -0.98566682103652
C           -1.47728769071542        0.26947186672117        0.27309722135512
C           -1.14422936214933        1.67739390069442        0.21911604639576
C           -1.57555120136314        2.68044244671153       -0.63303613750935
C           -2.11826640147763        2.15608825275640       -1.76615455159146
C           -0.99597773842485       -0.52524913019157        1.44986510419111
C            0.13260467451083        0.00955883934545        1.97310922852714
C            0.37966826473517        1.43078916239362        1.84774047284278
N           -0.36346326072226        2.29883677075027        1.12418618055946
C           -1.57556172551786       -1.74419910848694        1.94344347419601
C           -0.75034653945977       -2.50649358263151        2.78890695739143
N            0.59510321274309       -2.16671346975420        3.09197855184357
C            0.77719758724774       -0.78120523057139        2.92696892275107
C            2.08179059309603       -0.36697974063884        3.43597013862164
C            2.57971029169018        0.83690014360864        2.83106424097389
C            1.68997633127055        1.83583546470938        2.30189477195266
C           -2.92772182944975       -2.04815112141902        1.83392375584621
C           -3.41649909853061       -3.22664216800632        2.38162316582774
C           -2.63877583158792       -4.08102649326939        3.21444122145737
C           -1.26639293136600       -3.70454042397599        3.37262074406552
O           -3.81663343384841       -1.00890435176432        1.35313030387163
O           -1.63971146628571       -1.61339668341489       -1.16850965587690
C           -2.38268340084067        3.12485880048149       -2.98181240447665
C           -3.34169765173154       -5.40333930672630        3.70468577224568
H           -1.12252036084809        3.67575595030307       -0.71161788203904
H           -2.82130351965358        0.34484479800308       -2.87647221671180
H            1.89936683383847        2.90231535943239        2.24726036175982
H            2.61797316204300       -0.93884543610132        4.07543562288825
H           -0.76876037264704       -4.15717248985675        4.16951892350383
H           -4.36867839615569       -3.61504278587264        2.27339574256106
O           -1.58548045757582        3.84103848015060       -3.64735189483558
O           -3.70359059623755        3.35294373975758       -3.15333200867466
C           -3.85348367075339        3.82492164002359       -4.64288608940856
C            3.94416398412976        1.14284472060675        3.23596469377671
O            4.57633094478343        0.20241656201241        3.84285937652271
O            4.44368621248304        2.43201355208277        2.93304898913523
C            5.66206206357735        2.36855264083373        3.65346912487360
O           -4.53487718777478       -5.20552540919152        4.00462001181478
O           -2.56021551926977       -6.63632925117312        3.75618475074690
C           -3.32062829995625       -7.58216093821857        4.30782697154406
C           -5.08238590813455       -1.19289829120952        0.71783522288328
C           -2.35500834997633       -2.17756201129811       -2.24607388104723
H           -4.38912574943566       -6.99797876138578        4.50488345560644
H           -2.80513447518963       -8.12687396230291        5.13937994944919
H           -3.31999702238815       -8.22696604573191        3.47365303878028
H            5.90410231822981        1.55457598559222        4.38246464544173
H            5.88442749538735        3.42197610416334        4.11175648461942
H            6.35798286424069        2.10545140382378        2.82102160397911
H           -3.43012589328376       -2.06404593785688       -1.98497698404491
H           -2.25389715427441       -3.19546655963289       -2.15671784004367
H           -2.10268388483476       -1.56676985379271       -3.10669689446214
H           -5.23742324131286       -2.32482202079724        0.98021856605003
H           -5.11454584817764       -1.15802015980201       -0.35856157604722
H           -5.80954886874542       -0.72091812837173        1.18582352307966
H           -3.36241896780580        4.78625546164954       -4.82680976358906
H           -5.02044204657081        3.91602961076398       -4.67388044907865
H           -3.93922604885706        3.20602487991382       -5.50393836087215
C           -2.19202558829982        3.95264994378625        3.67193135385854
C           -2.16514407166565        2.70313897615039        4.31189929787522
C           -1.04072711817365        2.36371417621387        5.27193346094599
C            0.09043482116979        3.13162776088930        5.19274364727959
C            0.26921365868602        4.18338852998393        4.29632427783658
C           -0.83354761297058        4.54886071709386        3.49357833636538
C           -1.11777588208557        1.08482268296956        6.02099552004662
C            0.02775151125284        0.38912247419508        6.14938019510245
C            1.19201801675884        1.15356448003396        5.85783549308341
N            1.21060643435579        2.44979239705775        5.74216357909327
C           -2.28572715610761        0.28460711783264        6.48788813104850
C           -2.20266187965445       -1.14671509780160        6.68661339610052
N           -1.10023670283359       -1.78546136020577        6.67851823439222
C           -0.01199531915571       -0.96916550695321        6.58268423391925
C            1.28759961199623       -1.54383290980251        6.86169107973032
C            2.48432183377443       -0.84447942120020        6.78188431058956
C            2.45114107729505        0.46781122457757        6.03362875610355
C           -3.55238763096564        0.93743584016084        6.76138552322882
C           -4.74924125348893        0.17044780723361        7.03300691074874
C           -4.75753471195659       -1.18816648621181        7.30747988561062
C           -3.48281591759650       -1.80779826606933        7.04869830165450
O           -3.41933327041072        2.20681755760872        7.58942877489746
O           -3.24640216048645        1.77937866457037        4.10413012596237
C           -0.69167012275708        5.84659040083486        2.68083769370025
C           -5.96266852553883       -2.03581465472138        7.27360243279696
H            1.23655177948822        4.69158396053122        4.36074472032751
H           -2.92759074934153        4.07014815352951        2.94356800317539
H            3.56688335551795        0.66426268535454        5.62068313036682
H            1.32050260838127       -2.54915314429298        7.14913403871782
H           -3.48360385888685       -2.81583239874067        7.28703552817691
H           -5.69112292089852        0.54948177339902        7.53923274013683
O            0.12885960891014        6.76617478968773        2.88602382279216
O           -1.62422319964685        5.82329400372772        1.70785214951795
C           -1.23576677751802        6.66976130572124        0.51823309498906
C            3.81707096229045       -1.52963981474749        7.00589362121128
O            3.99595422060148       -2.74160377348270        7.10400465242369
O            4.80823985681390       -0.67219722664669        7.00379580820150
C            6.08220022535740       -1.27875551751119        6.93481856649632
O           -7.15875431341622       -1.58533815728758        7.38024743036876
O           -5.60200985423840       -3.24280579319348        6.84074227551426
C           -6.56581732826957       -4.14706146089864        7.21023297876202
C           -3.89106703871688        3.47816562745742        7.16457638106007
C           -3.21416031979523        1.34767635738270        2.77838816267005
H           -6.34919326517501       -5.26618652726234        6.94115510717285
H           -7.45870338059122       -4.07675133779366        6.59049243733245
H           -6.62106228035136       -4.27275926337480        8.27984349318833
H            6.63346765872334       -1.17437468992913        7.83489102594592
H            6.54478175416376       -0.62906864274179        6.22708243914149
H            6.07942644150411       -2.33445778687282        6.55636191162454
H           -3.68327503375822        2.06517852086816        2.12763932935321
H           -3.58665541664981        0.33982524235988        2.65361445230436
H           -2.20213825607674        1.54188999239631        2.49473360580944
H           -4.36384544578977        3.57074042102631        6.14740100219239
H           -3.08349318653559        4.29466362449065        7.13937410835922
H           -4.55069472864749        3.77789091619778        7.99045506250637
H           -0.37043814228352        7.31144707408638        0.63452390998010
H           -2.05436071025094        7.47766490272918        0.31524636261101
H           -1.39409866905971        5.93094656962385       -0.45279555181623
116
 energy: -22.619909048604 gnorm: 0.498279632842 xtb: 6.6.1 (8d0f1dd)
C           -2.75323775776771        0.53673572602545       -2.25670336649874
C           -2.31257749476770       -0.35699844680426       -1.22166225394929
C           -1.32069899960418        0.25673966538605       -0.15951018359784
C           -0.56343715308001        1.41553451119622       -0.61166698386927
C           -1.04119416463153        2.08460258864733       -1.72387898849176
C           -1.98658230643261        1.64008367118792       -2.63456831189960
C           -0.94467415579592       -0.39311637773218        0.97740849879143
C            0.23560484532512       -0.00483836488789        1.60029398402701
C            1.09954384758318        0.88980609538671        0.85228171326427
N            0.67954352274367        1.63071707094953       -0.16873114625773
C           -1.73963063900624       -1.29914590792073        1.63336639025928
C           -0.98379292189736       -2.14085042483848        2.59589283583639
N            0.23779039993984       -1.76466599312789        3.21729193186099
C            0.85504192940675       -0.73862835852732        2.65176757372002
C            2.18322642591342       -0.52637800397069        3.07314519370944
C            2.91179157732925        0.44525367448396        2.43936688303192
C            2.44970267845950        1.15317660410866        1.32570608122199
C           -3.20535725102313       -1.54703363142590        1.58543376823315
C           -3.79354499076038       -2.68548507833006        2.06737428346638
C           -2.85603925614464       -3.70822040275023        2.68798327806176
C           -1.54089173722041       -3.34856755998475        3.08022334377025
O           -3.79711632691367       -0.38019372062375        1.27257639765725
O           -2.65418808317199       -1.74750210153680       -1.15261556699462
C           -2.31565893539845        2.64312088827699       -3.72531940757030
C           -3.24045701629199       -5.08572166975527        2.95291856034562
H           -0.53820532253464        3.01766759968761       -1.81863156720136
H           -3.74322833106381        0.38783057126643       -2.74517764108114
H            3.04680860129446        1.97003045613992        1.25819418438853
H            2.50093232039093       -0.81256868464484        4.07033568048280
H           -0.81229793897466       -3.88781597348875        3.72205073711321
H           -4.85571718200651       -2.82529467760972        2.23919179060547
O           -1.39322371360894        3.27170525358183       -4.36769170722792
O           -3.63513476177916        3.08748445497568       -3.43902022024525
C           -4.05609819988761        3.96097676096889       -4.38796720135195
C            4.07488063002386        0.99394043758240        3.18197791380392
O            4.30911074758095        0.77205167869675        4.33617558899785
O            4.83223925734643        1.79089162838221        2.38769611438430
C            5.91440938910191        2.38732784805616        3.15587597768814
O           -3.30943668546934       -5.88584298394334        1.92926427043830
O           -3.53548119153958       -5.45638099762788        4.25746490314923
C           -3.83366554446513       -6.79609294439919        4.63988334297432
C           -5.28114830462153       -0.20111184128583        1.66796385172627
C           -1.67625715173478       -2.63613203405760       -0.89534805101507
H           -2.97872842318025       -7.32915675900791        5.19223606473620
H           -4.21300097415334       -7.43025118037382        3.69406380600751
H           -4.61927926675883       -6.79439174956868        5.36146349452673
H            5.63936133778326        2.64273495017719        4.23154964276809
H            6.02996733737245        3.33159832910643        2.38110651212855
H            6.84948869113840        1.89434171189792        3.24976305742804
H           -1.35615146023148       -2.88202948134151       -1.86264527011363
H           -2.07725178672034       -3.57249645591338       -0.42314941311864
H           -0.85287733215073       -2.24524253964821       -0.26595853673115
H           -6.03116560016895       -0.83528836355612        1.17258250144301
H           -5.51662052036021        0.78107816208525        1.42727565909763
H           -5.43325121377548       -0.05944504123792        2.74188029167867
H           -5.10884794053319        4.13447283782859       -4.24216397986945
H           -4.35689233431269        3.35737324349010       -5.18551457613196
H           -3.42272872187305        4.85094459926487       -4.34646574966248
C           -2.19175321478750        3.60112980521827        3.65667005378550
C           -2.16867114265969        2.33775161431428        4.32334347348233
C           -1.04867422167677        1.79881745100855        5.09354468023677
C            0.14171952928566        2.43475029300509        4.88997542538025
C            0.16384406368592        3.62694018968262        3.97084672809641
C           -1.01469744331888        4.25229172598250        3.47169526495863
C           -0.94951575706384        0.73099921717689        6.11989995696585
C            0.26660972786362        0.13720638659065        6.24437561817179
C            1.43994324973457        1.03059276093789        6.07656926562199
N            1.35912701436627        2.15904154876839        5.45230516723521
C           -2.03463313169957        0.04904497808282        6.62738985927189
C           -1.90395733204339       -1.37486536943465        6.96740793508696
N           -0.63887314012412       -1.99230968480495        7.14178360516195
C            0.36660022945394       -1.18771779967492        6.76964780939110
C            1.60321772127763       -1.76055468575249        7.18939963481852
C            2.67070348435532       -0.89361850415301        7.00756313535070
C            2.59090959608251        0.36674576854879        6.34836037362486
C           -3.23203802418547        0.64226504977097        7.10436836852168
C           -4.39341858990245       -0.21968867334100        7.12921789298636
C           -4.25897137278061       -1.56380783909217        6.99742983883998
C           -3.04268633173389       -2.18246553461778        7.04107385958571
O           -3.36061426129272        1.94427669855298        7.58063474299725
O           -3.21865715195885        1.46268343040924        3.84256592238588
C           -0.69628613069767        5.43469903736563        2.67568414458394
C           -5.56976427647769       -2.29127893557191        6.96130347025677
H            1.02879339402375        4.28188845454664        3.94505268707183
H           -3.08651452858824        4.05860917754939        3.38383474111520
H            3.54386943415650        0.82936345717199        6.13934785131834
H            1.42355464664499       -2.69662487243673        7.73210352115060
H           -2.85705634889049       -3.27744036958870        7.18256033604014
H           -5.47929534316221       -0.01327146503235        7.03317562593977
O            0.40792531073320        5.92206190255290        2.62788318988212
O           -1.82588183446500        5.92403208971030        2.05322036297233
C           -1.66833268319270        6.92463606658625        1.05442345506481
C            4.02259205179061       -1.17976332571163        7.63911134166317
O            4.62317317108814       -2.19394154350368        7.82334977850728
O            4.50441194496141        0.06576476511551        7.82678255066191
C            6.01260693020063       -0.02710949484638        7.86772397718239
O           -5.44896568050771       -3.49527184156142        6.94917730257164
O           -6.70099224313268       -1.53998781337396        6.97918291912567
C           -7.88747889772496       -2.19004019666533        7.03099119976273
C           -4.70986347925916        2.24391379795691        7.89022840510954
C           -4.54282282576177        1.94527470878493        4.37694778988043
H           -8.08034900166864       -2.86911991544058        6.17620167662270
H           -8.76277315116867       -1.36288813286139        7.13735763929775
H           -8.12454667671986       -2.52662614011449        8.01966195457473
H            6.52102235188177       -0.22036774379607        8.93937061038648
H            6.34014910645018        0.98019599687511        7.62981999408796
H            6.29371648025254       -0.76886552922408        6.92755679276996
H           -4.03695420704989        2.55997249371969        5.09380152120282
H           -5.02375778360321        0.99003936286082        4.80413515429668
H           -5.31001798135164        2.14712790197779        3.61606272381346
H           -5.42315312789389        2.51178673582139        7.09462890181518
H           -4.54807582913397        3.21530063627778        8.19776484268690
H           -5.22976755287590        1.61050570008156        8.63943102347292
H           -2.51560972830159        7.68707884619794        1.23812187270754
H           -1.89367457421774        6.34675080689316        0.07098350841868
H           -0.63260224583145        7.33191807894135        1.29026439543524
116
 energy: -22.679178859991 gnorm: 0.526212245182 xtb: 6.6.1 (8d0f1dd)
C           -2.39502655823680        0.84808936917757       -2.46610856001507
C           -1.97820644285972       -0.09749267210786       -1.50174531813203
C           -1.16193930584994        0.36558147272577       -0.41278146749477
C           -0.82871398854220        1.72703128452588       -0.39641320318332
C           -1.24539879286078        2.63335439223001       -1.35662126054114
C           -2.12324315879428        2.18726464288774       -2.36713898911727
C           -0.79067882697643       -0.23941827039589        0.89716686536869
C            0.22470154774884        0.38503566671042        1.80457464472677
C            0.91627418109330        1.53356242018957        1.31892942378299
N            0.27050584612026        2.20749170744837        0.32965416415284
C           -1.49660303738127       -1.32201456234965        1.54029258392444
C           -0.86919021355102       -1.94463604904308        2.65053768182631
N            0.45243627222489       -1.76527935348074        2.89898885824953
C            0.74083150395472       -0.53051610765322        2.75280275608215
C            2.06776143242349       -0.08516662526204        3.17431509952733
C            2.79314050911910        0.99458383276273        2.71665818277191
C            2.12831811295862        1.97091032798644        1.81287129669309
C           -2.97758977758986       -1.38758931822452        1.49981591877222
C           -3.61187207880973       -2.23412503310519        2.40612684043619
C           -2.93440831666385       -3.20449906849209        3.17978233444339
C           -1.59666518233365       -2.87115541717359        3.38962604257429
O           -3.69096745130126       -0.53694293010761        0.72361520505201
O           -2.03920743331478       -1.44377595207728       -1.84175858036692
C           -2.89877209983950        3.06680661639851       -3.13616983341355
C           -3.57591005433167       -4.27197182052816        3.91084084041811
H           -0.90002096699687        3.66103687635635       -1.36714169852207
H           -2.98226542840047        0.53432699577847       -3.27468382346660
H            2.50081913165035        2.78399449339453        1.33875411526568
H            2.52045470095883       -0.74881331248853        3.88853121840848
H           -0.90132816605058       -3.47474401650488        4.03314151112956
H           -4.67914041422419       -2.38651559448674        2.18968454549886
O           -3.29052213790688        4.04674351895681       -2.63182802272316