      -----------------------------------------------------------      
     |                   =====================                   |     
     |                           x T B                           |     
     |                   =====================                   |     
     |                         S. Grimme                         |     
     |          Mulliken Center for Theoretical Chemistry        |     
     |                    University of Bonn                     |     
      -----------------------------------------------------------      

   * xtb version 6.6.1 (8d0f1dd) compiled by 'runner@Mac-1690902418499.local' on 2023-08-01

   xtb is free software: you can redistribute it and/or modify it under
   the terms of the GNU Lesser General Public License as published by
   the Free Software Foundation, either version 3 of the License, or
   (at your option) any later version.
   
   xtb is distributed in the hope that it will be useful,
   but WITHOUT ANY WARRANTY; without even the implied warranty of
   MERCHANTABILITY or FITNESS FOR A PARTICULAR PURPOSE.  See the
   GNU Lesser General Public License for more details.
   
   Cite this work as:
   * C. Bannwarth, E. Caldeweyher, S. Ehlert, A. Hansen, P. Pracht,
     J. Seibert, S. Spicher, S. Grimme, WIREs Comput. Mol. Sci., 2020, 11,
     e01493. DOI: 10.1002/wcms.1493
   
   for GFN2-xTB:
   * C. Bannwarth, S. Ehlert and S. Grimme., J. Chem. Theory Comput., 2019,
     15, 1652-1671. DOI: 10.1021/acs.jctc.8b01176
   for GFN1-xTB:
   * S. Grimme, C. Bannwarth, P. Shushkov, J. Chem. Theory Comput., 2017,
     13, 1989-2009. DOI: 10.1021/acs.jctc.7b00118
   for GFN0-xTB:
   * P. Pracht, E. Caldeweyher, S. Ehlert, S. Grimme, ChemRxiv, 2019, preprint.
     DOI: 10.26434/chemrxiv.8326202.v1
   for GFN-FF:
   * S. Spicher and S. Grimme, Angew. Chem. Int. Ed., 2020, 59, 15665-15673.
     DOI: 10.1002/anie.202004239
   
   for ALPB and GBSA implicit solvation:
   * S. Ehlert, M. Stahn, S. Spicher, S. Grimme, J. Chem. Theory Comput.,
     2021, 17, 4250-4261. DOI: 10.1021/acs.jctc.1c00471
   
   for DFT-D4:
   * E. Caldeweyher, C. Bannwarth and S. Grimme, J. Chem. Phys., 2017,
     147, 034112. DOI: 10.1063/1.4993215
   * E. Caldeweyher, S. Ehlert, A. Hansen, H. Neugebauer, S. Spicher,
     C. Bannwarth and S. Grimme, J. Chem. Phys., 2019, 150, 154122.
     DOI: 10.1063/1.5090222
   * E. Caldeweyher, J.-M. Mewes, S. Ehlert and S. Grimme, Phys. Chem. Chem. Phys.
     2020, 22, 8499-8512. DOI: 10.1039/D0CP00502A
   
   for sTDA-xTB:
   * S. Grimme and C. Bannwarth, J. Chem. Phys., 2016, 145, 054103.
     DOI: 10.1063/1.4959605
   
   in the mass-spec context:
   * V. Asgeirsson, C. Bauer and S. Grimme, Chem. Sci., 2017, 8, 4879.
     DOI: 10.1039/c7sc00601b
   * J. Koopman and S. Grimme, ACS Omega 2019, 4, 12, 15120-15133.
     DOI: 10.1021/acsomega.9b02011
   
   for metadynamics refer to:
   * S. Grimme, J. Chem. Theory Comput., 2019, 155, 2847-2862
     DOI: 10.1021/acs.jctc.9b00143
   
   for SPH calculations refer to:
   * S. Spicher and S. Grimme, J. Chem. Theory Comput., 2021, 17, 1701-1714
     DOI: 10.1021/acs.jctc.0c01306
   
   with help from (in alphabetical order)
   P. Atkinson, C. Bannwarth, F. Bohle, G. Brandenburg, E. Caldeweyher
   M. Checinski, S. Dohm, S. Ehlert, S. Ehrlich, I. Gerasimov, C. Hölzer
   A. Katbashev, J. Koopman, C. Lavigne, S. Lehtola, F. März, M. Müller,
   F. Musil, H. Neugebauer, J. Pisarek, C. Plett, P. Pracht, F. Pultar,
   J. Seibert, P. Shushkov, S. Spicher, M. Stahn, M. Steiner, T. Strunk,
   J. Stückrath, T. Rose, and J. Unsleber
   
 * started run on 2025/03/14 at 13:04:35.868     

           -------------------------------------------------
          |                Calculation Setup                |
           -------------------------------------------------

          program call               : xtb scoord.19 --md --gfnff --input md_settings.inp
          coordinate file            : scoord.19
          omp threads                :                     8

   ID    Z sym.   atoms
    1    6 C      1-9, 11, 12, 14-21, 24, 25, 34, 35, 38, 41-43, 59-67, 69,
                  70, 72-79, 82, 83, 92, 93, 96, 99-101
    2    7 N      10, 13, 68, 71
    3    8 O      22, 23, 32, 33, 36, 37, 39, 40, 80, 81, 90, 91, 94, 95, 97,
                  98
    4    1 H      26-31, 44-58, 84-89, 102-116

molecular fragmentation (1/2 indicates fragments):
111111111111111111111111111111111111111111111111111111111122222222222222
22222222222222222222222222222222222222222222
# atoms in fragment 1/2:    58    58
 fragment masses (1/2) :      501.47      501.47
CMA distance (Bohr)    :   8.819
constraining FC (au)   :  0.0500
          GFN-FF topology read from file successfully!
           ------------------------------------------------- 
          |                   G F N - F F                   |
          |          A general generic force-field          |
          |                  Version 1.0.3                  | 
           ------------------------------------------------- 
          Number of HB bonds (bound hydrogen)     17958
          Number of HB bonds (unbound hydrogen)   515
          Number of XB bonds                      0

 E+G (total)                   0 d,  0 h,  0 min,  0.002 sec
 distance/D3 list               ...        0 min,  0.000 sec (  1.121%)
 non bonded repulsion           ...        0 min,  0.000 sec (  5.720%)
 dCN                            ...        0 min,  0.000 sec (  7.419%)
 EEQ energy and q               ...        0 min,  0.000 sec ( 12.029%)
 D3                             ...        0 min,  0.000 sec ( 16.189%)
 EEQ gradient                   ...        0 min,  0.000 sec (  1.941%)
 bonds                          ...        0 min,  0.000 sec (  4.749%)
 bend and torsion               ...        0 min,  0.000 sec (  3.201%)
 bonded ATM                     ...        0 min,  0.000 sec (  1.884%)
 HB/XB (incl list setup)        ...        0 min,  0.001 sec ( 45.505%)

         :::::::::::::::::::::::::::::::::::::::::::::::::::::
         ::                     SUMMARY                     ::
         :::::::::::::::::::::::::::::::::::::::::::::::::::::
         :: total energy             -22.928462979736 Eh    ::
         :: gradient norm              0.366743517206 Eh/a0 ::
         ::.................................................::
         :: bond energy              -23.547717977428 Eh    ::
         :: angle energy               0.114326365023 Eh    ::
         :: torsion energy             0.065548506339 Eh    ::
         :: repulsion energy           1.572808534671 Eh    ::
         :: electrostat energy        -0.946150492900 Eh    ::
         :: dispersion energy         -0.153781205223 Eh    ::
         :: HB energy                 -0.005373604495 Eh    ::
         :: XB energy                  0.000000000000 Eh    ::
         :: bonded atm energy         -0.028123105724 Eh    ::
         :: external energy            0.000000000000 Eh    ::
         :: add. restraining           0.000000000000 Eh    ::
         :: total charge              -0.000000000000 e     ::
         :::::::::::::::::::::::::::::::::::::::::::::::::::::

           -------------------------------------------------
          |                Property Printout                |
           -------------------------------------------------

           -------------------------------------------------
          | TOTAL ENERGY              -22.928462979736 Eh   |
          | GRADIENT NORM               0.366743517206 Eh/α |
           -------------------------------------------------
           ------------------------------------------------- 
          |               Molecular Dynamics                |
           ------------------------------------------------- 
 trajectories on xtb.trj or xtb.trj.<n>

 MD time /ps        :   20.00
 dt /fs             :    2.00
 SCC accuracy       :    2.00
 temperature /K     :  355.00
 max steps          : 10000
 block length (av.) :  2500
 dumpstep(trj) /fs  :  500.00   250
 dumpstep(coords)/fs: 1000.00   500
 H atoms mass (amu) :     4
 # deg. of freedom  :   348
 SHAKE off
 Berendsen THERMOSTAT on
         time (ps)    <Epot>      Ekin   <T>   T     Etot
      0    0.00      0.00000   0.4081    0.    0.   -22.52037
est. speed in wall clock h for 100 ps :  0.02
    200    0.40    -22.71153   0.2789  509.  506.   -22.57564
    400    0.80    -22.77941   0.2588  481.  470.   -22.60433
    600    1.20    -22.80961   0.2326  463.  422.   -22.63508
    800    1.60    -22.82597   0.1913  445.  347.   -22.66475
   1000    2.00    -22.83771   0.2095  433.  380.   -22.69887
   1200    2.40    -22.84728   0.2046  424.  371.   -22.68203
   1400    2.80    -22.85458   0.1870  416.  339.   -22.69612
   1600    3.20    -22.86037   0.1841  410.  334.   -22.70628
   1800    3.60    -22.86498   0.1943  404.  353.   -22.71497
   2000    4.00    -22.86890   0.1991  400.  361.   -22.70414
   2200    4.40    -22.87228   0.2225  396.  404.   -22.69940
   2400    4.80    -22.87526   0.1885  393.  342.   -22.71827
block <Epot> / <T> :     -22.88570  392.     drift:  0.99D+02   Tbath : 355.
   2600    5.20    -22.87764   0.2061  390.  374.   -22.69946
   2800    5.60    -22.87955   0.1889  388.  343.   -22.70400
   3000    6.00    -22.88125   0.1849  385.  336.   -22.71219
   3200    6.40    -22.88274   0.1886  384.  342.   -22.72219
   3400    6.80    -22.88403   0.2000  382.  363.   -22.69688
   3600    7.20    -22.88497   0.1874  380.  340.   -22.70176
   3800    7.60    -22.88610   0.1909  379.  346.   -22.70223
   4000    8.00    -22.88694   0.2019  378.  366.   -22.70560
   4200    8.40    -22.88804   0.2055  377.  373.   -22.71225
   4400    8.80    -22.88888   0.1766  376.  320.   -22.70563
   4600    9.20    -22.88975   0.1798  375.  326.   -22.71869
   4800    9.60    -22.89023   0.1935  374.  351.   -22.70293
   5000   10.00    -22.89083   0.1959  373.  356.   -22.70936
block <Epot> / <T> :     -22.90511  355.     drift:  0.99D+02   Tbath : 355.
   5200   10.40    -22.89154   0.2179  373.  396.   -22.69853
   5400   10.80    -22.89221   0.2001  372.  363.   -22.70434
   5600   11.20    -22.89256   0.1843  371.  334.   -22.71536
   5800   11.60    -22.89308   0.1935  371.  351.   -22.71182
   6000   12.00    -22.89344   0.1973  370.  358.   -22.71583
   6200   12.40    -22.89384   0.1900  370.  345.   -22.71639
   6400   12.80    -22.89425   0.2037  369.  370.   -22.70776
   6600   13.20    -22.89469   0.1970  369.  358.   -22.71686
   6800   13.60    -22.89497   0.1963  368.  356.   -22.71231
   7000   14.00    -22.89534   0.1885  368.  342.   -22.71084
   7200   14.40    -22.89561   0.1837  368.  333.   -22.70860
   7400   14.80    -22.89589   0.1747  367.  317.   -22.71333
block <Epot> / <T> :     -22.90638  355.     drift:  0.99D+02   Tbath : 355.
   7600   15.20    -22.89618   0.1909  367.  346.   -22.71541
   7800   15.60    -22.89639   0.1850  367.  336.   -22.70571
   8000   16.00    -22.89672   0.1865  367.  338.   -22.70977
   8200   16.40    -22.89696   0.1960  366.  356.   -22.71368
   8400   16.80    -22.89712   0.1979  366.  359.   -22.70483
   8600   17.20    -22.89740   0.2004  366.  364.   -22.71613
   8800   17.60    -22.89758   0.2083  365.  378.   -22.70135
   9000   18.00    -22.89776   0.2105  365.  382.   -22.69163
   9200   18.40    -22.89803   0.1791  365.  325.   -22.71516
   9400   18.80    -22.89823   0.1603  365.  291.   -22.71535
   9600   19.20    -22.89837   0.2181  365.  396.   -22.70154
   9800   19.60    -22.89856   0.1945  364.  353.   -22.71009
 average properties 
 Epot               :  -22.898772710970892     
 Epot (accurate SCC):  -22.901315007758072     
 Ekin               :  0.20070920404922929     
 Etot               :  -22.698063506921663     
 T                  :   364.24720474474071     
 thermostating problem
 normal exit of md()

------------------------------------------------------------------------
 * finished run on 2025/03/14 at 13:04:52.127     
------------------------------------------------------------------------
 total:
 * wall-time:     0 d,  0 h,  0 min, 16.258 sec
 *  cpu-time:     0 d,  0 h,  0 min, 31.992 sec
 * ratio c/w:     1.968 speedup
 SCF:
 * wall-time:     0 d,  0 h,  0 min,  0.003 sec
 *  cpu-time:     0 d,  0 h,  0 min,  0.005 sec
Note: The following floating-point exceptions are signalling: IEEE_UNDERFLOW_FLAG
normal termination of xtb
 * ratio c/w:     1.679 speedup
 MD:
 * wall-time:     0 d,  0 h,  0 min, 16.249 sec
 *  cpu-time:     0 d,  0 h,  0 min, 31.983 sec
 * ratio c/w:     1.968 speedup

