156
 energy: -260.473636024954 gnorm: 0.290755851498 xtb: 6.7.1 (edcfbbe)
C            1.08420000000000        4.62310000000000       -1.79610000000000
C            1.43530000000000       -2.76430000000000       -0.78750000000000
C           -3.70210000000000        2.94140000000000       -2.03690000000000
C           -2.94640000000000        1.79300000000000       -1.82730000000000
C           -1.57060000000000        1.94820000000000       -1.43460000000000
C           -0.94510000000000        3.21280000000000       -1.60980000000000
C           -1.75890000000000        4.32510000000000       -1.82340000000000
C           -3.11490000000000        4.19320000000000       -1.99180000000000
C           -0.77550000000000        0.84980000000000       -0.95250000000000
C            0.62350000000000        0.90540000000000       -1.19870000000000
C            1.24000000000000        2.14440000000000       -1.53480000000000
N            0.45290000000000        3.29900000000000       -1.62910000000000
C           -1.27840000000000       -0.22920000000000       -0.14280000000000
C           -0.45480000000000       -1.37420000000000        0.02590000000000
N            0.79250000000000       -1.44430000000000       -0.61520000000000
C            1.40900000000000       -0.27420000000000       -1.07800000000000
C            2.77290000000000       -0.19960000000000       -1.34130000000000
C            3.37040000000000        1.01170000000000       -1.61700000000000
C            2.62080000000000        2.16540000000000       -1.70240000000000
C           -2.49120000000000       -0.13000000000000        0.62540000000000
C           -2.85520000000000       -1.19820000000000        1.43890000000000
C           -2.02290000000000       -2.28420000000000        1.60890000000000
C           -0.85400000000000       -2.38320000000000        0.90050000000000
O           -3.21750000000000        1.06120000000000        0.64610000000000
O           -3.42820000000000        0.50320000000000       -2.02860000000000
S           -4.12690000000000        5.67940000000000       -2.17050000000000
S           -2.39870000000000       -3.55150000000000        2.83550000000000
S            5.17210000000000        1.07340000000000       -1.76050000000000
O            5.36790000000000        2.57510000000000       -1.40980000000000
O            5.27800000000000        1.09740000000000       -3.44110000000000
C            4.88950000000000        2.30590000000000       -4.00550000000000
O           -2.98140000000000        6.73460000000000       -2.15670000000000
O           -4.65490000000000        5.73100000000000       -0.56990000000000
C           -3.72650000000000        6.32600000000000        0.27630000000000
O           -3.95010000000000       -3.54680000000000        2.74860000000000
O           -2.00010000000000       -4.87760000000000        1.88360000000000
C           -2.91530000000000       -5.06720000000000        0.85550000000000
H           -4.75470000000000        2.87300000000000       -2.23970000000000
H           -1.35130000000000        5.31850000000000       -1.83680000000000
H           -3.75160000000000       -1.15690000000000        2.02770000000000
H           -0.21930000000000       -3.22970000000000        1.08220000000000
H            3.40900000000000       -1.05610000000000       -1.21420000000000
H            3.14930000000000        3.08930000000000       -1.83700000000000
C            0.59090000000000       -3.69830000000000       -1.64450000000000
C            1.20630000000000       -5.07720000000000       -1.80830000000000
C            1.26800000000000        5.32390000000000       -0.45880000000000
C            1.80830000000000        6.73610000000000       -0.59670000000000
C           -4.57500000000000        0.92990000000000        1.00550000000000
C           -4.72300000000000        0.43080000000000       -2.57370000000000
H           -4.10610000000000        6.30330000000000        1.30170000000000
H           -3.57140000000000        7.35990000000000       -0.04540000000000
H           -2.77810000000000        5.78520000000000        0.22050000000000
H           -2.65100000000000       -5.97070000000000        0.29930000000000
H           -2.90420000000000       -4.20490000000000        0.18350000000000
H           -3.91320000000000       -5.17850000000000        1.29100000000000
H            5.20110000000000        2.32120000000000       -5.05300000000000
H            5.37490000000000        3.12470000000000       -3.46630000000000
H            3.80340000000000        2.40760000000000       -3.95180000000000
H            1.62480000000000       -3.19150000000000        0.19930000000000
H            2.41680000000000       -2.64800000000000       -1.24840000000000
H            0.43430000000000       -3.23090000000000       -2.62520000000000
H           -0.41390000000000       -3.78280000000000       -1.21320000000000
H            2.19610000000000       -5.01490000000000       -2.26290000000000
H            0.59520000000000       -5.72500000000000       -2.43980000000000
H            1.32100000000000       -5.57540000000000       -0.84460000000000
H           -5.09810000000000        1.84160000000000        0.71490000000000
H           -4.67090000000000        0.79740000000000        2.08180000000000
H           -5.01410000000000        0.08220000000000        0.47810000000000
H           -4.96500000000000       -0.61820000000000       -2.74700000000000
H           -4.75490000000000        0.96480000000000       -3.52420000000000
H           -5.44670000000000        0.85010000000000       -1.87450000000000
H            1.93200000000000        7.22210000000000        0.37300000000000
H            1.13670000000000        7.35700000000000       -1.19170000000000
H            2.77920000000000        6.73960000000000       -1.09410000000000
H            1.93150000000000        4.72090000000000        0.17300000000000
H            0.30780000000000        5.33450000000000        0.07260000000000
H            0.47570000000000        5.22750000000000       -2.47270000000000
H            2.03650000000000        4.52560000000000       -2.31960000000000
C            2.72560000000000        1.86460000000000        1.66880000000000
C            1.67350000000000       -5.16020000000000        3.83290000000000
C           -2.10080000000000        1.56430000000000        3.39820000000000
C           -1.49910000000000        0.38920000000000        3.83280000000000
C           -0.10470000000000        0.18260000000000        3.54520000000000
C            0.57150000000000        1.10120000000000        2.69660000000000
C           -0.12090000000000        2.21520000000000        2.22110000000000
C           -1.43050000000000        2.43500000000000        2.56360000000000
C            0.58190000000000       -1.01780000000000        3.93940000000000
C            1.69480000000000       -1.43690000000000        3.16920000000000
C            2.36980000000000       -0.49770000000000        2.34500000000000
N            1.87550000000000        0.81010000000000        2.25960000000000
C            0.14030000000000       -1.89450000000000        4.99060000000000
C            0.40280000000000       -3.28830000000000        4.86910000000000
N            1.39620000000000       -3.71830000000000        3.97760000000000
C            2.12680000000000       -2.79210000000000        3.22030000000000
C            3.23680000000000       -3.15450000000000        2.46470000000000
C            3.90950000000000       -2.23210000000000        1.69260000000000
C            3.48910000000000       -0.92010000000000        1.63680000000000
C           -0.52580000000000       -1.40690000000000        6.16820000000000
C           -1.19400000000000       -2.33010000000000        6.96180000000000
C           -1.13540000000000       -3.68160000000000        6.68090000000000
C           -0.31730000000000       -4.16450000000000        5.68510000000000
O           -0.44210000000000       -0.05030000000000        6.46130000000000
O           -2.24070000000000       -0.63930000000000        4.41170000000000
S           -2.32940000000000        3.81030000000000        1.81890000000000
S           -2.16250000000000       -4.83470000000000        7.61440000000000
S            5.34600000000000       -2.72270000000000        0.71030000000000
O            4.70200000000000       -2.54190000000000       -0.69890000000000
O            5.19650000000000       -4.38330000000000        0.97160000000000
C            4.46790000000000       -5.01830000000000       -0.02580000000000
O           -1.13370000000000        4.73260000000000        1.46230000000000
O           -2.87410000000000        4.51560000000000        3.24000000000000
C           -1.82950000000000        5.00820000000000        4.01250000000000
O           -3.24590000000000       -3.83530000000000        8.10970000000000
O           -2.92170000000000       -5.52150000000000        6.27900000000000
C           -3.82720000000000       -4.65060000000000        5.68400000000000
H           -3.13410000000000        1.76050000000000        3.61370000000000
H            0.30980000000000        2.87080000000000        1.48860000000000
H           -1.80990000000000       -2.00850000000000        7.78100000000000
H           -0.29220000000000       -5.22510000000000        5.51640000000000
H            3.59510000000000       -4.16520000000000        2.45860000000000
H            4.02060000000000       -0.23760000000000        1.00040000000000
C            0.91000000000000       -5.75690000000000        2.66080000000000
C            1.17680000000000       -7.23880000000000        2.46720000000000
C            3.97490000000000        2.16170000000000        2.48480000000000
C            4.87120000000000        3.18910000000000        1.81050000000000
C           -1.04960000000000        0.33340000000000        7.67040000000000
C           -3.50090000000000       -0.27270000000000        4.92380000000000
H           -2.24300000000000        5.53620000000000        4.87610000000000
H           -1.23700000000000        5.69970000000000        3.40570000000000
H           -1.19880000000000        4.18350000000000        4.35520000000000
H           -4.26550000000000       -5.13260000000000        4.80490000000000
H           -3.31560000000000       -3.73420000000000        5.37820000000000
H           -4.60820000000000       -4.40720000000000        6.41090000000000
H            4.48260000000000       -6.09780000000000        0.14490000000000
H            4.92080000000000       -4.78710000000000       -0.99430000000000
H            3.43910000000000       -4.65490000000000       -0.00870000000000
H            1.42810000000000       -5.67840000000000        4.76190000000000
H            2.74790000000000       -5.31760000000000        3.72030000000000
H            1.16540000000000       -5.20250000000000        1.74950000000000
H           -0.16300000000000       -5.57900000000000        2.80590000000000
H            2.23570000000000       -7.42760000000000        2.28380000000000
H            0.61740000000000       -7.64710000000000        1.62330000000000
H            0.89520000000000       -7.80780000000000        3.35430000000000
H           -0.88780000000000        1.40230000000000        7.81300000000000
H           -0.59630000000000       -0.20940000000000        8.50090000000000
H           -2.12180000000000        0.14020000000000        7.62560000000000
H           -3.87230000000000       -1.09440000000000        5.53750000000000
H           -4.20220000000000       -0.09860000000000        4.10910000000000
H           -3.40420000000000        0.61900000000000        5.54390000000000
H            5.77240000000000        3.39260000000000        2.39190000000000
H            4.34860000000000        4.13650000000000        1.67060000000000
H            5.18640000000000        2.85170000000000        0.82120000000000
H            4.52970000000000        1.23270000000000        2.66320000000000
H            3.67700000000000        2.50570000000000        3.48360000000000
H            2.15690000000000        2.78660000000000        1.55080000000000
H            2.99360000000000        1.55790000000000        0.65850000000000
156
 energy: -260.526241962762 gnorm: 0.187130441196 xtb: 6.7.1 (edcfbbe)
C            1.07740609654727        4.61312411770583       -1.79416533584905
C            1.42598427116626       -2.75389622044163       -0.78687828801671
C           -3.70012032247667        2.93517132027482       -2.04198973934011
C           -2.93992444178684        1.79789150032850       -1.82029504042386
C           -1.56859642410859        1.94266172027833       -1.44554670913827
C           -0.93848513680803        3.20293526865136       -1.62112453017129
C           -1.74502549855112        4.32041842466318       -1.82493428407838
C           -3.10285799008648        4.18377551543150       -1.98876069718936
C           -0.78159581279548        0.85060415516955       -0.95304199904749
C            0.61870662326263        0.90630346683936       -1.19460390855696
C            1.23057393902519        2.14602807553189       -1.53232545520408
N            0.45066065762259        3.29535021076617       -1.62668258348366
C           -1.27394107079047       -0.22036482948646       -0.13727868959685
C           -0.44409549834918       -1.36268599327648        0.03060666181247
N            0.78675378978808       -1.44151446055674       -0.62466475896081
C            1.40227822266086       -0.27327671371000       -1.07013095982251
C            2.76645533380875       -0.20641342282776       -1.33357786920687
C            3.35459427026288        1.01135009048029       -1.62090115256043
C            2.61089125270522        2.17306262878660       -1.70126469759126
C           -2.47934199782085       -0.13186077773511        0.62662460553113
C           -2.84772522386360       -1.18822438623066        1.44471743559199
C           -2.01850996876593       -2.27833909130908        1.60203941263625
C           -0.83397481503150       -2.37364111149550        0.90566150850281
O           -3.20846720649818        1.04540569031400        0.62886889119490
O           -3.42076100585664        0.51991578962140       -2.01743287077105
S           -4.09643218799905        5.68312390543844       -2.15819542105970
S           -2.42704564107948       -3.54150433004764        2.82213309396793
S            5.15512994618024        1.09901600955154       -1.76521243284482
O            5.39819834402257        2.54734584164063       -1.38287771043053
O            5.27570043236180        1.09589653993690       -3.44058956681053
C            4.89013978280618        2.30584936120913       -4.01848525850143
O           -3.02013482357381        6.75016901945660       -2.20499446718689
O           -4.65672800110486        5.73096472535591       -0.57127961765803
C           -3.72759545989445        6.33088616572931        0.28476733174101
O           -3.94069409458674       -3.52964113019407        2.78660989583112
O           -2.00601266608278       -4.87026058381048        1.88340341438013
C           -2.91852306483070       -5.07447182282492        0.84684314648113
H           -4.75598877863011        2.87341358134060       -2.24675162315556
H           -1.34644203318396        5.31917491442160       -1.84187866229923
H           -3.75489138485592       -1.16328291230020        2.02265574136053
H           -0.20931360898939       -3.23146062828579        1.08034170820697
H            3.40779965446112       -1.06315639476494       -1.22625495660296
H            3.14916255125416        3.09436211721967       -1.83285755471188
C            0.58033249122322       -3.69300316914407       -1.64743128244794
C            1.20814502907295       -5.07175163222885       -1.80571756337199
C            1.26482959502731        5.31868470237896       -0.45277115903047
C            1.80815567208119        6.73226626815711       -0.60342025399292
C           -4.56663225188468        0.92764335825332        1.00025552033054
C           -4.71522378908292        0.43414185240787       -2.56852493263915
H           -4.11952484650663        6.29923838708953        1.30010475108810
H           -3.56464668085180        7.36598748186985       -0.02639160092173
H           -2.77524358312371        5.79703124712744        0.23911240274425
H           -2.64142678138549       -5.97793090330366        0.30516483295548
H           -2.91096582819752       -4.21494434374626        0.16944586497021
H           -3.92008818519822       -5.18238466470994        1.27244711046779
H            5.21185826361061        2.31131734487856       -5.05859457491297
H            5.36630101108105        3.13062698299713       -3.47765090170132
H            3.80253683749266        2.41480492162473       -3.97045562238322
H            1.61164301384240       -3.18814301337651        0.20117917015413
H            2.40328696337049       -2.63447527893194       -1.25348107138644
H            0.44134483869069       -3.23201014440403       -2.63028700572527
H           -0.41716050534521       -3.79039319200354       -1.20973503194642
H            2.19519276850687       -5.00626083084596       -2.26193765713798
H            0.59247340077344       -5.71149505274064       -2.43704409395357
H            1.31660981755308       -5.56938958999613       -0.84227358919946
H           -5.07556296092092        1.84725537648053        0.70787697876999
H           -4.67581734797667        0.80043054544101        2.07993430772098
H           -5.02537253577924        0.08066418590442        0.48501740887989
H           -4.94086844002082       -0.61928038861777       -2.73685951815036
H           -4.76102694442299        0.96299482771964       -3.52508365735771
H           -5.45765016293330        0.84709416494313       -1.88073481196631
H            1.92745666512020        7.20864790949747        0.36894736853029
H            1.13182413991543        7.35012772599382       -1.19278592146706
H            2.78015980163152        6.73267175953460       -1.09665644975529
H            1.94368795883424        4.72412991375114        0.16742845383168
H            0.30624921624640        5.34094365750217        0.07298038295666
H            0.46278585126347        5.21965431712475       -2.46394894582515
H            2.03461127591331        4.50956901740784       -2.30919286975545
C            2.72299171744993        1.85272759751525        1.67621487395486
C            1.67195292385661       -5.14724468108542        3.83380766030969
C           -2.10378405248890        1.55362367807049        3.39065625810843
C           -1.49418122860249        0.38768297604968        3.82438685520015
C           -0.10977456931128        0.17275166942020        3.53915805566320
C            0.56941140394342        1.08569951023707        2.68679407427055
C           -0.11660471685499        2.19914266522608        2.20523451068341
C           -1.42177361510543        2.42943948039946        2.56775219919083
C            0.57561745581717       -1.01873739593582        3.94309124988278
C            1.68602413917056       -1.43619957986711        3.16751582542802
C            2.36054894168823       -0.49323007599666        2.34684234916400
N            1.87515042552225        0.80905416784170        2.27035653405574
C            0.14773286451802       -1.89131361914808        4.99569576050537
C            0.41308721177422       -3.28221271883645        4.87242966585193
N            1.38983470095792       -3.71461221210461        3.97488985246285
C            2.11413219081658       -2.79055379229878        3.22080706767410
C            3.22882110644881       -3.15668476196132        2.47582115403249
C            3.90218439554279       -2.22486243795815        1.70939779510512
C            3.48648719274619       -0.90798790854024        1.64189568380564
C           -0.52663489494427       -1.41358009364102        6.15920396645222
C           -1.18709101855945       -2.32590331896489        6.96412789587402
C           -1.12981881882452       -3.67469638040881        6.67422244968707
C           -0.30596367974437       -4.16471684021962        5.67978940293084
O           -0.44860915523327       -0.06973772311393        6.44826393858270
O           -2.22102696382991       -0.62513135291632        4.41897419990699
S           -2.30564672636100        3.81484425900921        1.82433181644303
S           -2.18206365612799       -4.80998854123358        7.60782345536576
S            5.31961342503812       -2.72121505134447        0.70038340894348
O            4.74282918934838       -2.51794734691186       -0.69269777712305
O            5.21561013258480       -4.38192038355746        0.95963564204040
C            4.47058530805054       -5.02777529459222       -0.03078649819755
O           -1.15564276258667        4.71586382450667        1.42405316805495
O           -2.87267669303599        4.50438330553369        3.24252520671431
C           -1.83053715844756        5.01204652504415        4.02216279274612
O           -3.22535919432302       -3.85619003788673        8.15277328345046
O           -2.91802298446875       -5.52143752578154        6.27825465527329
C           -3.83417236788420       -4.65277218471606        5.67873757181144
H           -3.13508509656460        1.76371445744707        3.61750207624783
H            0.31655564780165        2.87747867220136        1.49204469417685
H           -1.80739381461322       -2.01327667016326        7.78657227881630
H           -0.28513364041459       -5.22816394925427        5.51604446274245
H            3.59304629171146       -4.16786137560787        2.47133188487789
H            4.02479453980708       -0.23105567381649        1.00303506532599
C            0.90675586633946       -5.75159923158236        2.65878981504413
C            1.18169040837470       -7.23645347151002        2.47183236120337
C            3.97529831776235        2.15525615429516        2.49701247481323
C            4.86371808429319        3.18615686665837        1.80900569270365
C           -1.04841022283418        0.32778621106335        7.66152826720385
C           -3.49140771024913       -0.27288368392613        4.92386575391387
H           -2.25569007791967        5.53828401073044        4.87572191111603
H           -1.23218625593005        5.70107642674659        3.41832430877302
H           -1.19210631131510        4.19344613056618        4.36934875068032
H           -4.26221968005370       -5.14127774535760        4.80597969442267
H           -3.33104204470043       -3.73281894597884        5.36638687912814
H           -4.61925736312049       -4.40291075902781        6.39786711839070
H            4.49595782768314       -6.10057172736583        0.15496740772910
H            4.90424803631030       -4.80639143946961       -1.00862752189556
H            3.43789229845548       -4.67212853169801       -0.01449838877865
H            1.41780874680290       -5.66375320641667        4.76122292795137
H            2.74708788488914       -5.30167214783718        3.71260734772372
H            1.17468947846214       -5.20813918421424        1.74680173868419
H           -0.16354084479016       -5.58793096241428        2.80920263665587
H            2.23918649983431       -7.42235359126342        2.28508694342991
H            0.61826054511888       -7.63443437181339        1.62872286159289
H            0.89425055479434       -7.80164898636483        3.35731404101360
H           -0.87592685705019        1.39703235268754        7.78922955337154
H           -0.60077032329083       -0.20587056132287        8.50471654810513
H           -2.12533583244925        0.14376523645879        7.63745943039942
H           -3.85165647105221       -1.10407238626457        5.53058272095242
H           -4.20608268626913       -0.10270719471374        4.11467709476820
H           -3.41712333589924        0.62177738284236        5.54684006646799
H            5.76007553925055        3.38359903166096        2.39558693473640
H            4.34036038969469        4.13220703738163        1.67744650675376
H            5.17903692113308        2.84858056288094        0.82207875609769
H            4.53797089723677        1.23221258252196        2.66191268199004
H            3.67431860397426        2.51431566185368        3.48651722206111
H            2.15323401269456        2.77443085257393        1.57073660438737
H            3.00111593039582        1.55097867609855        0.66588434657688
156
 energy: -260.554523410333 gnorm: 0.031795904800 xtb: 6.7.1 (edcfbbe)
C            1.07031928520158        4.60042851142378       -1.79345400950020
C            1.41559578961653       -2.73887856565029       -0.78641578181131
C           -3.70187846401129        2.93622388155341       -2.04780925559277
C           -2.93429657553223        1.80714448716965       -1.82036520098500
C           -1.56797178240325        1.93935494382712       -1.45737001009969
C           -0.93241454323955        3.19594922612754       -1.63101624378884
C           -1.73442505869920        4.31934018348027       -1.82261547077951
C           -3.09587012678524        4.18132587269121       -1.97999358554441
C           -0.78834901897830        0.85257728043687       -0.95300020790215
C            0.61627922255165        0.90849383745973       -1.18989651190268
C            1.22225331199346        2.14873599097946       -1.52840867746905
N            0.44805060795841        3.29212610039387       -1.62246589383864
C           -1.26937775247349       -0.20986001846951       -0.12850253526675
C           -0.43196184753834       -1.35042704587734        0.04020654086977
N            0.77969124247928       -1.43729660171992       -0.63750250133851
C            1.39815360298369       -0.27025431697845       -1.06256828027581
C            2.76419478957619       -0.21041366394806       -1.32863291673086
C            3.34259038670429        1.01156748552421       -1.62851437073571
C            2.60374992410519        2.18021080701263       -1.69972119238504
C           -2.46874390566193       -0.13303527584947        0.62964662384320
C           -2.84298477740948       -1.18316719469606        1.44739599507251
C           -2.01633317343054       -2.27785271382941        1.59253658682707
C           -0.81385251542716       -2.36447857135425        0.91364056797782
O           -3.20087489398760        1.02750460437165        0.61050557155530
O           -3.41455149020135        0.54134550915203       -2.00890378858684
S           -4.06670221634762        5.70292609799434       -2.15752243281092
S           -2.46508022788852       -3.53100078608293        2.81561047730933
S            5.15033385826689        1.12791420110938       -1.76165968861166
O            5.39936391680904        2.50746699106642       -1.37247092470551
O            5.26902303318738        1.09231950312743       -3.43099846706762
C            4.88817929137450        2.30396472279866       -4.02951176164369
O           -3.05091334002526        6.72837189642235       -2.23574385109887
O           -4.65627595033515        5.73191586677616       -0.58349509039623
C           -3.72834346231257        6.33394269601765        0.29129712806776
O           -3.91407867197177       -3.50557609257066        2.80924734659471
O           -2.01318072733033       -4.85868579239676        1.88541182529549
C           -2.92231465840748       -5.07977208331682        0.83758415163170
H           -4.75851670013700        2.88294863184587       -2.25380979780384
H           -1.34986779404266        5.32398188892322       -1.84498803023698
H           -3.75706220854726       -1.17506793707515        2.01761047068781
H           -0.20303142021374       -3.23322151606215        1.08483241885578
H            3.41380018134660       -1.06249676436970       -1.24097557562130
H            3.15527135970336        3.09528241131077       -1.82790642222172
C            0.56934692232814       -3.68653603883005       -1.65007839952830
C            1.20881721057746       -5.06643509947201       -1.80335014352266
C            1.26380851894732        5.31219585372588       -0.44768714797421
C            1.80778068087228        6.72909030840128       -0.61002727442025
C           -4.55763484766362        0.92765974673541        0.99447927320869
C           -4.70749441598025        0.43537631503110       -2.56314975900373
H           -4.13582192429099        6.29299357073173        1.29663577918369
H           -3.56095970777804        7.37152910258356       -0.00880265542038
H           -2.77336438408770        5.80645896294733        0.25640272833259
H           -2.63123296629868       -5.98471125101185        0.31316389665368
H           -2.91595255718465       -4.22510792434850        0.15198605513167
H           -3.92806648901148       -5.18671468874912        1.25268521512459
H            5.22262409879656        2.29782803570291       -5.06199835662723
H            5.35674394082304        3.13667751287841       -3.49098850788691
H            3.79919853185038        2.42029013279674       -3.99248671836508
H            1.59897822374948       -3.18169194956235        0.20098134731989
H            2.38706881200323       -2.62190759214076       -1.26134167371694
H            0.44615499479147       -3.23311979572936       -2.63402682145111
H           -0.42018048489672       -3.79632084310694       -1.20762607034900
H            2.19299164992656       -4.99557447657201       -2.25997363330739
H            0.58928676777162       -5.69880454662978       -2.43496621220521
H            1.31144808702178       -5.56142196405573       -0.83964398423402
H           -5.04687976760493        1.85661957677537        0.69900033749160
H           -4.67673442579954        0.80596884498580        2.07739680496196
H           -5.03729340474606        0.08180956536055        0.49186456261033
H           -4.91014611736568       -0.62361916591758       -2.72408195993898