116
 energy: -22.928061455056 gnorm: 0.329736929581 xtb: 6.6.1 (8d0f1dd)
C           -3.31122850772930        0.79849766164622       -0.92477639677520
C           -2.44380812530352       -0.12270372891954       -0.27661132624697
C           -1.41337090092821        0.39579727573559        0.56335275196199
C           -0.89266158675590        1.65801491088749        0.27377586709581
C           -1.72665675402493        2.51431363229076       -0.49448366572522
C           -2.95444148494349        2.13954154133227       -1.01494489940871
C           -0.74098268209890       -0.43411532818871        1.49825021926784
C            0.56872586496315        0.03782116815119        1.86248088067890
C            1.03782416582094        1.29402317993033        1.50887470833621
N            0.31238977034758        2.07067427098208        0.65193736800696
C           -1.29695700510141       -1.39996043042223        2.41574187746061
C           -0.38243517664656       -2.18060797534842        3.13232615520648
N            0.91308504082021       -1.90366887689689        3.30325166013478
C            1.37712470144904       -0.74872102533751        2.81811050966982
C            2.52149331701875       -0.17739833758153        3.39379298866852
C            2.95849061756259        1.02681208890480        2.95105897606587
C            2.24288949469137        1.78498308775960        2.03503020483770
C           -2.74860936222260       -1.74497937691422        2.38401158947411
C           -3.09416315450955       -2.91614440870436        3.00571134491758
C           -2.16786021984049       -3.77788778654213        3.63251872101904
C           -0.85708937311598       -3.40495313382985        3.68547234358092
O           -3.71994433332149       -0.94984598373544        1.67726658385724
O           -2.55702603277562       -1.47241711578389       -0.57241635275616
C           -3.84297843593025        3.13357444054366       -1.60938954875544
C           -2.68769581069131       -5.03867041417370        4.30484659386931
H           -1.39666850744143        3.51251503834900       -0.76806311868865
H           -4.27662633836220        0.55105838579656       -1.33106614114542
H            2.66329581305412        2.73912661909249        1.72562431984580
H            3.05775395548473       -0.69369546277216        4.16536137542516
H           -0.24710966264510       -4.12034095424229        4.22946223699121
H           -4.11477991332403       -3.04712728052358        3.03244694615357
O           -4.21824883374556        4.03433712717988       -0.87713382485991
O           -4.44510595673734        2.90643496899600       -2.81853501752979
C           -5.44216520282800        3.83300025693726       -3.02488532025093
C            4.23586651889298        1.50004220933226        3.59165660008449
O            5.05927614697201        0.66079890002952        3.91714215179376
O            4.47001334453535        2.86385149488593        3.72605651435371
C            5.79457498613219        3.08584475587818        4.15829123132174
O           -3.82227255313510       -5.27347675879771        4.16636005494405
O           -1.85023202017753       -5.79767454267276        5.06656077253571
C           -2.55119635829503       -6.86252441382958        5.62930343183426
C           -5.07197156564436       -1.42399175670916        1.58830531863830
C           -1.33089900128490       -2.23622472573986       -0.99264499351172
H           -2.54510546830388       -7.76426885143998        4.99136022291012
H           -3.57194749219491       -6.44405511486021        5.74196173723541
H           -2.09133598235598       -7.02043774843818        6.64022264233588
H            5.72707967266424        3.46798026205549        5.10135971236643
H            6.34060091246885        3.78468702308830        3.50069950143490
H            6.17933064298187        2.03010500085905        4.19342358084693
H           -0.91862729772622       -2.57650129080332       -0.01361370304871
H           -0.49769766914251       -1.60651221708571       -1.34094446550576
H           -1.52632419730509       -2.94569707152159       -1.75361447637286
H           -5.11788846557077       -2.41810833635233        1.17520213188926
H           -5.67929807973498       -0.69619639428435        1.04301666067831
H           -5.57598832326623       -1.42383358739762        2.57928294206544
H           -6.13050215934830        3.76035386975488       -2.23272855695873
H           -5.86615610071888        3.45938329385866       -4.02668959924245
H           -5.13479557532099        4.87790991548477       -2.98314551356402
C           -1.38192942069774        3.73616555005018        2.91232598411686
C           -1.84821468128685        2.59982427735607        3.49755545445181
C           -1.05946531454833        2.05730632010638        4.60922730982276
C            0.19893954712228        2.69376791964407        4.86302140881997
C            0.50425395911860        3.94630308659851        4.28768785650746
C           -0.26031777722226        4.46998310053134        3.25072669343212
C           -1.20488993561782        0.74454293276906        5.14851520323437
C           -0.06287609782692        0.02744069315890        5.60930570802864
C            1.19208754369866        0.71421540266195        5.78882868583885
N            1.19428660993148        2.06344359410476        5.62744624321596
C           -2.41361422770794        0.07928500213936        5.25249410304426
C           -2.45851584031083       -1.32662100968547        5.60237876023992
N           -1.29466212405906       -1.98318595734370        5.89916817085159
C           -0.14475655767527       -1.32117560077092        5.98824682881008
C            0.97209270935794       -1.98958449505532        6.53157704134458
C            2.21982707914082       -1.36973967291181        6.68703967237737
C            2.30561929262884       -0.09745313075593        6.26436900324455
C           -3.73018485967715        0.71367583494582        5.25810242262992
C           -4.89964478833448       -0.06184623426677        5.21204641615509
C           -4.82617965800088       -1.39228978090841        5.46901303780036
C           -3.67144193418464       -1.98914944386360        5.67265433266067
O           -3.75568638935321        2.07705011038914        5.52067969627343
O           -2.94192434743730        1.91263938797883        3.01658762327703
C            0.21273512614467        5.50086066357994        2.34765104514621
C           -6.06660304520411       -2.17604633098929        5.80641622556876
H            1.41756699010566        4.38133362238595        4.66974005703471
H           -1.82880610647429        4.11982501512100        2.06992133318584
H            3.26888037378556        0.32655662585251        6.31721410015598
H            0.87146188387207       -3.08471526305024        6.57830423410869
H           -3.67716811065157       -3.05999292755990        5.83019634570050
H           -5.77379677507622        0.43595144608221        4.71017130754348
O            1.34459852619901        5.82615848916894        2.44941456579099
O           -0.74718748219123        6.07961784856304        1.59848183464284
C           -0.21473095568964        7.24015934882472        1.05753806029483
C            3.53228080814219       -2.00967610361154        7.02506769044485
O            3.64093082622715       -3.14437803815732        7.50071391725347
O            4.56565258381079       -1.22937033368332        6.69086985080897
C            5.72579357310716       -1.80692399125161        7.22246151275881
O           -7.04801223588612       -1.95726935745904        5.14194115322235
O           -6.01514389321278       -2.93743591896022        6.94765316328794
C           -7.21292732384718       -3.62681918543340        7.15115816329978
C           -4.95459780685163        2.65960679932188        5.86868674392943
C           -3.68284113682406        2.59129188358641        2.05479246020704
H           -7.43119628931628       -4.22607794725959        6.20622607140901
H           -8.06548455146707       -2.91765848248592        7.29781126410398
H           -7.07314693247270       -4.33087306029711        7.91223421050944
H            6.57332189837178       -1.29353136199234        6.78341268688262
H            5.74663761932316       -2.84282155125561        6.88089468184451
H            5.69426191474290       -1.72781984964892        8.29460302186842
H           -4.10481209541493        3.44288266176275        2.60483747673152
H           -4.49244774344916        1.87419893016926        1.82433103764650
H           -3.18901540870812        2.85154642679373        1.06781919454921
H           -5.55414326821421        2.76698137191684        4.93950725322359
H           -4.78658370641210        3.62090640967288        6.25983200635257
H           -5.43485580473958        1.97242995129449        6.65265772412460
H            0.89164886030839        7.38838561720231        1.13776105146914
H           -0.62894889903848        8.04195665205089        1.64837664327952
H           -0.59282546386754        7.45699159724320        0.03719083132488
116
 energy: -22.436977964704 gnorm: 0.662140950647 xtb: 6.6.1 (8d0f1dd)
C           -2.33264144294342        0.78512154288559       -1.38134445856500
C           -1.49142028814298       -0.30393488785128       -0.89780358749473
C           -0.63068956105796       -0.23128958871335        0.24746984104240
C           -0.20218374490645        1.18231876149123        0.49950470900914
C           -0.98860532021057        2.29125869527126       -0.06042454634275
C           -2.30167720342256        2.09821480957709       -0.69512422031325
C           -0.15211711958392       -1.32116364570996        1.09097706785591
C            1.08423139507230       -1.08358158786014        1.53121276328680
C            1.61651197304872        0.26145605912469        1.47920590652473
N            1.03084472128433        1.39389107792926        0.89655531966965
C           -0.90616095352053       -2.38978905758337        1.78101145851126
C           -0.11827752245302       -3.47532047262374        2.23539896419163
N            1.29742590936291       -3.33661988651026        2.25409119509633
C            1.89406695883799       -2.09409562922514        2.08683276008817
C            3.33053911305928       -1.77553410094349        2.13819491392096
C            3.74900713537442       -0.50464832485099        2.39934980286332
C            2.89078982255604        0.48323072657767        2.02785826359950
C           -2.34006732453509       -2.43003751153947        1.60687179783411
C           -2.79290424853751       -3.59315199443329        2.24038066890158
C           -2.11912263026223       -4.59561998832534        2.87665176894741
C           -0.70234445550431       -4.60195281365948        2.72071648891352
O           -3.10024520548257       -1.41000626298299        0.82608947037330
O           -1.75830905846232       -1.40812317098486       -1.74230412284437
C           -3.58239395142670        2.72413031507679       -0.55437932747110
C           -2.80305805085227       -5.29142005051905        3.98013515920684
H           -0.55282247834494        3.32758390316485        0.42600881012598
H           -3.08174685886922        0.58451950651522       -2.05134305430722
H            3.25418390456687        1.53630692586371        2.18676085979092
H            4.04638733605724       -2.62769335974294        2.32645620355906
H           -0.00626553886625       -5.07832533391633        3.46154413138127
H           -4.01785830910175       -3.68343164750597        2.11882926601002
O           -4.04718612575153        2.79749332888027        0.63991919398029
O           -4.29434357604884        2.63573917757842       -1.80891603523805
C           -5.55156442975259        3.06228590978116       -1.37311556850387
C            5.11616161802793       -0.47845088978241        3.05083185957263
O            5.41401199649412       -1.59045614749858        3.57691798555283
O            5.61685099712204        0.68144118640996        3.18173902440312
C            6.62678731392373        0.71126996453790        4.21844522547976
O           -4.05816032227364       -5.09849194603242        3.78360989519408
O           -2.25755974819864       -5.85827284472033        5.13393389292613
C           -3.39511245130692       -6.29785039555355        6.01018505939229
C           -3.86057467730554       -1.98184532293596       -0.29620602318840
C           -1.01766493363359       -1.22318931509227       -2.91702773319626
H           -4.39785486740974       -6.10332664063150        5.77220349699858
H           -3.05629720182639       -5.93778259901286        7.00622877650322
H           -3.15522239351868       -7.33192139533182        6.23270543170745
H            7.19569282207257        1.60095993148438        4.08668059182176
H            7.21562232048547       -0.16931507604941        3.86840368649146
H            6.66714921894322        0.22777799742362        5.27476259758421
H           -0.11895401679108       -0.52604451200213       -2.86240981507812
H           -1.80598562421872       -0.82285066095820       -3.40468334705830
H           -0.48036248667081       -2.04644863436743       -3.47181566264140
H           -4.03964738780217       -2.91585782326346        0.05069636814160
H           -3.17825033491701       -2.28519571662770       -1.10305374875471
H           -4.87892054591581       -1.48603295937634       -0.41804564278211
H           -5.59008364448565        3.58681156468271       -0.33560903137333
H           -6.35179545255001        2.23370516749159       -1.41746827793713
H           -5.89123809549264        3.94179630575555       -2.00813561938349
C           -2.53144978992757        4.29176727528000        3.22464806068749
C           -2.67527069688961        3.04594060030362        4.04891047140474
C           -1.77904551933225        2.95804646706774        5.07665633160758
C           -0.63448674911332        3.79711113819606        5.28314639734606
C           -0.32594223309921        4.91348777750961        4.31206243703851
C           -1.33951110627490        5.16743090998713        3.34125283065905
C           -1.72533780857770        1.64137609031640        5.76227147964978
C           -0.42394152614175        1.09679625362829        6.15426094121508
C            0.58650616771451        1.95847543905474        5.95040245046539
N            0.46299278010259        3.32494385702327        5.83906453234745
C           -2.83275096775330        0.82433892057346        6.19927809232117
C           -2.48919287319123       -0.56652285809353        6.36223183346830
N           -1.27220921770855       -1.16151171505246        6.51095573786063
C           -0.23800205519579       -0.26426572928230        6.66333086259438
C            1.00260307133455       -0.53709451102767        7.16750065795446
C            2.17448434874887        0.36047291568912        7.16821087582230
C            1.83066974476729        1.57415217042762        6.40996221419154
C           -4.05129296789985        1.37388646682304        6.43237410075575
C           -5.09105208271410        0.39473154498370        6.67336240351178
C           -4.83158349136538       -0.88114070244345        6.66519488932608
C           -3.55489890181387       -1.36842328582601        6.71146946600615
O           -4.37799732627079        2.80007758973671        6.28964756680312
O           -3.32010354018453        1.86938368269891        3.65630563485631
C           -1.32552123027137        6.31911260981221        2.51669991625645
C           -5.84913706073049       -1.87643467452421        6.19950931111683
H            0.21608483749146        5.69015193212986        4.43871129680016
H           -3.24299373720447        4.59250671402216        2.59337011512776
H            2.41066515640067        2.50097279728255        6.36828701291752
H            0.93824407025529       -1.24610406151016        7.97740819055308
H           -3.41544935665015       -2.40045871665333        6.76428886963500
H           -6.02714551691260        0.82244380614446        6.73385670195238
O           -2.24954982506229        7.12186557463126        2.56439013075694
O           -0.24464695415066        6.40429901343781        1.62014107725677
C           -0.54363125445938        7.44154410482427        0.66366957974117
C            3.68246348547275       -0.06701878269750        7.17355975548559
O            4.69680590561642        0.59206026504003        6.86623982321471
O            3.66811213034302       -1.42891559341699        7.36408567895884
C            4.73347064037770       -2.20158283223454        6.70673080971766
O           -6.72481303125857       -2.11544108096488        7.02160652826505
O           -5.64408150093501       -2.24999964076961        4.87379971020836
C           -6.89197076231762       -2.86207808189239        4.41481141259231
C           -5.27745306087628        3.35459007383555        7.36056100177719
C           -4.77625854646964        1.92714879624908        3.23474934656579
H           -6.62421867163057       -3.80418399821598        4.08961917797977
H           -7.43742321376102       -2.09535452800033        3.78211665230379
H           -7.49516297202013       -3.04850169014505        5.13996115610423
H            4.88960503270009       -1.95563653117280        5.63351200714914
H            4.79597356949938       -3.34892077354179        6.80704064476904
H            5.57367693695234       -1.68139813595876        7.11054842607129
H           -5.45172733603955        2.63710807903261        4.09201879401498
H           -5.20323980464532        0.96218802458171        3.05716843440602
H           -4.97795786678694        2.61622884176415        2.42032702871617
H           -5.82124170247228        4.27846334696747        6.93322619423564
H           -4.43408860328030        3.91171140435557        8.02294561761876
H           -5.91237025582109        2.56459317478257        7.81203777186636
H           -1.03467206386570        7.23312163762148       -0.22166689270670
H            0.40939695891903        8.00741231453897        0.51256288552361
H           -1.35300448903325        8.20184404225014        1.00993167300905
116
 energy: -22.465652577670 gnorm: 0.606380459038 xtb: 6.6.1 (8d0f1dd)
C           -2.66536363232547        0.31508232986802       -0.52190356537769
C           -2.16483964977694       -0.85052765333612        0.14175290492041
C           -1.43394906275795       -0.53497310255916        1.29593713502494
C           -0.78189410880133        0.72157722906426        1.59168412686383
C           -1.23697345842818        1.72536023088802        0.78701541065626
C           -2.22077272226134        1.62806939509067       -0.14304610344777
C           -0.81722559828402       -1.63514468765065        2.11686430902688
C            0.52471999057810       -1.46972110294915        2.53143313266518
C            1.06030281019649       -0.14044149343134        2.62362233475399
N            0.44345738559321        0.93505298718206        2.22821997956217
C           -1.41173529408203       -2.97438939824276        2.38361468314038
C           -0.47430105498835       -3.92514677289488        2.75117338038046
N            0.69703042443882       -3.80601765325099        3.39707791470862
C            1.24752030025703       -2.65893933176102        3.03051333384141
C            2.52600729246083       -2.44789474180526        3.40198853912136
C            3.08546752862507       -1.15661731571639        3.31956170549122
C            2.45188544126847       -0.05104298710120        2.87877636048411
C           -2.79696628616894       -3.31599591085202        2.45859400294291
C           -3.16505428878762       -4.69397691016832        2.69090631630077
C           -2.26851976270242       -5.73447341053535        2.67476507036064
C           -0.90368476705512       -5.34460724064509        2.82720914526769
O           -3.70198549417692       -2.16741235715214        2.63724221949683
O           -2.23458742717290       -2.08215197614365       -0.33475913816325
C           -2.47044315289532        2.77781760108485       -1.05645716404441
C           -2.37353168088708       -7.21519714453124        2.99721877928997
H           -0.80262717636151        2.64801005968933        1.00501215667344
H           -3.60165395113074        0.33404939313851       -1.04496230936621
H            2.92369198601057        0.76098968200779        2.49346288349057
H            3.19327246561508       -3.17516418842966        3.60418552154292
H           -0.15400606437328       -5.95343857520301        3.29374261699852
H           -3.99382310144784       -4.80686780944620        3.48444177206230
O           -1.78724025898430        3.73286580366171       -0.79980211907766
O           -3.33891413344112        2.87087607770365       -2.11984303916281
C           -2.84138046550180        3.92805598335426       -3.08057035846726
C            4.52847633447705       -0.98246560765242        3.67751194300117
O            5.00976186696748       -1.99531248328248        3.92229719201557
O            5.07399019676077        0.29952784101229        3.52213561592306
C            6.44684355600716        0.40754731505202        3.46296721667387
O           -3.08269363462895       -7.76448640540977        2.07943145124147
O           -1.91423393529764       -7.61664134638883        4.21279244134973
C           -2.07493812314728       -9.08395922869457        4.16875149958529
C           -5.20674510291624       -2.42101124887530        2.66615378866165
C           -2.00847950027963       -2.25293060173751       -1.78781677777187
H           -2.56713803139729       -9.33101484434353        3.20567095452972
H           -2.94633362878738       -9.33678482698110        4.67847927572561
H           -1.31967983886087       -9.89835515261736        4.44762189300897
H            6.63062362352216        1.49758371043471        3.05445268580610
H            6.96930427376401       -0.20851957894463        2.71015959448786
H            6.92941546923171        0.56421906955415        4.47184101875856
H           -1.18502381638905       -1.63660880423865       -2.04602822828499
H           -2.87426985564921       -1.80737336521582       -2.42855221700942
H           -2.17658429652274       -3.31304343537848       -2.17700356678102
H           -5.63446226043355       -1.41568830189216        2.26581021089458
H           -5.66431940542619       -2.16680464804968        3.70664604543978
H           -5.47559110053376       -3.22589034129098        1.97429006244745
H           -1.78008306789127        3.84838616063591       -3.24028866488304
H           -3.10959153616117        4.80222757624028       -2.55225643673910
H           -3.14213642894712        4.29217816337079       -4.05614627577214
C           -3.14621129784581        5.51135809309751        3.28086524192210
C           -3.03682651095164        4.07376786393809        3.41479511878955
C           -1.71973709079033        3.58587883184376        3.93698130007040
C           -0.41960530490163        4.41891167679366        3.97917989501254
C           -0.65952605793313        5.81027939433337        3.70511031898512
C           -1.93226357327207        6.21807875562671        3.40389311172856
C           -1.36945812249735        2.29755100304784        4.57481101276440
C           -0.11600496851821        1.89394185120771        4.86462281187822
C            0.94218054869304        2.89225868457526        5.00114864771928
N            0.77056761396087        4.24227434963775        4.44658475761407
C           -2.33384318619445        1.29234641029928        4.97300081120334
C           -1.92807025737573       -0.10406325667401        4.86661229106569
N           -0.72558232283860       -0.48323263908963        5.13172050976773
C            0.17814742243773        0.48074961547914        5.30738867116879
C            1.50145561553269        0.29375654061248        6.01432713876529
C            2.44892317499149        1.21040606330540        5.81834898250846
C            2.31643495966815        2.52075662490896        5.20934099338313
C           -3.78470902972579        1.58496839940379        5.18676691014412
C           -4.74696003207468        0.56809607156087        4.93558451027126
C           -4.41310891566466       -0.73545496976669        4.99166422641979
C           -3.05258714526352       -1.00093214774801        4.99294175619468
O           -4.22258787380648        2.61273146075273        6.07811111764053
O           -4.27436930029092        3.36302186761763        3.13940181849275
C           -2.00958576331093        7.79427665528475        3.31202906072096
C           -5.48813901078831       -1.83151826965588        5.24417767728604
H           -0.07136877256573        6.61715117264861        3.87790418788572
H           -4.14153356996929        5.71679106927314        3.20621640565444
H            3.07940274858508        2.68514633677321        4.52222507542410
H            1.77395641919566       -0.66772633672003        6.60582652797764
H           -2.74798272906984       -2.00904996312269        5.17470250219085
H           -5.73725255829970        0.72360862184780        5.01803816499713
O           -3.07837729253472        8.32025693460198        2.97462243769685
O           -1.03551714148617        8.40931185866705        4.05545263731058
C           -1.19457100693838        9.78407002639345        3.92941329812048
C            3.69538793079699        0.52235408261645        6.38450001958856
O            4.49148466043521        0.96570315726770        7.19526240561736
O            3.68785097920104       -0.87721403833385        6.53232627396702
C            4.64078177511726       -1.29136671706058        7.59250860023579
O           -5.09310868794640       -2.96088285689248        5.41082717400217
O           -6.81741044017707       -1.46525327079049        5.42656725711786
C           -7.51896291612923       -2.67545247998548        5.91459755900098
C           -3.67187046337131        2.46178968104681        7.52809224412689
C           -4.41077516929608        2.36451354312142        2.12509029676846
H           -8.50785906206040       -2.38041399918143        5.96596230667306
H           -7.20288427766993       -2.79820810299283        7.09970455014403
H           -7.40372022420441       -3.71101818375970        5.35941685844512
H            5.44649063017177       -0.53880721318000        7.58451896030610
H            4.79542688787995       -2.31797548869669        7.02047926517973
H            4.20976189502434       -1.65509730003849        8.51704699768874
H           -3.63456177073929        1.47698787511215        2.14018135918716
H           -4.45544409387083        2.73954077107211        1.15706986927784
H           -5.44408771388332        1.79444978804645        2.24016874596402
H           -3.92900724039214        1.39784540732959        7.94708316453361
H           -3.99120154521193        3.25939246711838        8.17285805115789
H           -2.53234037200390        2.70436236425098        7.49307857555357
H           -0.91013271539318        9.85181324035917        4.92533860689253
H           -2.28545717215985        9.97980090246610        4.00929332713719
H           -0.67753220023004       10.73511665964274        3.27844613246758
116
 energy: -22.481171735859 gnorm: 0.625154280368 xtb: 6.6.1 (8d0f1dd)
C           -1.62049146495101       -0.70913320089993       -1.92905221831750
C           -1.25325433710859       -1.74098020786344       -0.98527985207111
C           -0.52043683346671       -1.26664919083264        0.17036984202212
C           -0.07590416354763        0.00215380423987        0.17684806109008
C           -0.50409186571887        0.91305355569394       -0.71378830336271
C           -1.43460308459910        0.58219823573639       -1.69327868838806
C           -0.46525819158902       -2.19976420252367        1.36163531511549
C            0.60757192295367       -1.87837087282623        2.23893913362182
C            1.40417667242061       -0.73132213578823        1.84305234460654
N            1.02157704740102        0.27793373989852        0.88318878285208
C           -1.07842315820371       -3.42829258530705        1.88375538563217
C           -0.33629709191391       -4.36875096097341        2.56840814705719
N            0.95655653622438       -4.02814325930063        2.98707297079971
C            1.28825591132946       -2.74348100554152        3.10900339579891
C            2.61324133628053       -2.65292898188051        3.55310316177456
C            3.39068157129650       -1.59322172467074        2.98001283038154
C            2.66831817581330       -0.54386601332528        2.40462281979012
C           -2.51151827495312       -3.44778420604230        2.06112758454548
C           -3.01383595579385       -4.78608013627622        2.14007652172162
C           -2.23109688628332       -5.87868663958344        2.52448019640046
C           -0.94618449710807       -5.63382731672972        2.97899256770375
O           -3.36374430438430       -2.27888335557410        1.97410159757461
O           -1.68987201691622       -2.93072815439896       -1.26941990827331
C           -2.38851524968740        1.76499507002652       -2.23045124792666
C           -2.91437922842721       -7.20600024761249        2.46412456733228
H            0.13148545402618        1.66347296092414       -1.03469561181251
H           -2.26428881797756       -1.16325113039222       -2.72949403122614
H            3.40700400589830        0.28491931505521        2.23712067427666
H            2.96029403419187       -3.43460805792811        4.15091777879536
H           -0.37329743436899       -6.48491436405007        3.14350276820286
H           -4.13595865618034       -4.87343582133329        1.85863240193246
O           -2.72278936729302        2.84470259897618       -1.73745329436293