116
 energy: -22.928061455056 gnorm: 0.329736929581 xtb: 6.6.1 (8d0f1dd)
C           -3.31122850772930        0.79849766164622       -0.92477639677520
C           -2.44380812530352       -0.12270372891954       -0.27661132624697
C           -1.41337090092821        0.39579727573559        0.56335275196199
C           -0.89266158675590        1.65801491088749        0.27377586709581
C           -1.72665675402493        2.51431363229076       -0.49448366572522
C           -2.95444148494349        2.13954154133227       -1.01494489940871
C           -0.74098268209890       -0.43411532818871        1.49825021926784
C            0.56872586496315        0.03782116815119        1.86248088067890
C            1.03782416582094        1.29402317993033        1.50887470833621
N            0.31238977034758        2.07067427098208        0.65193736800696
C           -1.29695700510141       -1.39996043042223        2.41574187746061
C           -0.38243517664656       -2.18060797534842        3.13232615520648
N            0.91308504082021       -1.90366887689689        3.30325166013478
C            1.37712470144904       -0.74872102533751        2.81811050966982
C            2.52149331701875       -0.17739833758153        3.39379298866852
C            2.95849061756259        1.02681208890480        2.95105897606587
C            2.24288949469137        1.78498308775960        2.03503020483770
C           -2.74860936222260       -1.74497937691422        2.38401158947411
C           -3.09416315450955       -2.91614440870436        3.00571134491758
C           -2.16786021984049       -3.77788778654213        3.63251872101904
C           -0.85708937311598       -3.40495313382985        3.68547234358092
O           -3.71994433332149       -0.94984598373544        1.67726658385724
O           -2.55702603277562       -1.47241711578389       -0.57241635275616
C           -3.84297843593025        3.13357444054366       -1.60938954875544
C           -2.68769581069131       -5.03867041417370        4.30484659386931
H           -1.39666850744143        3.51251503834900       -0.76806311868865
H           -4.27662633836220        0.55105838579656       -1.33106614114542
H            2.66329581305412        2.73912661909249        1.72562431984580
H            3.05775395548473       -0.69369546277216        4.16536137542516
H           -0.24710966264510       -4.12034095424229        4.22946223699121
H           -4.11477991332403       -3.04712728052358        3.03244694615357
O           -4.21824883374556        4.03433712717988       -0.87713382485991
O           -4.44510595673734        2.90643496899600       -2.81853501752979
C           -5.44216520282800        3.83300025693726       -3.02488532025093
C            4.23586651889298        1.50004220933226        3.59165660008449
O            5.05927614697201        0.66079890002952        3.91714215179376
O            4.47001334453535        2.86385149488593        3.72605651435371
C            5.79457498613219        3.08584475587818        4.15829123132174
O           -3.82227255313510       -5.27347675879771        4.16636005494405
O           -1.85023202017753       -5.79767454267276        5.06656077253571
C           -2.55119635829503       -6.86252441382958        5.62930343183426
C           -5.07197156564436       -1.42399175670916        1.58830531863830
C           -1.33089900128490       -2.23622472573986       -0.99264499351172
H           -2.54510546830388       -7.76426885143998        4.99136022291012
H           -3.57194749219491       -6.44405511486021        5.74196173723541
H           -2.09133598235598       -7.02043774843818        6.64022264233588
H            5.72707967266424        3.46798026205549        5.10135971236643
H            6.34060091246885        3.78468702308830        3.50069950143490
H            6.17933064298187        2.03010500085905        4.19342358084693
H           -0.91862729772622       -2.57650129080332       -0.01361370304871
H           -0.49769766914251       -1.60651221708571       -1.34094446550576
H           -1.52632419730509       -2.94569707152159       -1.75361447637286
H           -5.11788846557077       -2.41810833635233        1.17520213188926
H           -5.67929807973498       -0.69619639428435        1.04301666067831
H           -5.57598832326623       -1.42383358739762        2.57928294206544
H           -6.13050215934830        3.76035386975488       -2.23272855695873
H           -5.86615610071888        3.45938329385866       -4.02668959924245
H           -5.13479557532099        4.87790991548477       -2.98314551356402
C           -1.38192942069774        3.73616555005018        2.91232598411686
C           -1.84821468128685        2.59982427735607        3.49755545445181
C           -1.05946531454833        2.05730632010638        4.60922730982276
C            0.19893954712228        2.69376791964407        4.86302140881997
C            0.50425395911860        3.94630308659851        4.28768785650746
C           -0.26031777722226        4.46998310053134        3.25072669343212
C           -1.20488993561782        0.74454293276906        5.14851520323437
C           -0.06287609782692        0.02744069315890        5.60930570802864
C            1.19208754369866        0.71421540266195        5.78882868583885
N            1.19428660993148        2.06344359410476        5.62744624321596
C           -2.41361422770794        0.07928500213936        5.25249410304426
C           -2.45851584031083       -1.32662100968547        5.60237876023992
N           -1.29466212405906       -1.98318595734370        5.89916817085159
C           -0.14475655767527       -1.32117560077092        5.98824682881008
C            0.97209270935794       -1.98958449505532        6.53157704134458
C            2.21982707914082       -1.36973967291181        6.68703967237737
C            2.30561929262884       -0.09745313075593        6.26436900324455
C           -3.73018485967715        0.71367583494582        5.25810242262992
C           -4.89964478833448       -0.06184623426677        5.21204641615509
C           -4.82617965800088       -1.39228978090841        5.46901303780036
C           -3.67144193418464       -1.98914944386360        5.67265433266067
O           -3.75568638935321        2.07705011038914        5.52067969627343
O           -2.94192434743730        1.91263938797883        3.01658762327703
C            0.21273512614467        5.50086066357994        2.34765104514621
C           -6.06660304520411       -2.17604633098929        5.80641622556876
H            1.41756699010566        4.38133362238595        4.66974005703471
H           -1.82880610647429        4.11982501512100        2.06992133318584
H            3.26888037378556        0.32655662585251        6.31721410015598
H            0.87146188387207       -3.08471526305024        6.57830423410869
H           -3.67716811065157       -3.05999292755990        5.83019634570050
H           -5.77379677507622        0.43595144608221        4.71017130754348
O            1.34459852619901        5.82615848916894        2.44941456579099
O           -0.74718748219123        6.07961784856304        1.59848183464284
C           -0.21473095568964        7.24015934882472        1.05753806029483
C            3.53228080814219       -2.00967610361154        7.02506769044485
O            3.64093082622715       -3.14437803815732        7.50071391725347
O            4.56565258381079       -1.22937033368332        6.69086985080897
C            5.72579357310716       -1.80692399125161        7.22246151275881
O           -7.04801223588612       -1.95726935745904        5.14194115322235
O           -6.01514389321278       -2.93743591896022        6.94765316328794
C           -7.21292732384718       -3.62681918543340        7.15115816329978
C           -4.95459780685163        2.65960679932188        5.86868674392943
C           -3.68284113682406        2.59129188358641        2.05479246020704
H           -7.43119628931628       -4.22607794725959        6.20622607140901
H           -8.06548455146707       -2.91765848248592        7.29781126410398
H           -7.07314693247270       -4.33087306029711        7.91223421050944
H            6.57332189837178       -1.29353136199234        6.78341268688262
H            5.74663761932316       -2.84282155125561        6.88089468184451
H            5.69426191474290       -1.72781984964892        8.29460302186842
H           -4.10481209541493        3.44288266176275        2.60483747673152
H           -4.49244774344916        1.87419893016926        1.82433103764650
H           -3.18901540870812        2.85154642679373        1.06781919454921
H           -5.55414326821421        2.76698137191684        4.93950725322359
H           -4.78658370641210        3.62090640967288        6.25983200635257
H           -5.43485580473958        1.97242995129449        6.65265772412460
H            0.89164886030839        7.38838561720231        1.13776105146914
H           -0.62894889903848        8.04195665205089        1.64837664327952
H           -0.59282546386754        7.45699159724320        0.03719083132488
116
 energy: -22.799681876763 gnorm: 0.456428855532 xtb: 6.6.1 (8d0f1dd)
C           -3.27213787422484        0.32991351715621       -1.15664545216550
C           -2.59524652008880       -0.63969223728419       -0.47262893182171
C           -1.50765755863947       -0.24396543364366        0.40212280360391
C           -1.13495663787095        1.10026530543480        0.47388898894240
C           -1.80106676911368        2.04797959053325       -0.27195227222472
C           -2.85871898328105        1.66981413921692       -1.08438832835503
C           -0.77247369884299       -1.08329888296008        1.34431068897997
C            0.47260406332211       -0.60015109335429        1.79336120507178
C            0.77866748016203        0.77301956448632        1.71300377941440
N           -0.01465592121223        1.67129065302868        1.09568707692217
C           -1.24941264308926       -2.30038867917862        1.79799972805858
C           -0.19736578615352       -3.09606061487121        2.47991785969384
N            1.03839920286647       -2.66271523083250        2.89170762765005
C            1.34203767684188       -1.41638725512261        2.52093901409514
C            2.64244426284963       -1.07992068821197        2.87314941925838
C            3.05502401881624        0.25373878259975        2.69147845691874
C            2.03062737272663        1.20260713955608        2.26669816489031
C           -2.65453599339200       -2.67923032207474        2.03321441512511
C           -2.92680166367589       -3.94092795702898        2.51632834377548
C           -1.88933247571282       -4.85905595261806        2.73962918039004
C           -0.61215821221740       -4.37265865152200        2.79546691607718
O           -3.46233379205690       -1.52756024830213        2.11618596849452
O           -2.82559039232265       -1.91921791329007       -1.01994842060180
C           -3.50490691871587        2.74547965976992       -1.92217377379198
C           -2.26569544905930       -6.22551889289865        3.07370703986513
H           -1.61766123697195        3.16984841304951       -0.21311383982525
H           -4.02011947491630       -0.09802297638997       -1.83547796576521
H            2.45980102735351        2.17616493172495        2.29863424006972
H            3.32861501963909       -1.84888637424060        3.17857546108905
H            0.11761769668838       -5.17536112826436        3.04185054691765
H           -3.91536757643716       -4.25997110693490        2.83829533648067
O           -3.08226919928729        3.86698982567782       -1.83333954628656
O           -4.43247472249144        2.37493138201206       -2.88002816602913
C           -5.10681400804248        3.54920532248800       -3.53642640221357
C            4.39286042616933        0.62936918794935        3.12089973035841
O            5.08418838783431       -0.00846523277695        3.93690618625246
O            5.01065065636572        1.72843370650657        2.53215898795538
C            6.31475705992873        1.93738574082702        3.06928780791346
O           -3.41418549187051       -6.68375750876062        3.04057259072467
O           -1.13398049852673       -6.89689558505359        3.47640333500335
C           -1.36332555670498       -8.06758607367109        4.19773746102263
C           -4.32184499747475       -1.46706387395829        3.27588554850002
C           -1.70351051626171       -2.60360224609209       -1.39123827819236
H           -0.90195446537821       -7.91375545011370        5.26760402873049
H           -0.90346714958081       -9.00167343960298        3.77587503757418
H           -2.44050043508589       -8.23905147413654        4.36261576037478
H            6.38458084565653        1.09361014425608        3.67775422864731
H            6.33974869676942        2.93470257063282        3.52708857039271
H            7.11317564164007        2.18770227222934        2.25970747940165
H           -2.02499489979753       -3.35991233515169       -2.08610641596673
H           -1.13253359609127       -3.02484398375289       -0.63982864544400
H           -1.15471560393359       -1.80296637692553       -1.96926001078618
H           -5.38957918747190       -1.44759009034120        2.96779457227725
H           -4.14084310383772       -0.53363882385390        3.79198971560772
H           -4.17559244714575       -2.37754844213184        3.79614304307582
H           -5.04186358417197        4.29136423319421       -2.81595528684065
H           -6.17323288851981        3.39853593806829       -3.71483680640572
H           -4.45055168223790        3.90618009733039       -4.39060892256385
C           -1.73000164565236        4.52139880399427        3.43563594353759
C           -1.98855050163630        3.31278653763496        4.05904500382354
C           -1.03653593559810        2.87040987569572        4.97718272439846
C            0.22892975388490        3.48792203759710        4.92897666543892
C            0.46224801512029        4.64764804688940        4.33108790379019
C           -0.56795935520103        5.30464911582796        3.64553950572070
C           -1.21232926916200        1.56105209606735        5.68268221775535
C           -0.08960402677253        0.80023207698685        5.78013602343643
C            1.15769994985831        1.48381039869685        5.90059533626789
N            1.31417858741654        2.85320312955745        5.54734006726672
C           -2.52470168879350        0.94194062449881        5.95681087827168
C           -2.45450601886389       -0.42724158145695        5.95561395743730
N           -1.37914532664368       -1.23312716242376        5.98106041929238
C           -0.09278095042142       -0.64403509449348        5.97706810149259
C            1.07132329277338       -1.39456293071451        6.30134523381513
C            2.22452445117595       -0.67300184101069        6.60712499228535
C            2.26285435029750        0.71965477062342        6.48670248623309
C           -3.76185538721657        1.58477035614648        6.22177447841558
C           -5.00733303764963        0.90813531832970        6.49424667502742
C           -5.03787374384302       -0.51877047530205        6.26535454496394
C           -3.75597543495610       -1.10619565028214        6.08240274131126
O           -3.60873451616334        2.98926151092706        6.47957919628048
O           -3.22818341372295        2.64281426845189        3.83172582534851
C           -0.57374335752890        6.63840721451139        3.06111845477493
C           -6.36134625722445       -1.27840686800728        6.17391266406071
H            1.43665009022497        4.97458197046203        4.21470527351483
H           -2.38387845828433        4.77542537379154        2.68129697915254
H            3.24873098505717        1.15144957425987        6.43586754553162
H            1.13638930590284       -2.42875020686400        6.46593785071782
H           -3.74072944011814       -2.25868307338808        6.25101271359001
H           -5.92289988000870        1.27330506103075        6.73085768790913
O            0.48374758462175        7.33825247474217        3.13706887777507
O           -1.70020638015123        6.90274696337100        2.34764087848231
C           -1.42095617910962        8.15416312564564        1.82806453288713
C            3.33184777645786       -1.49378306774266        7.10226448393648
O            3.22634398738275       -2.69409639443398        6.96516637891964
O            4.34865052205697       -0.92856233867102        7.82032773976817
C            5.23790956769734       -2.07392165989624        8.06559313911925
O           -7.41557168887503       -0.68187639437353        6.49417207522897
O           -6.21241039786913       -2.50407311997346        5.71331526474881
C           -7.41340226060866       -3.23292848429178        6.00681403376716
C           -4.76734066888613        3.73460155593483        6.49487175378385
C           -3.47513019880490        2.35647908977304        2.44261188085867
H           -8.41944343921773       -2.68810023422532        5.72376812623924
H           -7.49123593167372       -3.37789784193205        7.06506770486597
H           -7.24934416576254       -4.09372721858682        5.43809714954623
H            6.13327143015423       -1.85942022181983        7.57605161655282
H            4.91931556980157       -3.00968087655214        7.48946797718314
H            5.33850027577587       -2.16742519632568        9.20690586946924
H           -3.71158152830479        3.26698396652973        1.80590396427484
H           -4.47918238327679        1.81032714455939        2.46026978355497
H           -2.66866308563597        1.84290183987453        2.06541261684918
H           -5.49343043663487        3.38394095684538        5.60324765638420
H           -4.62217152625894        4.84731664233213        6.33929637860702
H           -5.29871886368030        3.51117100995530        7.52931669314778
H           -0.89198058579354        8.68383224117302        2.67703793552876
H           -2.38406285794851        8.69606094401443        1.84471715477468
H           -0.85255905008948        8.24344136495641        0.85187359040978
116
 energy: -22.824942314009 gnorm: 0.419845520874 xtb: 6.6.1 (8d0f1dd)
C           -3.20206696916821       -0.20836531185577       -0.66054126425478
C           -2.30577329385919       -1.04052306523302       -0.07784723803657
C           -1.32363283658890       -0.45373535324728        0.85869496523917
C           -0.93101695439341        0.89725192413961        0.80423351887923
C           -1.68991277458379        1.67443101039506       -0.09543708247252
C           -2.74184617759164        1.09178460822449       -0.74142978108351
C           -0.69341916065537       -1.25307442210774        1.85508629438703
C            0.57760964439578       -0.85425835470626        2.28007953566274
C            0.96011277009824        0.45834153030487        2.06138500255977
N            0.14448691917403        1.32981008676494        1.49255296730225
C           -1.14677173714598       -2.48046382430615        2.46884738073343
C           -0.12342915032155       -3.36388525640044        3.03128174405793
N            1.19416427355620       -3.05163827852941        3.17444869767360
C            1.53691879007332       -1.80966709082912        2.84505360950254
C            2.81603718930372       -1.38238943221556        3.21193668853075
C            3.11234695755499       -0.03618806714323        3.08327173012059
C            2.22524504330925        0.84250719924143        2.48985340652578
C           -2.49995272273572       -2.89912524884245        2.64282593412885
C           -2.79827395913333       -4.26262625673646        2.88529603923907
C           -1.86795719374087       -5.05793678697353        3.36355614044071
C           -0.55906766416613       -4.64239673107901        3.56606767236005
O           -3.48970982887989       -1.91369957579107        2.43981150535291
O           -2.43005705154379       -2.35994318888257       -0.40266447917768
C           -3.62245847391420        2.03535566868263       -1.49076967884245
C           -2.27197901750178       -6.50224468176158        3.14460380596332
H           -1.53704894583398        2.81311237727170       -0.14320758773454
H           -4.17498388903542       -0.44195413222597       -1.17907180867747
H            2.59712791196814        1.76673644297555        2.16855270176298
H            3.55696112540456       -2.04452615294872        3.62002970005434
H            0.24093127148698       -5.36696398873657        3.99192588897075
H           -3.78497198235083       -4.71427639174424        2.64278888009323
O           -3.33925717150604        3.20371260391105       -1.68290293739082
O           -4.59233872752263        1.49623279420172       -2.20422137292676
C           -5.26439999431242        2.33391597119513       -3.03852668989345
C            4.53769035699526        0.54674142549801        3.26055627429187
O            5.43189047253108       -0.27189568867721        3.37857909319258
O            4.63411101520888        1.93460177763115        3.24273198123129
C            5.87911141852683        2.29589717983947        3.39955817528728
O           -3.42428768228446       -6.80147467433000        2.97676584744502
O           -1.14160613727441       -7.27301784928224        2.84749573897029
C           -1.61146194321010       -8.56618225558334        2.66747224486766
C           -4.87891406639103       -2.30018903096070        2.39432828847475
C           -1.30713906280461       -3.18450627523498       -0.27621056889491
H           -0.85047761536429       -9.24533445197797        2.49050914149501
H           -2.33704242765473       -8.48280135639517        1.87715489585437
H           -2.23353319284103       -8.69742997057637        3.55531559612148
H            5.87396378950821        3.32951595365970        3.95714299187705
H            6.51082393610356        2.21033707868071        2.47103053858601
H            6.39660351337059        1.60911490285974        4.02405001480579
H           -0.35786050663802       -2.71691320753166       -0.31226729661330
H           -1.41413185091297       -3.98014659269931       -1.11982793336548
H           -1.43825861048504       -3.77419569469045        0.61028554167022
H           -5.01865413962599       -2.92749117190880        1.51655820618085
H           -5.38653103680417       -1.31038618048330        2.36353630594425
H           -5.22184791630627       -2.96290884529401        3.23929739506980
H           -6.29856870226624        2.39437427271381       -2.44002745174015
H           -5.41448828693685        1.78377571779736       -3.96595032881899
H           -4.74283103852389        3.27652036502146       -3.12093199205877
C           -1.61709743761653        5.11071004062273        3.15438872186487
C           -1.95928501857079        3.81185768001960        3.63529103084588
C           -1.06975402935019        3.09810264651327        4.65677384089411
C            0.22812511716198        3.61737668533730        4.86577635381529
C            0.48667009964334        4.95892080749762        4.46309117854690
C           -0.46457645399153        5.67840257582648        3.70284741481633
C           -1.29470861411938        1.75175076186484        5.06891608074919
C           -0.19535452373148        1.05933935951452        5.45214818220801
C            1.10465280736794        1.68307379512987        5.71531872135898
N            1.24880228332023        2.98737359232918        5.40067634730799
C           -2.57660910109873        1.10273646463798        5.12686596872830
C           -2.58619249025684       -0.30303414695750        5.06404377398805
N           -1.42408004365039       -1.02666347462028        5.31849350755467
C           -0.30474595134582       -0.35426672698209        5.71440965003576
C            0.80831078320689       -1.07558267818352        6.17242063103690
C            2.07351658832054       -0.39914133469157        6.35551887370226
C            2.17254156510966        0.93710555610927        6.25135580796981
C           -3.67155152526208        1.86916518341617        5.53711395396258
C           -4.88113567441477        1.13709441497986        5.72028603767009
C           -4.96709252614911       -0.25670608008869        5.72197640657687
C           -3.87329569759399       -0.98834893096089        5.31294252215411
O           -3.49906671086716        3.19983220306382        6.02761327285862
O           -3.25328036260622        3.27511164076631        3.22791920123934
C           -0.31321185170656        7.12846276974655        3.45866669116512
C           -6.30738381846855       -1.01816889689708        5.85862238326369
H            1.49618424344462        5.29346579128994        4.82332655894044
H           -2.09997647276436        5.58304836198623        2.37338906468233
H            3.11178270045752        1.40258285220754        6.20348687355049
H            0.91464498201848       -2.08738495175407        6.07150525235811
H           -3.80818069507548       -2.07441941598333        5.44726066053210
H           -5.79107098038124        1.76388868508246        5.85506279821570
O            0.62949615991876        7.76079366281232        3.79692434304247
O           -1.36451940601190        7.70759968315280        2.73567081413486
C           -0.99208875802393        9.12641839130727        2.75168813628697
C            3.22890869076337       -1.30320398479435        6.53060564749459
O            2.94227276631286       -2.32441822205278        7.06675052550435
O            4.44660834525391       -0.82475705567903        6.10123732780169
C            5.31450580571787       -1.77812417435375        6.33647586505546
O           -7.18895012494820       -0.30831931464954        6.29632486808785
O           -6.38568444262729       -2.30244776126927        5.33223236944739
C           -7.74366454185486       -2.74151019789651        5.44880065733470
C           -4.30970569522839        3.53290479656208        7.11983321732750
C           -4.36420643250496        4.16354909098838        3.59875064613461
H           -8.46039597080894       -1.89441653643592        5.51814753645106
H           -7.84437294766799       -3.32776415321575        6.48100988582368
H           -8.06735170697620       -3.41954509270099        4.63152999868268
H            5.27574502117026       -2.72880382520046        5.67840752926005
H            5.07145783758565       -2.30377246723937        7.23676708321971
H            6.41254938692542       -1.40180476453868        6.31395859683907
H           -4.13004175187670        4.66521764144636        4.51246575786629
H           -5.34678476050539        3.71810514826698        3.86244540150455
H           -4.66361073980578        4.89820804711691        2.79471627233784
H           -5.42785101415765        3.19756710862978        7.21011758646824
H           -4.26872929994608        4.59136787201933        7.02510208237165
H           -3.91735440589232        3.30464537221992        8.18382177006096
H           -0.37253837479761        9.49312948395636        3.64970762430973
H           -1.92645474603467        9.58797384397537        2.65327380215816
H           -0.53366656431620        9.40567573344286        1.80374649807554
116
 energy: -22.837234053893 gnorm: 0.406555849954 xtb: 6.6.1 (8d0f1dd)
C           -3.51811003277458        0.14066371501306       -0.24569409507099
C           -2.69010597167439       -0.84569995637926        0.24870230307348
C           -1.46434378595311       -0.58511117106660        1.03198218972462
C           -1.12828295141351        0.87274095409604        0.99168803790921
C           -2.04229148857794        1.85958343124969        0.60320154827974
C           -3.20233937212712        1.47045350817082        0.00151003488588
C           -0.59745411940292       -1.61910627764442        1.70012720116263
C            0.68903315206742       -1.08566361331399        1.97978951759665
C            1.00733130256822        0.28924924589792        1.72100758612792
N            0.11835984668861        1.21026282385031        1.25227927844750
C           -0.92748185723229       -2.97517685326065        2.03911614641844
C            0.17522657768810       -3.73894777404907        2.50370060121026
N            1.39644081591403       -3.20864063615177        2.83238803124527
C            1.66757849691471       -1.91460480324184        2.54041150639277
C            2.90150126266955       -1.36014359583103        2.98092141354724
C            3.14984687983214       -0.00202311821555        2.81991441391097
C            2.28255060504367        0.84398607180382        2.11041401769858
C           -2.23678064167122       -3.32904632328932        2.32654556106114
C           -2.47637471426746       -4.60093629850652        2.82001675162459
C           -1.38977834399169       -5.39523470621920        3.12559974541096
C           -0.10580437213574       -4.98334404886620        2.96465940421717
O           -3.28402589152282       -2.43180289568757        2.21013993392703
O           -3.06797951301468       -2.12597669212170       -0.16474595644717
C           -3.95667546010709        2.52217342683086       -0.70896752761080
C           -1.54405420666024       -6.74170937021791        3.65623554546105
H           -1.91871873682630        2.97613627997966        0.70296278715450
H           -4.50367695387738       -0.03957197938256       -0.71738285566496
H            2.51636349175071        1.90313651185615        2.08061310341152
H            3.73773618185815       -2.04838323611260        3.19924303015629
H            0.72539075328349       -5.59069815122531        3.37339254975661
H           -3.45289109082970       -4.99906991427212        3.03113327104672
O           -3.74475068043647        3.69770234496687       -0.41587512180185