218
 energy: -579.948517859479 gnorm: 0.495581110085 xtb: 6.7.1 (edcfbbe)
C            0.81570000000000       -0.36990000000000        3.94460000000000
C            1.02090000000000       -0.99070000000000        2.71440000000000
C            2.31820000000000       -0.99910000000000        2.11940000000000
C            3.26980000000000       -0.09540000000000        2.68180000000000
C            2.99120000000000        0.53670000000000        3.91010000000000
C            1.81320000000000        0.34390000000000        4.56940000000000
C            2.76520000000000       -1.93090000000000        1.11180000000000
C            4.09940000000000       -1.74180000000000        0.69600000000000
C            4.86330000000000       -0.62430000000000        1.14520000000000
N            4.46750000000000        0.17610000000000        2.13770000000000
C            2.12890000000000       -3.14240000000000        0.65490000000000
C            3.00180000000000       -4.13980000000000        0.09240000000000
N            4.21610000000000       -3.88390000000000       -0.42360000000000
C            4.73540000000000       -2.68250000000000       -0.16120000000000
C            6.01360000000000       -2.39690000000000       -0.66490000000000
C            6.69300000000000       -1.25990000000000       -0.30950000000000
C            6.13690000000000       -0.39860000000000        0.60300000000000
C            0.70700000000000       -3.53960000000000        0.73780000000000
C            0.44670000000000       -4.93330000000000        0.86680000000000
C            1.36030000000000       -5.88160000000000        0.48890000000000
C            2.59410000000000       -5.48470000000000        0.04930000000000
O           -0.08470000000000       -1.53000000000000        2.13070000000000
C           -3.78920000000000       -2.34260000000000       -0.11010000000000
C           -3.11800000000000       -1.13560000000000        0.07800000000000
C           -3.41120000000000       -0.02640000000000       -0.77760000000000
C           -4.41220000000000       -0.24120000000000       -1.77600000000000
C           -4.86140000000000       -1.54970000000000       -2.05320000000000
C           -4.52050000000000       -2.59560000000000       -1.25060000000000
C           -2.89720000000000        1.31520000000000       -0.61040000000000
C           -3.69890000000000        2.32250000000000       -1.19100000000000
C           -4.74440000000000        1.99220000000000       -2.09820000000000
N           -5.00760000000000        0.73790000000000       -2.47860000000000
C           -1.72320000000000        1.77000000000000        0.08140000000000
C           -1.63370000000000        3.17520000000000        0.35650000000000
N           -2.51940000000000        4.10060000000000       -0.05400000000000
C           -3.49670000000000        3.68950000000000       -0.86370000000000
C           -4.33970000000000        4.66290000000000       -1.41960000000000
C           -5.33070000000000        4.33460000000000       -2.30840000000000
C           -5.52590000000000        3.01930000000000       -2.64610000000000
C           -0.53640000000000        0.97340000000000        0.36720000000000
C            0.57840000000000        1.61910000000000        0.93750000000000
C            0.60630000000000        2.94720000000000        1.24100000000000
C           -0.49790000000000        3.70970000000000        0.99020000000000
O           -2.15050000000000       -1.17950000000000        1.05130000000000
B           -0.71190000000000       -1.46260000000000        0.79210000000000
N           -0.32640000000000       -2.81130000000000        0.15220000000000
C           -0.69820000000000       -4.29010000000000       -1.85890000000000
C           -1.26740000000000       -3.39090000000000       -0.77020000000000
N           -0.28790000000000       -0.30670000000000       -0.12690000000000
C            0.73600000000000        0.35300000000000       -2.26050000000000
C            0.75920000000000       -0.58720000000000       -1.07160000000000
S           -6.41030000000000        5.68880000000000       -3.07930000000000
F           -5.60390000000000        6.74340000000000       -2.22030000000000
F           -7.42600000000000        5.48770000000000       -1.87970000000000
F           -7.30350000000000        6.82170000000000       -3.73330000000000
F           -5.32050000000000        5.79440000000000       -4.22470000000000
F           -7.15240000000000        4.55580000000000       -3.89480000000000
S            2.19580000000000        3.70720000000000        1.93130000000000
F            2.95530000000000        2.44430000000000        1.37530000000000
F            1.90440000000000        2.91640000000000        3.25870000000000
F            3.52590000000000        4.33150000000000        2.50630000000000
F            1.31820000000000        4.91820000000000        2.43210000000000
F            2.36670000000000        4.41790000000000        0.53130000000000
S           -4.90950000000000       -4.39300000000000       -1.70590000000000
F           -5.90850000000000       -3.82850000000000       -2.78540000000000
F           -6.04710000000000       -4.37700000000000       -0.61420000000000
F           -5.19780000000000       -5.88850000000000       -2.11460000000000
F           -3.85220000000000       -4.81680000000000       -0.61600000000000
F           -3.71330000000000       -4.25220000000000       -2.72850000000000
S            0.85590000000000       -7.70580000000000        0.45020000000000
F            0.11510000000000       -7.32840000000000       -0.89410000000000
F           -0.43920000000000       -7.31120000000000        1.26340000000000
F            0.41960000000000       -9.22260000000000        0.37680000000000
F            1.64310000000000       -7.90630000000000        1.80620000000000
F            2.18340000000000       -7.98730000000000       -0.35680000000000
S            8.39370000000000       -0.89850000000000       -1.06440000000000
F            8.25090000000000       -2.23870000000000       -1.89130000000000
F            9.04100000000000       -1.71050000000000        0.13300000000000
F            9.80770000000000       -0.58810000000000       -1.70720000000000
F            7.62660000000000       -0.11710000000000       -2.20970000000000
F            8.43730000000000        0.42140000000000       -0.19450000000000
S            1.56700000000000        1.01470000000000        6.32120000000000
F            1.88890000000000       -0.42700000000000        6.85280000000000
F            1.43520000000000        1.52800000000000        7.78390000000000
F            1.19400000000000        2.42730000000000        5.73740000000000
F            3.09330000000000        1.37850000000000        6.30160000000000
F            0.05950000000000        0.60730000000000        6.24130000000000
H           -1.48210000000000       -4.61550000000000       -2.55050000000000
H           -0.25460000000000       -5.19850000000000       -1.44960000000000
H            0.07030000000000       -3.77970000000000       -2.43880000000000
H           -1.80150000000000       -2.56370000000000       -1.24070000000000
H           -2.00030000000000       -3.95690000000000       -0.18910000000000
H            0.65890000000000       -1.62330000000000       -1.40090000000000
H            1.71650000000000       -0.52280000000000       -0.55000000000000
H           -0.22290000000000        0.30290000000000       -2.77720000000000
H            1.51890000000000        0.11940000000000       -2.98450000000000
H            0.87920000000000        1.38750000000000       -1.94550000000000
H           -5.50790000000000       -1.72070000000000       -2.90140000000000
H           -6.31190000000000        2.76280000000000       -3.34090000000000
H           -4.19150000000000        5.69810000000000       -1.14880000000000
H            3.77900000000000        1.11150000000000        4.38180000000000
H            6.48170000000000       -3.10530000000000       -1.33200000000000
H            6.69980000000000        0.46240000000000        0.93540000000000
H            3.28410000000000       -6.22650000000000       -0.32400000000000
H           -0.47350000000000        4.76490000000000        1.21980000000000
H           -0.54980000000000       -5.26580000000000        1.11880000000000
H           -0.15580000000000       -0.44560000000000        4.40790000000000
H            1.47640000000000        1.04910000000000        1.10050000000000
H           -3.61960000000000       -3.13780000000000        0.59950000000000
C            2.67310000000000        2.07520000000000       13.14540000000000
C            2.04480000000000        1.14290000000000       12.31210000000000
C            2.82370000000000        0.51840000000000       11.27030000000000
C            4.00240000000000        1.21890000000000       10.85430000000000
C            4.54410000000000        2.20750000000000       11.70010000000000
C            3.93280000000000        2.57200000000000       12.86580000000000
C            2.57880000000000       -0.76560000000000       10.65820000000000
C            3.35050000000000       -1.04570000000000        9.51500000000000
C            4.24250000000000       -0.07140000000000        8.97890000000000
N            4.63290000000000        0.99950000000000        9.68360000000000
C            1.80710000000000       -1.86000000000000       11.17020000000000
C            2.07210000000000       -3.16050000000000       10.61490000000000
N            2.64810000000000       -3.36290000000000        9.41780000000000
C            3.24770000000000       -2.30630000000000        8.86140000000000
C            3.87630000000000       -2.48100000000000        7.62020000000000
C            4.60980000000000       -1.48090000000000        7.03560000000000
C            4.81520000000000       -0.30190000000000        7.71440000000000
C            0.80890000000000       -1.82550000000000       12.23830000000000
C            0.72190000000000       -2.99790000000000       13.04010000000000
C            1.12140000000000       -4.22190000000000       12.57310000000000
C            1.71490000000000       -4.31090000000000       11.34180000000000
O            0.67540000000000        1.10220000000000       12.41320000000000
C           -3.77080000000000        0.00050000000000       11.65830000000000
C           -2.82650000000000        0.67700000000000       10.88790000000000
C           -3.11460000000000        0.85070000000000        9.47970000000000
C           -4.27860000000000        0.20800000000000        8.95440000000000
C           -5.08510000000000       -0.58160000000000        9.79240000000000
C           -4.83660000000000       -0.68240000000000       11.12380000000000
C           -2.39110000000000        1.68470000000000        8.55240000000000
C           -2.94650000000000        1.89620000000000        7.28090000000000
C           -4.04930000000000        1.11630000000000        6.85180000000000
N           -4.68210000000000        0.26610000000000        7.66770000000000
C           -1.14350000000000        2.32660000000000        8.75920000000000
C           -0.76750000000000        3.40950000000000        7.90570000000000
N           -1.36610000000000        3.66330000000000        6.73070000000000
C           -2.35750000000000        2.83120000000000        6.38110000000000
C           -2.84240000000000        2.89400000000000        5.06800000000000
C           -3.85620000000000        2.07710000000000        4.63580000000000
C           -4.46450000000000        1.21560000000000        5.51650000000000
C           -0.20460000000000        1.88680000000000        9.75930000000000
C            0.76560000000000        2.83760000000000       10.15690000000000
C            1.03370000000000        3.96390000000000        9.42290000000000
C            0.32090000000000        4.21770000000000        8.27760000000000
O           -1.70680000000000        1.04460000000000       11.63520000000000
B           -0.33600000000000        0.39850000000000       11.60000000000000
N           -0.28050000000000       -0.99150000000000       12.26030000000000
C           -2.23750000000000       -2.23830000000000       13.14850000000000
C           -1.25700000000000       -1.07790000000000       13.30840000000000
N           -0.07520000000000        0.53560000000000       10.09680000000000
C           -1.04310000000000       -0.92510000000000        8.26360000000000
C            0.11720000000000       -0.53560000000000        9.15160000000000
S           -4.39750000000000        2.13490000000000        2.81930000000000
F           -3.48910000000000        3.40780000000000        2.64340000000000
F           -5.60140000000000        3.04600000000000        3.27750000000000
F           -4.84350000000000        2.16970000000000        1.31520000000000
F           -3.14540000000000        1.23400000000000        2.49980000000000
F           -5.25760000000000        0.84580000000000        3.10050000000000
S            2.43170000000000        5.10980000000000        9.98340000000000
F            2.34850000000000        4.39450000000000       11.38410000000000
F            1.31440000000000        6.13640000000000       10.43140000000000
F            3.60050000000000        6.06490000000000       10.45530000000000
F            2.41700000000000        5.73970000000000        8.53590000000000
F            3.45340000000000        3.99920000000000        9.51310000000000
S           -5.86460000000000       -1.80410000000000       12.25310000000000
F           -6.89750000000000       -0.62210000000000       12.40420000000000
F           -5.03470000000000       -1.25240000000000       13.47150000000000
F           -6.69720000000000       -2.76990000000000       13.18090000000000
F           -4.71990000000000       -2.86260000000000       12.01420000000000
F           -6.61280000000000       -2.29810000000000       10.95710000000000
S            0.74310000000000       -5.75980000000000       13.60790000000000
F           -0.77190000000000       -5.47820000000000       13.25620000000000
F            0.59790000000000       -4.81500000000000       14.86470000000000
F            0.39940000000000       -7.04610000000000       14.45710000000000
F            2.29380000000000       -5.89160000000000       13.88040000000000
F            0.91160000000000       -6.60080000000000       12.28290000000000
S            5.31390000000000       -1.77050000000000        5.29560000000000
F            3.82860000000000       -1.90010000000000        4.78860000000000
F            5.31380000000000       -3.31540000000000        5.61090000000000
F            5.86980000000000       -1.99370000000000        3.83820000000000
F            5.26100000000000       -0.21320000000000        5.09420000000000
F            6.75620000000000       -1.63770000000000        5.92150000000000
S            4.78600000000000        3.76870000000000       14.06550000000000
F            5.45580000000000        2.48580000000000       14.71230000000000
F            5.52250000000000        4.72950000000000       15.08890000000000
F            4.06970000000000        4.99420000000000       13.35940000000000
F            5.97610000000000        3.86630000000000       13.02950000000000
F            3.54370000000000        3.60480000000000       15.02820000000000
H           -3.05050000000000       -2.20230000000000       13.87970000000000
H           -1.76020000000000       -3.21390000000000       13.25290000000000
H           -2.69570000000000       -2.23210000000000       12.15930000000000
H           -1.77030000000000       -0.11360000000000       13.35090000000000
H           -0.72910000000000       -1.13770000000000       14.26560000000000
H            0.43260000000000       -1.41430000000000        9.70750000000000
H            0.96940000000000       -0.23260000000000        8.53260000000000
H           -1.92180000000000       -1.19250000000000        8.84950000000000
H           -0.79260000000000       -1.78160000000000        7.63380000000000
H           -1.30560000000000       -0.11250000000000        7.58630000000000
H           -5.92290000000000       -1.11420000000000        9.36780000000000
H           -5.26710000000000        0.58380000000000        5.16820000000000
H           -2.38670000000000        3.58660000000000        4.37700000000000
H            5.47850000000000        2.67410000000000       11.42200000000000
H            3.78340000000000       -3.43110000000000        7.11600000000000
H            5.39060000000000        0.48520000000000        7.24820000000000
H            1.95170000000000       -5.28360000000000       10.93860000000000
H            0.61250000000000        5.03820000000000        7.63810000000000
H            0.23550000000000       -2.97360000000000       14.00210000000000
H            2.11800000000000        2.48880000000000       13.97510000000000
H            1.36640000000000        2.65020000000000       11.02560000000000
H           -3.64000000000000       -0.02490000000000       12.72620000000000
218
 energy: -580.117755889915 gnorm: 0.351344534376 xtb: 6.7.1 (edcfbbe)
C            0.80797695388720       -0.37288175030084        3.94023967219031
C            1.00479715151662       -0.98423301040395        2.70077781602870
C            2.30581850715618       -1.00481589327092        2.11835214245743
C            3.26642836156591       -0.10053735950594        2.68215247117161
C            2.99247587258165        0.54309596701547        3.90855245150636
C            1.81485968382450        0.34052901398092        4.55926538397315
C            2.75909861299742       -1.93345897788634        1.11259998282082
C            4.09738796657575       -1.74153049756730        0.69544577255077
C            4.86213434996455       -0.62609114239790        1.14813232017073
N            4.45852107745212        0.16316456219379        2.13874537254122
C            2.11718059725852       -3.13896840212319        0.65981665693527
C            2.99560780518423       -4.13822973194486        0.10069121854796
N            4.20497191749494       -3.87707907856725       -0.40687670927400
C            4.73417914282003       -2.68246541466871       -0.15989801236523
C            6.01609839971090       -2.40135432328369       -0.67086186871434
C            6.68859517058776       -1.26069124984285       -0.30888309480347
C            6.14002043451416       -0.39339061180826        0.60424769847863
C            0.70698204624384       -3.54507327385505        0.70291209505017
C            0.44285936369030       -4.92756554022889        0.85203426668618
C            1.36982651702186       -5.87972016296008        0.50099852754402
C            2.59727726117539       -5.49112958011107        0.04683509376681
O           -0.08529410703122       -1.52512275556500        2.13705234215040
C           -3.79046698907918       -2.33956300532221       -0.10277392907901
C           -3.09871941396346       -1.13965868460934        0.07951641425916
C           -3.40223125622129       -0.03065619528014       -0.76456229482061
C           -4.41044785087505       -0.24097667720610       -1.76913766425909
C           -4.86124598430295       -1.55082471944628       -2.06003783618789
C           -4.52852640964291       -2.58739219171474       -1.24389374676120
C           -2.89219254898417        1.31056896210085       -0.60865111257990
C           -3.69466946592735        2.31813290004922       -1.19058460248403
C           -4.74271849005806        1.98914565960959       -2.09768009636618
N           -5.00161557563927        0.73539845310486       -2.46679693771676
C           -1.71201412889794        1.76067699322952        0.07631419858450
C           -1.63113751637379        3.17054038850946        0.35636091248547
N           -2.51741505121070        4.08622916385599       -0.05402528897344
C           -3.49155880507158        3.68783404015473       -0.86453825028425
C           -4.33780534925266        4.66911042362631       -1.41776247101002
C           -5.32837852859226        4.33108792240774       -2.30528038142411
C           -5.52950941173980        3.01667567211105       -2.65111306211855
C           -0.52624918070448        0.98245509152978        0.34083950852038
C            0.57765539021063        1.61365723715730        0.92740475895638
C            0.59790234017646        2.94863766652338        1.24573439908061
C           -0.49669427267420        3.71692424031311        0.99356040655912
O           -2.15575971612827       -1.18233024416659        1.05231870621740
B           -0.71455280795197       -1.45189703825305        0.80316852556455
N           -0.32312980840421       -2.79957580980995        0.16302374969787
C           -0.68943202660850       -4.29281557381392       -1.85885387658076
C           -1.25919337998472       -3.39766294432320       -0.76425668595329
N           -0.29991433391430       -0.30989901643010       -0.13048601706405
C            0.73468560556407        0.36107986722265       -2.26372393558781
C            0.76436969816958       -0.57620127190001       -1.06934892031264
S           -6.39838448307501        5.67397566564832       -3.07001438145155
F           -5.60615130097759        6.77161169990804       -2.21854885089720
F           -7.44403218817121        5.49298784171286       -1.86979192082649
F           -7.29502596284855        6.81109324736835       -3.72680085426397
F           -5.31403645340368        5.80443755781697       -4.24338009674217
F           -7.17310420491119        4.55782782544587       -3.91373242732295
S            2.17479069837993        3.69949526087172        1.92541964486844
F            2.98196359061767        2.43991576672158        1.36879924680322
F            1.90901202414377        2.91028700123143        3.28181000782297
F            3.51156473932108        4.32671329131075        2.50049076156919
F            1.32158501516452        4.94257872381136        2.44836604272765
F            2.37974042674449        4.43360051225855        0.51773045020554
S           -4.91172724355012       -4.36909566063789       -1.69929221820628
F           -5.92851622016802       -3.83891679093904       -2.80735415269554
F           -6.06771910722269       -4.39041090123402       -0.60000104242764
F           -5.19890854599571       -5.87176602048595       -2.11147041191059
F           -3.84757872716152       -4.84921565679695       -0.60898465987526
F           -3.70479357568139       -4.26322603869418       -2.74742735744653
S            0.86299813694775       -7.68537162379557        0.45292724706628
F            0.09985412579989       -7.34261156196331       -0.91308855868523
F           -0.45978923108568       -7.32595979027154        1.27541346012674
F            0.42375130339127       -9.20814599345706        0.37862737484009
F            1.65079129117548       -7.92113313206355        1.82472808593867
F            2.19364557036646       -8.01253922554186       -0.36894770249585
S            8.37515574035440       -0.90227148509815       -1.05479844932988
F            8.26862435966352       -2.25000749105963       -1.91033243065814
F            9.05832975632531       -1.71841016683487        0.14275902314890
F            9.79447931180538       -0.59112037166771       -1.70067139049693
F            7.62823224260434       -0.10557714485530       -2.22849127876414
F            8.45629653180527        0.44168590738962       -0.19247357590611
S            1.58128513021993        1.01366547569554        6.28319631371436
F            1.89771628746369       -0.44214113972048        6.85512591267711
F            1.44836650373398        1.53078919798671        7.76020180281019
F            1.18818552268866        2.45518932994166        5.73971824453375
F            3.12265973209165        1.39249721466772        6.31533911068642
F            0.04433155490608        0.61542978427228        6.23954717415521
H           -1.47954161786013       -4.60590979629918       -2.54174285385324
H           -0.25289129032675       -5.19735588584615       -1.45040584822624
H            0.07216818345915       -3.77612079703875       -2.43804272967484
H           -1.78597049387586       -2.56838570518637       -1.24020294108255
H           -1.99379849572636       -3.96681930794781       -0.19374366553530
H            0.65444481005068       -1.61373737946675       -1.39870239994280
H            1.72913753280312       -0.51537029166173       -0.55718097932823
H           -0.22410417879916        0.30074049847220       -2.77592631846513
H            1.51827961866315        0.11575555532269       -2.97918029206061
H            0.88049850274384        1.39078164376807       -1.94496547353182
H           -5.50679084589682       -1.71082381964807       -2.90582296213848
H           -6.31030288253885        2.75269840351261       -3.34178823048500
H           -4.18389778151809        5.69702932455275       -1.14184737566585
H            3.77528907043859        1.12199592453987        4.36395168390046
H            6.47514331073663       -3.11360077769540       -1.33220850408928
H            6.69302679484892        0.46539693341253        0.94151845437030
H            3.29124536044071       -6.22006298920188       -0.32967007737643
H           -0.48052098665078        4.76940810864685        1.21361266335125
H           -0.55164093417346       -5.25056315444943        1.11462634943105
H           -0.16103109794304       -0.44974961904080        4.39943952235056
H            1.46986706909803        1.04041445577664        1.09736067970550
H           -3.62370200154947       -3.12812431837246        0.60899217391095
C            2.66478198762255        2.07286823218646       13.14402181767141
C            2.02949532448555        1.15020036379023       12.30274008083076
C            2.81076666121842        0.51707214129259       11.27505862399735
C            3.99687879623261        1.21505152957321       10.85711533172505
C            4.54857144261482        2.20880783270692       11.69873753166968
C            3.93084547449593        2.56387618477504       12.86164484868837
C            2.57601677609616       -0.76452004461151       10.66421387373775
C            3.34965538444078       -1.04458063377202        9.51595291124844
C            4.24514471045664       -0.07250203608043        8.98202850849436
N            4.62431247692712        0.98894181121149        9.69516922648368
C            1.79967795543467       -1.85495923357417       11.17684065839751
C            2.07368662494169       -3.15698274755560       10.62213095963420
N            2.65465673454117       -3.35235162318565        9.43372423170941
C            3.24754924280144       -2.30592457413328        8.86314465460009
C            3.87442646748978       -2.48756289410637        7.61587462258330
C            4.60762359533921       -1.48117085789526        7.04074319236744
C            4.81951505037410       -0.29787818209979        7.71134482541261
C            0.78504957321604       -1.83297794917499       12.22201854934653
C            0.71708058303514       -2.99285558925976       13.03906593078024
C            1.13351557894993       -4.21594738860875       12.57354431609734
C            1.71521292323597       -4.31885813861514       11.33973470534862
O            0.67951782746125        1.10933878080469       12.42092002080506
C           -3.76503043001568        0.00465975927756       11.66120420992711
C           -2.80673001206939        0.66604464435095       10.89241814462615
C           -3.10306054882568        0.85606917407877        9.49281171309793
C           -4.27620069750276        0.21320962866333        8.95941339229590
C           -5.08973934481350       -0.58624691842852        9.78894308402189
C           -4.83969219684293       -0.67149322756064       11.12140059003339
C           -2.38353326145530        1.68012814137944        8.55529747548126
C           -2.94602316624347        1.89765421791978        7.28354287119106
C           -4.05090671839997        1.11634804990748        6.85551141936221
N           -4.67484489796004        0.27463289389955        7.67766108977714
C           -1.13251064606187        2.31859173967202        8.76089897629206
C           -0.77020390009748        3.41226404195654        7.90957657335289
N           -1.37102737479092        3.65743584053626        6.74232406531521
C           -2.35564149297584        2.83112472912913        6.38268229190734
C           -2.83923625129954        2.89893442401570        5.06435674522964
C           -3.85581793737092        2.07693470905082        4.64154817401696
C           -4.47057707277642        1.21093029714725        5.51423921493364
C           -0.18781240259517        1.88096278976139        9.73496400499292
C            0.76220205125528        2.83006862768134       10.15507544882600
C            1.01920470987775        3.96669348243554        9.42212876586427
C            0.32074130408856        4.22706439569609        8.27483121992588
O           -1.70595671216350        1.05056116736698       11.63210704145793
B           -0.32759233336752        0.40633469449081       11.59376219527262
N           -0.27742191293655       -0.98990848947965       12.25622617610483
C           -2.23214017307177       -2.24288866131289       13.14840111554700
C           -1.25028200375249       -1.08530267972572       13.32179008372333
N           -0.06851317971234        0.54141769498833       10.09898466854134
C           -1.05351458247366       -0.92900391363437        8.26101084355568
C            0.10926041390775       -0.53271040021715        9.15193213394078
S           -4.39204468408774        2.13382237092118        2.84378329759341
F           -3.48508980354864        3.42546420490799        2.62290117645377
F           -5.62208718990642        3.05839475785769        3.27219864371227
F           -4.84328686882304        2.16924177875035        1.33029581619722