116
 energy: -22.928061455056 gnorm: 0.329736929581 xtb: 6.6.1 (8d0f1dd)
C           -3.31122850772930        0.79849766164622       -0.92477639677520
C           -2.44380812530352       -0.12270372891954       -0.27661132624697
C           -1.41337090092821        0.39579727573559        0.56335275196199
C           -0.89266158675590        1.65801491088749        0.27377586709581
C           -1.72665675402493        2.51431363229076       -0.49448366572522
C           -2.95444148494349        2.13954154133227       -1.01494489940871
C           -0.74098268209890       -0.43411532818871        1.49825021926784
C            0.56872586496315        0.03782116815119        1.86248088067890
C            1.03782416582094        1.29402317993033        1.50887470833621
N            0.31238977034758        2.07067427098208        0.65193736800696
C           -1.29695700510141       -1.39996043042223        2.41574187746061
C           -0.38243517664656       -2.18060797534842        3.13232615520648
N            0.91308504082021       -1.90366887689689        3.30325166013478
C            1.37712470144904       -0.74872102533751        2.81811050966982
C            2.52149331701875       -0.17739833758153        3.39379298866852
C            2.95849061756259        1.02681208890480        2.95105897606587
C            2.24288949469137        1.78498308775960        2.03503020483770
C           -2.74860936222260       -1.74497937691422        2.38401158947411
C           -3.09416315450955       -2.91614440870436        3.00571134491758
C           -2.16786021984049       -3.77788778654213        3.63251872101904
C           -0.85708937311598       -3.40495313382985        3.68547234358092
O           -3.71994433332149       -0.94984598373544        1.67726658385724
O           -2.55702603277562       -1.47241711578389       -0.57241635275616
C           -3.84297843593025        3.13357444054366       -1.60938954875544
C           -2.68769581069131       -5.03867041417370        4.30484659386931
H           -1.39666850744143        3.51251503834900       -0.76806311868865
H           -4.27662633836220        0.55105838579656       -1.33106614114542
H            2.66329581305412        2.73912661909249        1.72562431984580
H            3.05775395548473       -0.69369546277216        4.16536137542516
H           -0.24710966264510       -4.12034095424229        4.22946223699121
H           -4.11477991332403       -3.04712728052358        3.03244694615357
O           -4.21824883374556        4.03433712717988       -0.87713382485991
O           -4.44510595673734        2.90643496899600       -2.81853501752979
C           -5.44216520282800        3.83300025693726       -3.02488532025093
C            4.23586651889298        1.50004220933226        3.59165660008449
O            5.05927614697201        0.66079890002952        3.91714215179376
O            4.47001334453535        2.86385149488593        3.72605651435371
C            5.79457498613219        3.08584475587818        4.15829123132174
O           -3.82227255313510       -5.27347675879771        4.16636005494405
O           -1.85023202017753       -5.79767454267276        5.06656077253571
C           -2.55119635829503       -6.86252441382958        5.62930343183426
C           -5.07197156564436       -1.42399175670916        1.58830531863830
C           -1.33089900128490       -2.23622472573986       -0.99264499351172
H           -2.54510546830388       -7.76426885143998        4.99136022291012
H           -3.57194749219491       -6.44405511486021        5.74196173723541
H           -2.09133598235598       -7.02043774843818        6.64022264233588
H            5.72707967266424        3.46798026205549        5.10135971236643
H            6.34060091246885        3.78468702308830        3.50069950143490
H            6.17933064298187        2.03010500085905        4.19342358084693
H           -0.91862729772622       -2.57650129080332       -0.01361370304871
H           -0.49769766914251       -1.60651221708571       -1.34094446550576
H           -1.52632419730509       -2.94569707152159       -1.75361447637286
H           -5.11788846557077       -2.41810833635233        1.17520213188926
H           -5.67929807973498       -0.69619639428435        1.04301666067831
H           -5.57598832326623       -1.42383358739762        2.57928294206544
H           -6.13050215934830        3.76035386975488       -2.23272855695873
H           -5.86615610071888        3.45938329385866       -4.02668959924245
H           -5.13479557532099        4.87790991548477       -2.98314551356402
C           -1.38192942069774        3.73616555005018        2.91232598411686
C           -1.84821468128685        2.59982427735607        3.49755545445181
C           -1.05946531454833        2.05730632010638        4.60922730982276
C            0.19893954712228        2.69376791964407        4.86302140881997
C            0.50425395911860        3.94630308659851        4.28768785650746
C           -0.26031777722226        4.46998310053134        3.25072669343212
C           -1.20488993561782        0.74454293276906        5.14851520323437
C           -0.06287609782692        0.02744069315890        5.60930570802864
C            1.19208754369866        0.71421540266195        5.78882868583885
N            1.19428660993148        2.06344359410476        5.62744624321596
C           -2.41361422770794        0.07928500213936        5.25249410304426
C           -2.45851584031083       -1.32662100968547        5.60237876023992
N           -1.29466212405906       -1.98318595734370        5.89916817085159
C           -0.14475655767527       -1.32117560077092        5.98824682881008
C            0.97209270935794       -1.98958449505532        6.53157704134458
C            2.21982707914082       -1.36973967291181        6.68703967237737
C            2.30561929262884       -0.09745313075593        6.26436900324455
C           -3.73018485967715        0.71367583494582        5.25810242262992
C           -4.89964478833448       -0.06184623426677        5.21204641615509
C           -4.82617965800088       -1.39228978090841        5.46901303780036
C           -3.67144193418464       -1.98914944386360        5.67265433266067
O           -3.75568638935321        2.07705011038914        5.52067969627343
O           -2.94192434743730        1.91263938797883        3.01658762327703
C            0.21273512614467        5.50086066357994        2.34765104514621
C           -6.06660304520411       -2.17604633098929        5.80641622556876
H            1.41756699010566        4.38133362238595        4.66974005703471
H           -1.82880610647429        4.11982501512100        2.06992133318584
H            3.26888037378556        0.32655662585251        6.31721410015598
H            0.87146188387207       -3.08471526305024        6.57830423410869
H           -3.67716811065157       -3.05999292755990        5.83019634570050
H           -5.77379677507622        0.43595144608221        4.71017130754348
O            1.34459852619901        5.82615848916894        2.44941456579099
O           -0.74718748219123        6.07961784856304        1.59848183464284
C           -0.21473095568964        7.24015934882472        1.05753806029483
C            3.53228080814219       -2.00967610361154        7.02506769044485
O            3.64093082622715       -3.14437803815732        7.50071391725347
O            4.56565258381079       -1.22937033368332        6.69086985080897
C            5.72579357310716       -1.80692399125161        7.22246151275881
O           -7.04801223588612       -1.95726935745904        5.14194115322235
O           -6.01514389321278       -2.93743591896022        6.94765316328794
C           -7.21292732384718       -3.62681918543340        7.15115816329978
C           -4.95459780685163        2.65960679932188        5.86868674392943
C           -3.68284113682406        2.59129188358641        2.05479246020704
H           -7.43119628931628       -4.22607794725959        6.20622607140901
H           -8.06548455146707       -2.91765848248592        7.29781126410398
H           -7.07314693247270       -4.33087306029711        7.91223421050944
H            6.57332189837178       -1.29353136199234        6.78341268688262
H            5.74663761932316       -2.84282155125561        6.88089468184451
H            5.69426191474290       -1.72781984964892        8.29460302186842
H           -4.10481209541493        3.44288266176275        2.60483747673152
H           -4.49244774344916        1.87419893016926        1.82433103764650
H           -3.18901540870812        2.85154642679373        1.06781919454921
H           -5.55414326821421        2.76698137191684        4.93950725322359
H           -4.78658370641210        3.62090640967288        6.25983200635257
H           -5.43485580473958        1.97242995129449        6.65265772412460
H            0.89164886030839        7.38838561720231        1.13776105146914
H           -0.62894889903848        8.04195665205089        1.64837664327952
H           -0.59282546386754        7.45699159724320        0.03719083132488
116
 energy: -22.621846717363 gnorm: 0.553453232603 xtb: 6.6.1 (8d0f1dd)
C           -3.20318874504628       -0.09968986684618       -1.59593030156548
C           -2.45628158741354       -0.72966676853490       -0.49288153577695
C           -1.73198897621416        0.02528104309668        0.49282720886140
C           -1.49390837813882        1.34260616907134        0.10922855840112
C           -2.19612222009010        2.00779731763114       -0.92325394808635
C           -3.12305604295985        1.38063006284942       -1.73723798713636
C           -0.82111748350215       -0.66970915314400        1.40740905659632
C            0.39369009268426        0.03260833418845        1.53183275588266
C            0.63065091098800        1.31489127727246        0.95433579155414
N           -0.41168447013588        2.04150729490665        0.57377177062449
C           -1.07832649794544       -2.03958533708441        1.73639529171704
C           -0.00068987339652       -2.74528446090031        2.27977911270828
N            1.07685830768009       -2.06637173915105        2.65687185982564
C            1.30588525723327       -0.68823634057257        2.35762541800685
C            2.64081188951571       -0.11814357448884        2.33885291088436
C            2.88314975140267        0.97231057009305        1.55266550590683
C            1.94179112083039        1.78009761540140        0.92160141364830
C           -2.41481497304180       -2.50091874345256        1.84127593400702
C           -2.62742010604195       -3.93142531128595        1.96426586077089
C           -1.46385787196198       -4.70132653869761        2.26684627380281
C           -0.27430674771266       -4.10610441655303        2.61421054618145
O           -3.47819800302101       -1.61248386124466        1.83174095708084
O           -2.25804125641980       -2.14311130820589       -0.53990108671445
C           -3.83012875917947        1.98776050135604       -2.83891626710664
C           -1.78189115101601       -6.00364486987125        2.92438646097713
H           -2.22524897412989        3.06838641972353       -0.96863304195515
H           -3.85950136425738       -0.59497128477940       -2.14056421313889
H            2.23964610479987        2.83237460090701        0.62993894710134
H            3.47827468379001       -0.46044309201598        2.77032187636240
H            0.48684338416330       -4.80430166374040        2.92281059720539
H           -3.49335078210942       -4.31158940275035        2.13677441156906
O           -3.03529939818199        2.24332371525773       -3.74284271732226
O           -5.09443943490134        2.47356407265123       -2.64737771117738
C           -5.28300046331696        3.70662674003246       -3.21947325426839
C            4.17690230684313        1.54428428428928        2.14775794391866
O            4.87597483369419        1.03852101297730        3.00145512375844
O            4.54021464183845        2.68952798585190        1.41919857930430
C            5.90196449556138        3.11646332456706        1.50446560621094
O           -2.89008485074494       -6.37097245970684        3.30611437711371
O           -0.79750634381531       -6.89267512232150        2.84090811811310
C           -1.00177380874723       -8.17696190891023        3.20231189334434
C           -4.83898808955729       -2.03200860326826        2.06102372607657
C           -1.42502679493878       -2.56374108143434       -1.63684667926041
H           -1.32394704714039       -8.24502132336110        4.20255938324628
H           -0.25482748731849       -8.84828187713712        2.71443299926273
H           -1.97840899352702       -8.45128274142785        2.67038358881828
H            6.39984247217620        2.43560160567410        2.14570786338683
H            5.78324122631052        4.09732576604764        2.09660868663350
H            6.37784807680366        3.38191998737054        0.57256734729159
H           -1.04124544864383       -3.58611047708285       -1.55307773253077
H           -0.52734287269782       -2.08036616474104       -1.28191671287359
H           -1.88146547779259       -2.42177642730743       -2.68471658720325
H           -4.92305616056307       -3.03039246487853        1.91619360748117
H           -5.45635840488908       -1.36058804020385        1.40623361233341
H           -4.70802992767092       -2.03180824069067        3.10098801093573
H           -4.79507533825199        4.43560004784857       -2.40622608785475
H           -6.29646021747088        4.01428436433578       -3.70079328797547
H           -4.53724118754094        3.83930252137784       -4.04878146603425
C           -1.47659150501488        4.23528048951788        3.45594401932114
C           -1.86187400175699        3.03365934496286        4.05063263867768
C           -0.97791472156073        2.54310659912229        5.09785992246731
C            0.36437566383460        2.99168543015521        5.38498613485436
C            0.60193507303369        4.20254620145313        4.84464940954720
C           -0.23800806291038        4.80772222606956        3.91331382854365
C           -1.18503207491721        1.40349520946615        5.85774137333734
C           -0.15253253309347        0.53945921319896        6.28947129422339
C            1.10806122589698        1.04824828223146        6.24637767220856
N            1.31967359185268        2.35184549935092        6.15623806323236
C           -2.49550261956206        0.94668957331012        6.22928342134560
C           -2.72407187973855       -0.31877405454159        6.81385336299394
N           -1.77476281829540       -1.21228563545325        6.90796979583155
C           -0.49046365052848       -0.79084383836359        6.80892360876059
C            0.47700965939621       -1.54908282452931        7.26290664377026
C            1.75465203078215       -1.03532197475897        7.25892269515887
C            2.06542233050733        0.21090052407346        6.87647818813988
C           -3.64966415984059        1.78433056423616        6.08994383889385
C           -4.95069643333943        1.16636222688883        6.16920811069706
C           -5.28717649034620       -0.14034984753522        6.64716017162731
C           -4.11516756280926       -0.83098645418612        7.01967341340513
O           -3.49978989998634        3.31461840280968        6.07897175511580
O           -3.06463009636533        2.46892429368899        3.54838017277315
C            0.24973750704988        6.14926354073191        3.33777430115291
C           -6.62667041294180       -0.93151443618853        6.82823425384907
H            1.48017137161955        4.68560480328292        5.16672628928117
H           -2.01170448992896        4.65462538376929        2.61026186605123
H            3.08360932251547        0.53681477158015        7.05794149755831
H            0.27408853150478       -2.60143613742635        7.50216724824439
H           -4.30402394528453       -1.84537911884633        7.26924523165882
H           -5.93019140520919        1.58182926676222        5.51717428275832
O            1.30152160978431        6.62474880762317        3.68155460496247
O           -0.67703267616600        6.68755802712386        2.49642760836327
C           -0.29992178120968        8.09799017938798        2.23890651465666
C            2.67510933864339       -1.93282017970752        7.85029833345428
O            2.60807226388807       -3.13631403944300        7.64954678559788
O            3.40331029430372       -1.23782893369160        8.79383814616662
C            4.04798033541204       -2.25358446802342        9.50430679529816
O           -7.65806943315640       -0.48927674291912        6.21864150112529
O           -6.60934869379651       -2.15478175113008        7.44930121902243
C           -7.37434103902266       -3.16387691710558        6.89956227982153
C           -3.72855867482158        3.57419768921632        7.50059077934296
C           -2.95311836809690        1.00054697215897        3.34587770311958
H           -6.96643950778005       -3.64019272308472        5.98943322142316
H           -8.36209551666289       -2.81384779494656        6.60222036777179
H           -7.40082523273821       -3.76029311637011        7.85525695237769
H            4.30565592408300       -1.97129505716563       10.50324525612374
H            4.79334659482327       -2.82191761440804        9.06437497384037
H            3.34435437233836       -2.91676035720901        9.54657848019249
H           -3.29797232036108        0.44238071355764        4.17821715562966
H           -2.01930229502300        0.70420416977566        2.98062726385139
H           -3.81714404556963        0.83204257847849        2.63422876209826
H           -3.02751685921147        4.21744259344117        7.92809892961060
H           -3.68903651649333        2.70974119982529        8.09401329298114
H           -4.74263236927546        4.01090294645332        7.65235930146507
H            0.50792782200525        7.80373838338571        1.60792246669506
H           -0.26031712546011        8.70089139859961        3.12733180058439
H           -1.02611713370485        8.44317803839303        1.45331746214862
116
 energy: -22.631230769862 gnorm: 0.506211119707 xtb: 6.6.1 (8d0f1dd)
C           -3.55304999068321       -0.47774006746994       -1.72798761293479
C           -2.47967748927977       -1.23833359993341       -1.08114020750857
C           -1.59226022906067       -0.48829325210388       -0.21864775641273
C           -1.54794191187714        0.86222958561211       -0.39806135648334
C           -2.33192059166801        1.59731591830046       -1.38239151058261
C           -3.36253549576115        0.90270331917893       -1.88976956627092
C           -0.66430882416509       -1.03999481261041        0.74651647889797
C            0.51339582919255       -0.38641212254603        1.07230453125202
C            0.60743511614812        0.96201106288666        0.73159672118439
N           -0.46241353890511        1.58996469132507        0.09597391078314
C           -0.79269628175591       -2.38113038616473        1.28555614722345
C            0.51479210153256       -3.06243926816229        1.62129478252150
N            1.66553623368450       -2.39773801930067        1.61662841257193
C            1.56541964989497       -1.04568171572503        1.73652762683589
C            2.64279053787417       -0.23520089402649        2.23066928686976
C            2.65302894260669        1.14650003334133        2.17217952632311
C            1.59476243929201        1.63754880126002        1.39484655444508
C           -1.96801653011833       -3.18672749209833        1.42924877346697
C           -1.81551821212357       -4.56914919510472        1.82635751333135
C           -0.61694333750102       -5.16364597136252        2.18606828656344
C            0.56244954993452       -4.40710597576678        2.23271869337572
O           -3.14952272417205       -2.53253406775943        1.66473706296886
O           -2.14146970199569       -2.46640724491110       -1.45718597310474
C           -4.38476368296265        1.44585006141903       -2.89594386340019
C           -0.73029726705853       -6.58691625152323        2.70278321948647
H           -2.27828630164769        2.66597021361408       -1.28762337664121
H           -4.47782270009702       -0.78390735477707       -1.97985539187027
H            1.76688492169445        2.66985692292224        1.01259348736152
H            3.19609577645294       -0.63705418413215        3.00565043602177
H            1.50474347298337       -4.78800992200000        2.71454874357089
H           -2.62053196452194       -5.15815799166870        1.65549986435236
O           -5.40817038123608        0.87539419280474       -2.85516754625333
O           -4.21190886757872        2.59699744091491       -3.54527944000651
C           -5.46221015918103        3.13399632308512       -4.25315973024550
C            3.88596604815637        2.01947495029614        2.47193873252759
O            4.95806479215319        1.44562272794094        2.68833030407877
O            3.72237720875216        3.39270142080217        2.19284209999577
C            4.76631444786563        4.21292791776768        2.61611247712318
O           -1.70002865389817       -7.30029252236344        2.48928828564460
O            0.25236354054577       -6.97581808629545        3.58318050249915
C            0.76973652487849       -8.31364543264373        3.34949413068824
C           -4.26020338457681       -3.17472993879503        2.04362783325002
C           -3.34162235418709       -3.14588234788789       -1.61110391924043
H            0.47188335100194       -8.34553514178982        2.27576226185387
H            0.25115067643406       -8.93614993611332        4.04424464341091
H            1.80387080968907       -8.22663330344481        3.68132184089982
H            5.30340331919576        4.49048341948221        1.75529539104072
H            5.21620691485073        3.68773770174048        3.45873351164598
H            4.45144997480606        5.10492226005945        2.90904181956302
H           -3.11315924824320       -4.07886155208649       -1.04330921318663
H           -3.35324685090277       -3.34895455445731       -2.69733967641722
H           -4.18373102402969       -2.58135464805954       -1.18358067307502
H           -4.36414980985223       -4.32609320078574        2.20130500805936
H           -4.79742791208051       -2.94775592040147        1.11028779852964
H           -4.52816345669733       -2.76682993534496        2.98473476296519
H           -5.66273233690636        4.08309348129001       -3.73225411534197
H           -6.26573810682735        2.64655899225221       -3.88989848871209
H           -5.44500327873579        2.89268492047959       -5.30488277480330
C           -1.22491695367541        4.70196289679685        3.82467814735034
C           -1.69642080120035        3.43117053793501        4.22771018048240
C           -0.97633745794597        2.67639317845394        5.31687889918496
C            0.40329734024157        3.03540762665120        5.42259349869240
C            0.85076376228355        4.36111143516031        5.13229368785731
C            0.00255456390804        5.18018249883361        4.32203986352746
C           -1.50285553280317        1.55446591435145        5.88536200860282
C           -0.45152609442308        0.62793394970525        6.21556271361217
C            0.86329719343950        1.06152770728536        6.47764353683514
N            1.29983695903292        2.20019093180446        5.90567463799197
C           -2.72123844402659        1.34467372328515        6.41800203482279
C           -3.04674281369245       -0.09310011638468        6.35512967700781
N           -2.11531137709264       -1.09898414461258        6.48370996876048
C           -0.89912767415050       -0.68340658438810        6.56608052066044
C            0.08843571694964       -1.59429191863507        7.06268420103967
C            1.41568485074876       -1.20298576508012        7.24784555884435
C            1.78608745947293        0.10333030387267        6.95173131683509
C           -3.69026283407069        2.35482944919154        6.67753962183316
C           -4.96217739829751        1.93464885664443        6.91025345061951
C           -5.33578906287266        0.56939033140707        6.97164451212688
C           -4.46232960910307       -0.43921911885670        6.66216876587451
O           -3.22700052515228        3.64535327428651        6.53225715596437
O           -2.77831407467136        2.70612876810855        3.69031712902612
C            0.51048593966884        6.60636759268244        4.23988179416854
C           -6.80432406561119        0.08167878865859        7.03212315494214
H            1.95755553392683        4.49490435813128        5.20007941423696
H           -1.97299470569581        5.35496591215118        3.32726482141445
H            2.75966969403691        0.54613100783018        7.04834385745912
H           -0.20263832306859       -2.32801827441329        7.87463722997432
H           -4.77355124059134       -1.46338492151335        6.71533466259767
H           -5.73861523535704        2.83601855950566        7.02529176800362
O            1.29188622154651        7.11656172226567        4.96967246416377
O           -0.04974605567191        7.26184092710603        3.17411541901604
C            0.40650969388451        8.50327267726203        2.97152745251555
C            2.25023876107684       -2.23730365117283        7.92863842076888
O            1.83917087171713       -3.39903457894580        7.91561517573713
O            3.41387261240170       -1.89485376152559        8.61500595018073
C            3.70252714344134       -2.99937108211398        9.40458418875010
O           -7.69679123966869        0.57441894067385        6.34235888803101
O           -7.10082621098618       -1.21987011731986        7.59164569781543
C           -8.20581306316010       -1.98594254430997        7.05036764189081
C           -3.23666503357565        4.35544721934932        7.85544775817927
C           -2.35902693554610        1.83071124060130        2.52241288891866
H           -8.44863159655365       -1.70433648206938        5.96036676336922
H           -9.18416199696070       -1.91729601082032        7.62478868893696
H           -7.93789793733812       -2.98819319483160        7.10709605237215
H            2.68429837634683       -3.39277348704654        9.60328970466601
H            4.38490504821232       -2.91188899709040       10.17503756815280
H            4.00175467832095       -3.98493261751621        8.94340800475240
H           -2.77793105784794        1.94930668773525        1.46788046409147
H           -2.29558904026029        0.88315906590900        2.96340184434333
H           -1.38895586157326        2.20925392407671        2.31894133741109
H           -3.37749240924260        3.58752629916487        8.55570708729327
H           -4.14907988776020        4.77933908950495        7.75615051294219
H           -2.30543744701395        4.81630032016974        8.06839919818753
H           -0.15073048490249        9.30595512089514        3.68395850055506
H            0.15671546644278        8.89314663824428        1.88667825659967
H            1.39781320406497        8.52593067532819        3.33421971803265
116
 energy: -22.688239257728 gnorm: 0.462786872462 xtb: 6.6.1 (8d0f1dd)
C           -3.00642233229100       -0.92615129237773       -1.63726251106698
C           -2.05952950369089       -1.45360142801859       -0.72523107208723
C           -1.66982602072131       -0.69941104738086        0.39537614420877
C           -1.92263006843666        0.70196411051299        0.27817956042127
C           -2.79875136173776        1.30514198085698       -0.64757513004122
C           -3.46527153826686        0.45168095370496       -1.48926809326942
C           -0.71538760949789       -1.23726610266750        1.36355378252298
C            0.42864250086319       -0.46417875718967        1.37768565506406
C            0.27320186046669        0.92567800544689        1.20960668595848
N           -0.82795518093252        1.43618859505658        0.62525260515954
C           -0.66698141033718       -2.44496995337419        2.07801406995414
C            0.56835008358413       -2.81307640886236        2.71147586469072
N            1.72881500339748       -2.06671634355407        2.64046675186422
C            1.63410662196127       -0.85692378488288        2.14919381245396
C            2.40559389950620        0.20619978300477        2.69790968431279
C            2.41869590516414        1.55154755297242        2.30507694968468
C            1.34929019962575        1.79215510748702        1.44148480348111
C           -1.84716925359564       -3.24375281625623        2.29237397609358
C           -1.50681129407233       -4.58776159979498        2.57666376754292
C           -0.29652887741282       -5.05387135034152        2.92201155070908
C            0.82839940844376       -4.16544881387325        2.89926977827347
O           -3.14093278529183       -2.90114832417015        2.07411380276704
O           -1.41053433722874       -2.58927841810435       -1.06551580538775
C           -4.42197939174183        1.04433200079767       -2.33130198551086
C           -0.10699755567417       -6.52066083030756        3.32283729838600
H           -3.06517227989439        2.37873228502573       -0.66513870852477
H           -3.60861597811090       -1.44602896149387       -2.29803806575901
H            1.32325191655636        2.86658679650274        1.08959752799927
H            3.18343899096716       -0.01303643760088        3.38372319653789
H            1.83639151413544       -4.45967255254120        3.19365504491236
H           -2.21281980868589       -5.40274247112476        2.79497333969399
O           -4.44339408089981        0.60536378975360       -3.48428309729289