Optimization of monomers started
      -----------------------------------------------------------      
     |                   =====================                   |     
     |                           x T B                           |     
     |                   =====================                   |     
     |                         S. Grimme                         |     
     |          Mulliken Center for Theoretical Chemistry        |     
     |                    University of Bonn                     |     
      -----------------------------------------------------------      

   * xtb version 6.7.1 (edcfbbe) compiled by 'runner@Mac-1732539442253.local' on 2024-11-25

   xtb is free software: you can redistribute it and/or modify it under
   the terms of the GNU Lesser General Public License as published by
   the Free Software Foundation, either version 3 of the License, or
   (at your option) any later version.
   
   xtb is distributed in the hope that it will be useful,
   but WITHOUT ANY WARRANTY; without even the implied warranty of
   MERCHANTABILITY or FITNESS FOR A PARTICULAR PURPOSE.  See the
   GNU Lesser General Public License for more details.
   
   Cite this work as:
   * C. Bannwarth, E. Caldeweyher, S. Ehlert, A. Hansen, P. Pracht,
     J. Seibert, S. Spicher, S. Grimme, WIREs Comput. Mol. Sci., 2020, 11,
     e01493. DOI: 10.1002/wcms.1493
   
   for GFN2-xTB:
   * C. Bannwarth, S. Ehlert and S. Grimme., J. Chem. Theory Comput., 2019,
     15, 1652-1671. DOI: 10.1021/acs.jctc.8b01176
   for GFN1-xTB:
   * S. Grimme, C. Bannwarth, P. Shushkov, J. Chem. Theory Comput., 2017,
     13, 1989-2009. DOI: 10.1021/acs.jctc.7b00118
   for GFN0-xTB:
   * P. Pracht, E. Caldeweyher, S. Ehlert, S. Grimme, ChemRxiv, 2019, preprint.
     DOI: 10.26434/chemrxiv.8326202.v1
   for GFN-FF:
   * S. Spicher and S. Grimme, Angew. Chem. Int. Ed., 2020, 59, 15665-15673.
     DOI: 10.1002/anie.202004239
   
   for ALPB and GBSA implicit solvation:
   * S. Ehlert, M. Stahn, S. Spicher, S. Grimme, J. Chem. Theory Comput.,
     2021, 17, 4250-4261. DOI: 10.1021/acs.jctc.1c00471
   
   for ddCOSMO and CPCM-X implicit solvation:
   * M. Stahn, S. Ehlert, S. Grimme, J. Phys. Chem. A,
     2023, XX, XXXX-XXXX. DOI: 10.1021/acs.jpca.3c04382
   
   for DFT-D4:
   * E. Caldeweyher, C. Bannwarth and S. Grimme, J. Chem. Phys., 2017,
     147, 034112. DOI: 10.1063/1.4993215
   * E. Caldeweyher, S. Ehlert, A. Hansen, H. Neugebauer, S. Spicher,
     C. Bannwarth and S. Grimme, J. Chem. Phys., 2019, 150, 154122.
     DOI: 10.1063/1.5090222
   * E. Caldeweyher, J.-M. Mewes, S. Ehlert and S. Grimme, Phys. Chem. Chem. Phys.
     2020, 22, 8499-8512. DOI: 10.1039/D0CP00502A
   
   for sTDA-xTB:
   * S. Grimme and C. Bannwarth, J. Chem. Phys., 2016, 145, 054103.
     DOI: 10.1063/1.4959605
   
   in the mass-spec context:
   * V. Asgeirsson, C. Bauer and S. Grimme, Chem. Sci., 2017, 8, 4879.
     DOI: 10.1039/c7sc00601b
   * J. Koopman and S. Grimme, ACS Omega 2019, 4, 12, 15120-15133.
     DOI: 10.1021/acsomega.9b02011
   
   for metadynamics refer to:
   * S. Grimme, J. Chem. Theory Comput., 2019, 155, 2847-2862
     DOI: 10.1021/acs.jctc.9b00143
   
   for SPH calculations refer to:
   * S. Spicher and S. Grimme, J. Chem. Theory Comput., 2021, 17, 1701-1714
     DOI: 10.1021/acs.jctc.0c01306
   
   for ONIOM refer to:
   * C. Plett, A. Katbashev, S. Ehlert, S. Grimme, M. Bursch,
     Phys. Chem. Chem. Phys., 2023, 25, 17860-17868. DOI: 10.1039/D3CP02178E
   
   for DIPRO refer to:
   * J. Kohn, N. Gildemeister, S. Grimme, D. Fazzi, A. Hansen,
     J. Chem. Phys., 2023, just accepted.
   
   for PTB refer to:
   * S. Grimme, M. Mueller, A. Hansen, J. Chem. Phys., 2023, 158, 124111.
     DOI: 10.1063/5.0137838
   
   with help from (in alphabetical order)
   P. Atkinson, C. Bannwarth, F. Bohle, G. Brandenburg, E. Caldeweyher
   M. Checinski, S. Dohm, S. Ehlert, S. Ehrlich, I. Gerasimov, C. Hölzer
   A. Katbashev, J. Kohn, J. Koopman, C. Lavigne, S. Lehtola, F. März, M. Müller,
   F. Musil, H. Neugebauer, J. Pisarek, C. Plett, P. Pracht, F. Pultar,
   J. Seibert, P. Shushkov, S. Spicher, M. Stahn, M. Steiner, T. Strunk,
   J. Stückrath, T. Rose, and J. Unsleber
   
 * started run on 2025/03/24 at 11:24:13.837     
   ID    Z sym.   atoms
    1    6 C      1-9, 11, 12, 14-21, 25-33, 35, 36, 38-45, 48-71
    2    7 N      10, 13, 34, 37
    3    8 O      22, 23, 46, 47
    4    5 B      24
    5    1 H      72-137

           -------------------------------------------------
          |                Calculation Setup                |
           -------------------------------------------------

          program call               : xtb Base1tBu.mol --opt --chrg 0 --uhf 1 --tight --spinpol --tblite
          coordinate file            : Base1tBu.mol
          omp threads                :                     8

########################################################################
[WARNING] Please study the warnings concerning your input carefully
-2- prog_main: Charge in sdf/mol input was overwritten
-1- prog_main_parseArguments: Unknown option '--tight' provided
########################################################################
repulsion energy          3.2090722321784E+00 Eh
dispersion energy         3.5956337761325E-03 Eh
interaction energy        0.0000000000000E+00 Eh
number of electrons       3.6100000000000E+02 e
integral cutoff           1.9311100799991E+01 bohr

------------------------------------------------------------
  cycle        total energy    energy error   density error
------------------------------------------------------------
      1     -194.1166666330  -1.9732933E+02   1.0151847E-01
      2     -191.9702656157   2.1464010E+00   7.6509153E-02
      3     -183.2465914748   8.7236741E+00   9.6160515E-02
      4     -187.5389681637  -4.2923767E+00   8.2993526E-02
      5     -194.3789747086  -6.8400065E+00   4.0672749E-02
      6     -194.8602747524  -4.8130004E-01   2.2051328E-02
      7     -194.7777188246   8.2555928E-02   2.3266824E-02
      8     -194.9051969849  -1.2747816E-01   1.5686825E-02
      9     -194.9503535852  -4.5156600E-02   1.1195889E-02
     10     -194.9490306811   1.3229041E-03   7.0118803E-03
     11     -194.9580932862  -9.0626051E-03   4.5528831E-03
     12     -194.9579370827   1.5620343E-04   5.5374407E-03
     13     -194.9611052353  -3.1681526E-03   4.2897596E-03
     14     -194.9639854276  -2.8801923E-03   2.8755858E-03
     15     -194.9654343746  -1.4489470E-03   1.6308700E-03
     16     -194.9657449243  -3.1054977E-04   1.1811120E-03
     17     -194.9656041242   1.4080017E-04   1.2375549E-03
     18     -194.9658439399  -2.3981575E-04   7.0271926E-04
     19     -194.9659752183  -1.3127838E-04   2.0507855E-04
     20     -194.9659658298   9.3884774E-06   2.1142731E-04
     21     -194.9659701855  -4.3556704E-06   1.9306662E-04
     22     -194.9659824282  -1.2242757E-05   4.7745732E-05
     23     -194.9659826163  -1.8810113E-07   3.4914744E-05
     24     -194.9659828491  -2.3278068E-07   1.8536130E-05
------------------------------------------------------------

electronic energy        -1.9817865071507E+02 Eh
total energy             -1.9496598284912E+02 Eh

 total:                                   2.819 sec
 - repulsion                              0.001 sec (  0%)
 - dispersion                             0.040 sec (  1%)
 - coulomb                                0.007 sec (  0%)
 - hamiltonian                            0.019 sec (  0%)
 - scc                                    2.752 sec ( 97%)

      ----------------------------------------------------------- 
     |                   =====================                   |
     |                        A N C O P T                        |
     |                   =====================                   |
     |               Approximate Normal Coordinate               |
     |                Rational Function Optimizer                |
      ----------------------------------------------------------- 
      ----------------------------------------------------------- 
     |                   =====================                   |
     |                        A N C O P T                        |
     |                   =====================                   |
     |               Approximate Normal Coordinate               |
     |                Rational Function Optimizer                |
      ----------------------------------------------------------- 

          ...................................................
          :                      SETUP                      :
          :.................................................:
          :   optimization level            normal          :
          :   max. optcycles                   411          :
          :   ANC micro-cycles                  20          :
          :   degrees of freedom               405          :
          :.................................................:
          :   RF solver                   davidson          :
          :   write xtbopt.log                true          :
          :   linear?                        false          :
          :   energy convergence         0.5000000E-05 Eh   :
          :   grad. convergence          0.1000000E-02 Eh/α :
          :   maxmium RF displ.          1.0000000          :
          :   Hlow (freq-cutoff)         0.1000000E-01      :
          :   Hmax (freq-cutoff)         5.0000000          :
          :   S6 in model hess.         20.0000000          :
          ...................................................

generating ANC from exact Hessian ...
Using Lindh-Hessian (1995)
 Shifting diagonal of input Hessian by    1.1664657831475000E-002
 Lowest  eigenvalues of input Hessian
    0.010000    0.010251    0.010624    0.011290    0.011469    0.000000
    0.000000    0.000000    0.000000    0.000000    0.000000    0.011707
    0.011746    0.011811    0.011912    0.011972    0.012037    0.012230
 Highest eigenvalues
    2.329077    2.462783    2.516340    2.516772    2.690956    2.703279


........................................................................
.............................. CYCLE    1 ..............................
........................................................................
------------------------------------------------------------
  cycle        total energy    energy error   density error
------------------------------------------------------------
      1     -194.9659541964  -1.9817862E+02   2.2950643E-04
      2     -194.9642253066   1.7288898E-03   1.8803487E-03
      3     -194.9657360505  -1.5107439E-03   7.1017762E-04
      4     -194.9659826585  -2.4660804E-04   2.9115298E-05
      5     -194.9659827591  -1.0061922E-07   2.2997010E-05
      6     -194.9659829311  -1.7203885E-07   9.8264280E-06
------------------------------------------------------------

 total:                                   1.040 sec
 * total energy  :  -194.9659829 Eh     change       -0.8203040E-07 Eh
   gradient norm :     0.6936680 Eh/α   predicted     0.0000000E+00 (-100.00%)
   displ. norm   :     0.6091860 α      lambda       -0.3478815E+00
   maximum displ.:     0.1518396 α      in ANC's #260, #285, #264, ...

........................................................................
.............................. CYCLE    2 ..............................
........................................................................
------------------------------------------------------------
  cycle        total energy    energy error   density error
------------------------------------------------------------
      1     -195.2133136930  -1.9835531E+02   9.2276235E-03
      2     -194.8565258774   3.5678782E-01   2.3776842E-02
      3     -195.2250189058  -3.6849303E-01   6.4444628E-03
      4     -195.1639560038   6.1062902E-02   1.1861970E-02
      5     -195.2056906982  -4.1734694E-02   8.3704434E-03
      6     -195.2273701110  -2.1679413E-02   4.2950186E-03
      7     -195.2277502015  -3.8009046E-04   3.3983948E-03
      8     -195.2306864011  -2.9361997E-03   2.5831548E-03
      9     -195.2308685532  -1.8215205E-04   2.4007652E-03
     10     -195.2316519546  -7.8340140E-04   1.7145445E-03
     11     -195.2317830670  -1.3111237E-04   1.3872560E-03
     12     -195.2318366012  -5.3534205E-05   1.2140680E-03
     13     -195.2321193491  -2.8274795E-04   6.8228025E-04
     14     -195.2322042451  -8.4895980E-05   2.4115145E-04
     15     -195.2322012512   2.9939004E-06   1.7827539E-04
     16     -195.2322090490  -7.7977757E-06   1.2049602E-04
     17     -195.2322095775  -5.2855509E-07   5.1652110E-05
     18     -195.2322098953  -3.1778862E-07   4.5820519E-05
     19     -195.2322105809  -6.8561638E-07   1.1734550E-05
------------------------------------------------------------

 total:                                   2.187 sec
 * total energy  :  -195.2322106 Eh     change       -0.2662276E+00 Eh
   gradient norm :     0.3457762 Eh/α   predicted    -0.2386278E+00 ( -10.37%)
   displ. norm   :     0.6757914 α      lambda       -0.2002623E+00
   maximum displ.:     0.1732634 α      in ANC's #260, #257, #285, ...

........................................................................
.............................. CYCLE    3 ..............................
........................................................................
------------------------------------------------------------
  cycle        total energy    energy error   density error
------------------------------------------------------------
      1     -195.3606168000  -1.9855720E+02   1.0176607E-02
      2     -195.0328371002   3.2777970E-01   2.3192995E-02
      3     -195.3789319374  -3.4609484E-01   5.8664066E-03
      4     -195.3335905414   4.5341396E-02   1.0088225E-02
      5     -195.3513607446  -1.7770203E-02   9.1357902E-03
      6     -195.3719665301  -2.0605785E-02   6.1930883E-03
      7     -195.3773131903  -5.3466602E-03   4.1553328E-03
      8     -195.3811839363  -3.8707460E-03   2.8038789E-03
      9     -195.3819440624  -7.6012608E-04   2.2159539E-03
     10     -195.3827095354  -7.6547301E-04   1.4619859E-03
     11     -195.3828200148  -1.1047940E-04   1.2381910E-03
     12     -195.3829247354  -1.0472067E-04   9.5504514E-04
     13     -195.3830481119  -1.2337649E-04   6.3451281E-04
     14     -195.3831226422  -7.4530259E-05   2.3915730E-04
     15     -195.3831327834  -1.0141217E-05   6.6495302E-05
     16     -195.3831320345   7.4890920E-07   8.8586250E-05
     17     -195.3831326137  -5.7923418E-07   4.7277227E-05
     18     -195.3831330985  -4.8472117E-07   7.0641330E-06
------------------------------------------------------------

 total:                                   2.006 sec
 * total energy  :  -195.3831331 Eh     change       -0.1509225E+00 Eh
   gradient norm :     0.1601044 Eh/α   predicted    -0.1458605E+00 (  -3.35%)
   displ. norm   :     0.7329722 α      lambda       -0.1019341E+00
   maximum displ.:     0.1651365 α      in ANC's #82, #85, #94, ...

........................................................................
.............................. CYCLE    4 ..............................
........................................................................
------------------------------------------------------------
  cycle        total energy    energy error   density error
------------------------------------------------------------
      1     -195.4599153832  -1.9866844E+02   7.9282900E-03
      2     -195.4149308648   4.4984518E-02   1.0285352E-02
      3     -195.4013361319   1.3594733E-02   1.2454418E-02
      4     -195.4411859269  -3.9849795E-02   7.4844575E-03
      5     -195.4549257667  -1.3739840E-02   4.2702046E-03
      6     -195.4597313609  -4.8055942E-03   4.0694634E-03
      7     -195.4596181887   1.1317221E-04   4.0456183E-03
      8     -195.4602097930  -5.9160426E-04   3.7009709E-03
      9     -195.4648248267  -4.6150337E-03   4.6785336E-04
     10     -195.4649120174  -8.7190773E-05   2.6909801E-04
     11     -195.4649342914  -2.2274013E-05   1.6049504E-04
     12     -195.4649320016   2.2898429E-06   1.4339880E-04
     13     -195.4649262799   5.7216992E-06   1.5512569E-04
     14     -195.4649334972  -7.2172779E-06   8.4644605E-05
     15     -195.4649353853  -1.8881424E-06   3.9195531E-05
     16     -195.4649357553  -3.6998333E-07   1.5846644E-05
------------------------------------------------------------

 total:                                   1.873 sec
 * total energy  :  -195.4649358 Eh     change       -0.8180266E-01 Eh
   gradient norm :     0.1047509 Eh/α   predicted    -0.7834922E-01 (  -4.22%)
   displ. norm   :     0.7744659 α      lambda       -0.6567612E-01
   maximum displ.:     0.1946128 α      in ANC's #82, #30, #22, ...

........................................................................
.............................. CYCLE    5 ..............................
........................................................................
------------------------------------------------------------
  cycle        total energy    energy error   density error
------------------------------------------------------------
      1     -195.5172413131  -1.9871152E+02   6.7550611E-03
      2     -195.4930433525   2.4197961E-02   8.6533515E-03
      3     -195.4643985354   2.8644817E-02   1.1956587E-02
      4     -195.5061342403  -4.1735705E-02   5.6809247E-03
      5     -195.5175251204  -1.1390880E-02   2.1824113E-03
      6     -195.5186743086  -1.1491882E-03   1.4143623E-03
      7     -195.5196021717  -9.2786315E-04   5.5751936E-04
      8     -195.5194722815   1.2989021E-04   7.8401052E-04
      9     -195.5196233523  -1.5107083E-04   3.7930823E-04
     10     -195.5196565063  -3.3154000E-05   2.5217576E-04
     11     -195.5196810021  -2.4495734E-05   5.4725028E-05
     12     -195.5196811338  -1.3173474E-07   5.3662370E-05
     13     -195.5196819547  -8.2093931E-07   1.5994975E-05
------------------------------------------------------------

 total:                                   1.585 sec
 * total energy  :  -195.5196820 Eh     change       -0.5474620E-01 Eh
   gradient norm :     0.0795115 Eh/α   predicted    -0.5253427E-01 (  -4.04%)
   displ. norm   :     0.8106878 α      lambda       -0.4737337E-01
   maximum displ.:     0.2286354 α      in ANC's #30, #22, #82, ...

........................................................................
.............................. CYCLE    6 ..............................
........................................................................
------------------------------------------------------------
  cycle        total energy    energy error   density error
------------------------------------------------------------
      1     -195.5593669722  -1.9873728E+02   5.5938045E-03
      2     -195.5393731227   1.9993849E-02   7.6469510E-03
      3     -195.5111382569   2.8234866E-02   1.1316095E-02
      4     -195.5456016595  -3.4463403E-02   5.3362891E-03
      5     -195.5565877779  -1.0986118E-02   2.5884232E-03
      6     -195.5603114233  -3.7236453E-03   5.8715616E-04
      7     -195.5604359620  -1.2453878E-04   2.8524200E-04
      8     -195.5604544646  -1.8502586E-05   1.9465524E-04
      9     -195.5604603935  -5.9288500E-06   1.0903504E-04
     10     -195.5604566769   3.7165665E-06   1.3607590E-04
     11     -195.5604638832  -7.2063180E-06   2.6512060E-05
     12     -195.5604639438  -6.0605970E-08   1.6808734E-05
------------------------------------------------------------

 total:                                   1.520 sec
 * total energy  :  -195.5604639 Eh     change       -0.4078199E-01 Eh
   gradient norm :     0.0619162 Eh/α   predicted    -0.3925397E-01 (  -3.75%)
   displ. norm   :     0.8438352 α      lambda       -0.3719719E-01
   maximum displ.:     0.2536697 α      in ANC's #22, #30, #24, ...

........................................................................
.............................. CYCLE    7 ..............................
........................................................................
------------------------------------------------------------
  cycle        total energy    energy error   density error
------------------------------------------------------------
      1     -195.5928927445  -1.9875125E+02   4.5216911E-03
      2     -195.5851013747   7.7913697E-03   5.0532305E-03
      3     -195.5679172061   1.7184169E-02   7.9354864E-03
      4     -195.5850463576  -1.7129151E-02   3.8611433E-03
      5     -195.5876128835  -2.5665260E-03   3.6140225E-03
      6     -195.5928986456  -5.2857621E-03   1.0444689E-03
      7     -195.5932899387  -3.9129308E-04   3.9232480E-04
      8     -195.5933364444  -4.6505679E-05   1.3533451E-04
      9     -195.5933390681  -2.6237149E-06   8.7584525E-05
     10     -195.5933414803  -2.4121966E-06   4.2011324E-05
     11     -195.5933415552  -7.4945007E-08   3.1615843E-05
     12     -195.5933417704  -2.1512534E-07   1.8294847E-05
------------------------------------------------------------

 total:                                   1.379 sec
 * total energy  :  -195.5933418 Eh     change       -0.3287783E-01 Eh
   gradient norm :     0.0495287 Eh/α   predicted    -0.3184191E-01 (  -3.15%)
   displ. norm   :     0.8687056 α      lambda       -0.3126072E-01
   maximum displ.:     0.2835158 α      in ANC's #22, #30, #24, ...

........................................................................
.............................. CYCLE    8 ..............................
........................................................................
------------------------------------------------------------
  cycle        total energy    energy error   density error
------------------------------------------------------------
      1     -195.6205479054  -1.9876329E+02   3.9785972E-03
      2     -195.6157038806   4.8440248E-03   4.1382028E-03
      3     -195.5778043970   3.7899484E-02   1.0541455E-02
      4     -195.6140074624  -3.6203065E-02   3.6033547E-03
      5     -195.6187673435  -4.7598811E-03   2.0686927E-03
      6     -195.6202544260  -1.4870825E-03   1.2377439E-03
      7     -195.6207465196  -4.9209359E-04   5.5865133E-04
      8     -195.6208558072  -1.0928754E-04   1.3866267E-04
      9     -195.6208588543  -3.0471522E-06   7.6828384E-05
     10     -195.6208584812   3.7313367E-07   7.8083169E-05
     11     -195.6208600999  -1.6187680E-06   3.9468199E-05
     12     -195.6208605228  -4.2280993E-07   1.4774391E-05
------------------------------------------------------------

 total:                                   1.472 sec
 * total energy  :  -195.6208605 Eh     change       -0.2751875E-01 Eh
   gradient norm :     0.0431359 Eh/α   predicted    -0.2742586E-01 (  -0.34%)
   displ. norm   :     0.8929938 α      lambda       -0.2766165E-01
   maximum displ.:     0.2863401 α      in ANC's #22, #30, #24, ...

........................................................................
.............................. CYCLE    9 ..............................
........................................................................
------------------------------------------------------------
  cycle        total energy    energy error   density error
------------------------------------------------------------
      1     -195.6423610394  -1.9876641E+02   3.8324625E-03
      2     -195.6044348660   3.7926173E-02   9.9306655E-03
      3     -195.6337715332  -2.9336667E-02   5.1122434E-03
      4     -195.6327868740   9.8465918E-04   4.6117528E-03
      5     -195.6427336900  -9.9468161E-03   1.1800365E-03
      6     -195.6431955698  -4.6187973E-04   5.0328496E-04
      7     -195.6432953146  -9.9744808E-05   2.3661050E-04
      8     -195.6433025215  -7.2069421E-06   1.6526102E-04
      9     -195.6433085418  -6.0202410E-06   8.3691122E-05
     10     -195.6433105062  -1.9644591E-06   2.9322803E-05
     11     -195.6433105070  -7.6880724E-10   2.8720043E-05
     12     -195.6433106958  -1.8886101E-07   1.6934281E-05
------------------------------------------------------------

 total:                                   1.465 sec
 * total energy  :  -195.6433107 Eh     change       -0.2245017E-01 Eh
   gradient norm :     0.0537756 Eh/α   predicted    -0.2486005E-01 (  10.73%)
   displ. norm   :     0.8567778 α      lambda       -0.2414371E-01
   maximum displ.:     0.3056931 α      in ANC's #22, #30, #24, ...

........................................................................
.............................. CYCLE   10 ..............................
........................................................................
------------------------------------------------------------
  cycle        total energy    energy error   density error
------------------------------------------------------------
      1     -195.6624022824  -1.9877354E+02   2.9828375E-03
      2     -195.6595924011   2.8098813E-03   3.2188688E-03
      3     -195.6418899374   1.7702464E-02   7.1395271E-03
      4     -195.6610127178  -1.9122780E-02   1.8360062E-03
      5     -195.6618296022  -8.1688442E-04   1.2705608E-03
      6     -195.6624662356  -6.3663339E-04   4.4747072E-04
      7     -195.6625610769  -9.4841368E-05   1.2922322E-04
      8     -195.6625664724  -5.3955027E-06   6.4064041E-05
      9     -195.6625671503  -6.7781951E-07   2.7801524E-05
     10     -195.6625671213   2.8978889E-08   2.6420441E-05
     11     -195.6625672947  -1.7347497E-07   1.2678529E-05
------------------------------------------------------------

 total:                                   1.159 sec
 * total energy  :  -195.6625673 Eh     change       -0.1925660E-01 Eh
   gradient norm :     0.0476408 Eh/α   predicted    -0.2093342E-01 (   8.71%)
   displ. norm   :     0.8486226 α      lambda       -0.2084531E-01
   maximum displ.:     0.2983693 α      in ANC's #22, #24, #30, ...

........................................................................
.............................. CYCLE   11 ..............................
........................................................................
------------------------------------------------------------
  cycle        total energy    energy error   density error
------------------------------------------------------------
      1     -195.6776357640  -1.9876734E+02   3.1212396E-03
      2     -195.6769117932   7.2397076E-04   2.4225525E-03
      3     -195.6588650526   1.8046741E-02   6.7593716E-03
      4     -195.6661614447  -7.2963921E-03   5.5082711E-03
      5     -195.6765638305  -1.0402386E-02   1.7346792E-03
      6     -195.6776645916  -1.1007611E-03   7.8187502E-04
      7     -195.6779715388  -3.0694724E-04   2.0686799E-04
      8     -195.6779800015  -8.4626825E-06   1.1964767E-04
      9     -195.6779849520  -4.9505181E-06   3.7037263E-05
     10     -195.6779849587  -6.6721100E-09   3.0514263E-05
     11     -195.6779852482  -2.8950396E-07   1.4621450E-05
------------------------------------------------------------

 total:                                   1.379 sec
 * total energy  :  -195.6779852 Eh     change       -0.1541795E-01 Eh
   gradient norm :     0.0549402 Eh/α   predicted    -0.1792866E-01 (  16.28%)
   displ. norm   :     0.8160959 α      lambda       -0.1743704E-01
   maximum displ.:     0.2881173 α      in ANC's #22, #24, #34, ...

........................................................................
.............................. CYCLE   12 ..............................
........................................................................
------------------------------------------------------------
  cycle        total energy    energy error   density error
------------------------------------------------------------
      1     -195.6920314871  -1.9877257E+02   2.4845320E-03
      2     -195.6892950729   2.7364142E-03   2.8540170E-03
      3     -195.6786947110   1.0600362E-02   5.8245000E-03
      4     -195.6819674786  -3.2727676E-03   4.9386735E-03
      5     -195.6918724790  -9.9050004E-03   9.8268884E-04
      6     -195.6922452310  -3.7275194E-04   3.4245306E-04
      7     -195.6922971323  -5.1901304E-05   1.5329256E-04
      8     -195.6923042704  -7.1381384E-06   7.0016129E-05
      9     -195.6923033214   9.4904271E-07   7.8202783E-05
     10     -195.6923056120  -2.2906584E-06   2.0058437E-05
     11     -195.6923056520  -3.9944695E-08   1.3837795E-05
------------------------------------------------------------

 total:                                   1.203 sec
 * total energy  :  -195.6923057 Eh     change       -0.1432040E-01 Eh
   gradient norm :     0.0320184 Eh/α   predicted    -0.1452517E-01 (   1.43%)
   displ. norm   :     0.8471828 α      lambda       -0.1443721E-01
   maximum displ.:     0.3144500 α      in ANC's #22, #24, #18, ...

........................................................................
.............................. CYCLE   13 ..............................
........................................................................
------------------------------------------------------------
  cycle        total energy    energy error   density error
------------------------------------------------------------
      1     -195.7042502446  -1.9877022E+02   2.5302968E-03
      2     -195.7013318592   2.9183854E-03   3.1277345E-03
      3     -195.6889789759   1.2352883E-02   6.2265803E-03
      4     -195.7012454530  -1.2266477E-02   2.3522645E-03
      5     -195.7032860587  -2.0406058E-03   1.5274763E-03
      6     -195.7043353225  -1.0492638E-03   2.4696987E-04
      7     -195.7043565103  -2.1187744E-05   8.1019057E-05
      8     -195.7043571863  -6.7604111E-07   6.2963860E-05
      9     -195.7043577803  -5.9401629E-07   4.6048797E-05
     10     -195.7043582509  -4.7063156E-07   2.3414134E-05
     11     -195.7043584026  -1.5169283E-07   1.0972620E-05
------------------------------------------------------------

 total:                                   1.274 sec
 * total energy  :  -195.7043584 Eh     change       -0.1205275E-01 Eh
   gradient norm :     0.0294281 Eh/α   predicted    -0.1239955E-01 (   2.88%)
   displ. norm   :     0.8568541 α      lambda       -0.1205782E-01
   maximum displ.:     0.3043042 α      in ANC's #22, #24, #18, ...

........................................................................
.............................. CYCLE   14 ..............................
........................................................................
------------------------------------------------------------
  cycle        total energy    energy error   density error
------------------------------------------------------------
      1     -195.7146400144  -1.9877137E+02   2.4645373E-03
      2     -195.7005935496   1.4046465E-02   6.1954181E-03
      3     -195.7102769735  -9.6834239E-03   3.5416243E-03
      4     -195.7108041878  -5.2721428E-04   2.9848503E-03
      5     -195.7141460357  -3.3418479E-03   1.2424128E-03
      6     -195.7148425759  -6.9654018E-04   4.1239887E-04
      7     -195.7148885818  -4.6005923E-05   2.4180028E-04
      8     -195.7149049773  -1.6395538E-05   1.2386172E-04
      9     -195.7149102434  -5.2660216E-06   3.5702769E-05
     10     -195.7149104677  -2.2438547E-07   1.6768514E-05
------------------------------------------------------------

 total:                                   1.186 sec
 * total energy  :  -195.7149105 Eh     change       -0.1055207E-01 Eh
   gradient norm :     0.0225245 Eh/α   predicted    -0.1045533E-01 (  -0.92%)
   displ. norm   :     0.8656870 α      lambda       -0.1005586E-01
   maximum displ.:     0.3001000 α      in ANC's #22, #19, #18, ...

........................................................................
.............................. CYCLE   15 ..............................
........................................................................
------------------------------------------------------------
  cycle        total energy    energy error   density error
------------------------------------------------------------
      1     -195.7236014438  -1.9876702E+02   2.5866350E-03
      2     -195.7124155059   1.1185938E-02   5.4323337E-03
      3     -195.7147118395  -2.2963336E-03   4.9526224E-03
      4     -195.7179001038  -3.1882643E-03   3.3700518E-03
      5     -195.7229284814  -5.0283776E-03   1.3738742E-03
      6     -195.7237718088  -8.4332737E-04   2.7326571E-04
      7     -195.7237993676  -2.7558800E-05   9.9500781E-05
      8     -195.7238013616  -1.9939964E-06   6.4343931E-05
      9     -195.7238015143  -1.5275810E-07   4.9649141E-05
     10     -195.7238016987  -1.8435824E-07   3.1184188E-05
     11     -195.7238019770  -2.7833585E-07   1.2530360E-05
------------------------------------------------------------

 total:                                   1.186 sec
 * total energy  :  -195.7238020 Eh     change       -0.8891509E-02 Eh
   gradient norm :     0.0215721 Eh/α   predicted    -0.8795952E-02 (  -1.07%)
   displ. norm   :     0.8774742 α      lambda       -0.9251637E-02
   maximum displ.:     0.2731758 α      in ANC's #22, #18, #19, ...

........................................................................
.............................. CYCLE   16 ..............................
........................................................................
------------------------------------------------------------
  cycle        total energy    energy error   density error
------------------------------------------------------------
      1     -195.7307733999  -1.9877015E+02   2.9354446E-03
      2     -195.7075124666   2.3260933E-02   7.7702105E-03
      3     -195.7273376563  -1.9825190E-02   3.4013979E-03
      4     -195.7267917617   5.4589463E-04   3.0619722E-03
      5     -195.7302746603  -3.4828986E-03   1.4831993E-03
      6     -195.7311568444  -8.8218412E-04   5.9872539E-04
      7     -195.7311861493  -2.9304970E-05   5.0924539E-04
      8     -195.7312769992  -9.0849822E-05   1.4925173E-04
      9     -195.7312841933  -7.1941330E-06   3.0062236E-05
     10     -195.7312842677  -7.4359775E-08   2.2895611E-05
     11     -195.7312843653  -9.7637837E-08   1.6117847E-05
------------------------------------------------------------

 total:                                   1.303 sec
 * total energy  :  -195.7312844 Eh     change       -0.7482388E-02 Eh
   gradient norm :     0.0347655 Eh/α   predicted    -0.8187517E-02 (   9.42%)
   displ. norm   :     0.8238201 α      lambda       -0.8233066E-02
   maximum displ.:     0.2468356 α      in ANC's #22, #19, #18, ...

........................................................................
.............................. CYCLE   17 ..............................
........................................................................
------------------------------------------------------------
  cycle        total energy    energy error   density error
------------------------------------------------------------
      1     -195.7377607005  -1.9876767E+02   2.7179871E-03
      2     -195.7364653170   1.2953835E-03   2.3854303E-03
      3     -195.7322317695   4.2335474E-03   3.5245436E-03
      4     -195.7184809035   1.3750866E-02   6.7153134E-03
      5     -195.7375705803  -1.9089677E-02   9.9023678E-04
      6     -195.7379034401  -3.3285974E-04   3.4679247E-04
      7     -195.7379494069  -4.5966768E-05   1.7505851E-04
      8     -195.7379542893  -4.8824827E-06   1.3256718E-04
      9     -195.7379566435  -2.3541611E-06   9.2021920E-05
     10     -195.7379587597  -2.1162096E-06   4.6041226E-05
     11     -195.7379594740  -7.1434312E-07   1.2393417E-05
------------------------------------------------------------

 total:                                   1.135 sec
 * total energy  :  -195.7379595 Eh     change       -0.6675109E-02 Eh
   gradient norm :     0.0220193 Eh/α   predicted    -0.6910352E-02 (   3.52%)
   displ. norm   :     0.8232161 α      lambda       -0.6555646E-02
   maximum displ.:     0.2264687 α      in ANC's #22, #19, #8, ...

........................................................................
.............................. CYCLE   18 ..............................
........................................................................
------------------------------------------------------------
  cycle        total energy    energy error   density error
------------------------------------------------------------
      1     -195.7432097812  -1.9876149E+02   2.8170238E-03
      2     -195.7191989083   2.4010873E-02   7.7622377E-03
      3     -195.7342058238  -1.5006916E-02   5.0193690E-03
      4     -195.7361911558  -1.9853320E-03   3.8482905E-03
      5     -195.7429244971  -6.7333412E-03   1.0921580E-03
      6     -195.7435035634  -5.7906628E-04   2.4941825E-04
      7     -195.7435177678  -1.4204402E-05   1.4837360E-04
      8     -195.7435233233  -5.5555055E-06   8.3104169E-05
      9     -195.7435237877  -4.6437879E-07   6.0888265E-05
     10     -195.7435243433  -5.5567099E-07   3.4596426E-05
     11     -195.7435246367  -2.9340933E-07   1.4716017E-05
------------------------------------------------------------

 total:                                   1.367 sec
 * total energy  :  -195.7435246 Eh     change       -0.5565163E-02 Eh
   gradient norm :     0.0195048 Eh/α   predicted    -0.5499156E-02 (  -1.19%)
   displ. norm   :     0.8267971 α      lambda       -0.5771935E-02
   maximum displ.:     0.2447116 α      in ANC's #14, #19, #8, ...

........................................................................
.............................. CYCLE   19 ..............................
........................................................................
------------------------------------------------------------
  cycle        total energy    energy error   density error
------------------------------------------------------------
      1     -195.7483795895  -1.9876973E+02   2.6749671E-03
      2     -195.7464081641   1.9714255E-03   2.7531651E-03
      3     -195.7223832533   2.4024911E-02   7.9490296E-03
      4     -195.7317450719  -9.3618186E-03   6.1829109E-03
      5     -195.7479742168  -1.6229145E-02   1.0290240E-03
      6     -195.7483869519  -4.1273507E-04   5.2323324E-04
      7     -195.7484687753  -8.1823364E-05   2.8052740E-04
      8     -195.7484946728  -2.5897529E-05   1.0484547E-04
      9     -195.7484978266  -3.1537734E-06   4.5555093E-05
     10     -195.7484978167   9.8449107E-09   3.3495074E-05
     11     -195.7484982127  -3.9597194E-07   9.2599142E-06
------------------------------------------------------------

 total:                                   1.144 sec
 * total energy  :  -195.7484982 Eh     change       -0.4973576E-02 Eh
   gradient norm :     0.0161664 Eh/α   predicted    -0.4858775E-02 (  -2.31%)
   displ. norm   :     0.8454936 α      lambda       -0.5282751E-02
   maximum displ.:     0.2657433 α      in ANC's #14, #8, #19, ...

........................................................................
.............................. CYCLE   20 ..............................
........................................................................
------------------------------------------------------------
  cycle        total energy    energy error   density error
------------------------------------------------------------
      1     -195.7525300397  -1.9876573E+02   3.0248467E-03
      2     -195.7495518888   2.9781508E-03   3.1586908E-03
      3     -195.7248682359   2.4683653E-02   8.0662877E-03
      4     -195.7417913357  -1.6923100E-02   4.8109771E-03
      5     -195.7517250798  -9.9337440E-03   1.4444024E-03
      6     -195.7525462283  -8.2114851E-04   5.8305288E-04
      7     -195.7525200570   2.6171253E-05   6.2146770E-04
      8     -195.7525521267  -3.2069668E-05   5.3632146E-04
      9     -195.7526327858  -8.0659160E-05   2.7220561E-04
     10     -195.7526613345  -2.8548680E-05   3.5143846E-05
     11     -195.7526614395  -1.0501142E-07   3.2655674E-05
     12     -195.7526616508  -2.1129912E-07   1.9391468E-05
------------------------------------------------------------

 total:                                   1.472 sec
 * total energy  :  -195.7526617 Eh     change       -0.4163438E-02 Eh
   gradient norm :     0.0255449 Eh/α   predicted    -0.4529590E-02 (   8.79%)
   displ. norm   :     0.7752367 α      lambda       -0.5073583E-02
   maximum displ.:     0.2876194 α      in ANC's #14, #8, #31, ...
 * RMSD in coord.:     1.1210546 α      energy gain  -0.7866788E+00 Eh

generating ANC from exact Hessian ...
Using Lindh-Hessian (1995)
 Shifting diagonal of input Hessian by    1.0425060734884301E-002
 Lowest  eigenvalues of input Hessian
    0.010000    0.000000    0.000000    0.000000    0.000000    0.000000
    0.000000    0.010463    0.010520    0.010567    0.010629    0.010723
    0.010843    0.010877    0.010898    0.010960    0.011221    0.011230
 Highest eigenvalues
    2.080679    2.082146    2.187310    2.193992    2.196232    2.201280


........................................................................
.............................. CYCLE   21 ..............................
........................................................................
------------------------------------------------------------
  cycle        total energy    energy error   density error
------------------------------------------------------------
      1     -195.7560877499  -1.9877402E+02   2.6987140E-03
      2     -195.7249777900   3.1109960E-02   8.7074010E-03
      3     -195.7477563881  -2.2778598E-02   4.7694920E-03
      4     -195.7506073629  -2.8509748E-03   3.5704599E-03
      5     -195.7559820181  -5.3746552E-03   1.0126665E-03
      6     -195.7563221379  -3.4011979E-04   5.9536149E-04
      7     -195.7564224044  -1.0026644E-04   3.2623331E-04
      8     -195.7564614182  -3.9013813E-05   9.7042359E-05
      9     -195.7564624887  -1.0705734E-06   7.3779431E-05
     10     -195.7564639414  -1.4526544E-06   3.6998001E-05
     11     -195.7564643866  -4.4524307E-07   1.4924856E-05
------------------------------------------------------------

 total:                                   1.148 sec
 * total energy  :  -195.7564644 Eh     change       -0.3802736E-02 Eh
   gradient norm :     0.0210085 Eh/α   predicted     0.0000000E+00 (-100.00%)
   displ. norm   :     0.3404674 α      lambda       -0.2740845E-02
   maximum displ.:     0.1180725 α      in ANC's #9, #6, #27, ...

........................................................................
.............................. CYCLE   22 ..............................
........................................................................
------------------------------------------------------------
  cycle        total energy    energy error   density error
------------------------------------------------------------
      1     -195.7587894413  -1.9878029E+02   1.4994431E-03
      2     -195.7582996305   4.8981078E-04   1.3507476E-03
      3     -195.7413887516   1.6910879E-02   6.4170802E-03
      4     -195.7585543575  -1.7165606E-02   7.2527587E-04
      5     -195.7586327719  -7.8414473E-05   6.1942889E-04
      6     -195.7587918017  -1.5902982E-04   2.1441570E-04
      7     -195.7587873946   4.4071382E-06   2.2738957E-04
      8     -195.7587981088  -1.0714219E-05   1.5836128E-04
      9     -195.7588067020  -8.5931541E-06   5.8862478E-05
     10     -195.7588080698  -1.3678336E-06   7.5652577E-06
     11     -195.7588080883  -1.8449441E-08   3.1548358E-06
------------------------------------------------------------

 total:                                   1.317 sec
 * total energy  :  -195.7588081 Eh     change       -0.2343702E-02 Eh
   gradient norm :     0.0095172 Eh/α   predicted    -0.1529318E-02 ( -34.75%)
   displ. norm   :     0.7314679 α      lambda       -0.4182267E-02
   maximum displ.:     0.2618587 α      in ANC's #9, #27, #6, ...

........................................................................
.............................. CYCLE   23 ..............................
........................................................................
------------------------------------------------------------
  cycle        total energy    energy error   density error
------------------------------------------------------------
      1     -195.7622245281  -1.9878484E+02   2.8938137E-03
      2     -195.7612261551   9.9837299E-04   2.3934523E-03
      3     -195.7183580268   4.2868128E-02   1.0145505E-02
      4     -195.7606081130  -4.2250086E-02   1.9296790E-03
      5     -195.7617571992  -1.1490862E-03   1.1294019E-03
      6     -195.7621412853  -3.8408615E-04   5.9436127E-04
      7     -195.7622712259  -1.2994058E-04   2.2087787E-04
      8     -195.7622826021  -1.1376202E-05   1.4136655E-04
      9     -195.7622902419  -7.6398171E-06   5.2741877E-05
     10     -195.7622898851   3.5688129E-07   5.7734740E-05
     11     -195.7622908637  -9.7863369E-07   2.9834386E-05
     12     -195.7622911154  -2.5169254E-07   1.3934327E-05
------------------------------------------------------------

 total:                                   1.237 sec
 * total energy  :  -195.7622911 Eh     change       -0.3483027E-02 Eh
   gradient norm :     0.0177862 Eh/α   predicted    -0.3210691E-02 (  -7.82%)
   displ. norm   :     0.7770575 α      lambda       -0.3577885E-02
   maximum displ.:     0.2910105 α      in ANC's #9, #27, #11, ...

........................................................................
.............................. CYCLE   24 ..............................
........................................................................
------------------------------------------------------------
  cycle        total energy    energy error   density error
------------------------------------------------------------
      1     -195.7654342956  -1.9878495E+02   2.8347642E-03
      2     -195.7562743016   9.1599940E-03   4.8812817E-03
      3     -195.7449547934   1.1319508E-02   7.0684114E-03
      4     -195.7644398683  -1.9485075E-02   1.6052215E-03
      5     -195.7651829751  -7.4310683E-04   9.0158020E-04
      6     -195.7654328970  -2.4992189E-04   5.3379172E-04
      7     -195.7654160953   1.6801747E-05   5.8087297E-04
      8     -195.7654237058  -7.6105157E-06   5.4719171E-04
      9     -195.7655340751  -1.1036933E-04   1.3138470E-04
     10     -195.7655407787  -6.7035990E-06   1.3139217E-05
     11     -195.7655407997  -2.0952399E-08   9.6228577E-06
------------------------------------------------------------

 total:                                   1.329 sec
 * total energy  :  -195.7655408 Eh     change       -0.3249684E-02 Eh
   gradient norm :     0.0237634 Eh/α   predicted    -0.2869139E-02 ( -11.71%)
   displ. norm   :     0.8178157 α      lambda       -0.3958542E-02
   maximum displ.:     0.3154654 α      in ANC's #9, #11, #6, ...

........................................................................
.............................. CYCLE   25 ..............................
........................................................................
------------------------------------------------------------
  cycle        total energy    energy error   density error
------------------------------------------------------------
      1     -195.7690413975  -1.9878633E+02   2.7993510E-03
      2     -195.7641248625   4.9165350E-03   3.8332371E-03
      3     -195.7416457910   2.2479071E-02   8.1208206E-03
      4     -195.7677531174  -2.6107326E-02   1.7957928E-03
      5     -195.7687401655  -9.8704811E-04   9.3514961E-04
      6     -195.7690128090  -2.7264352E-04   4.9491074E-04
      7     -195.7691134070  -1.0059801E-04   1.7254454E-04
      8     -195.7691120782   1.3288791E-06   1.8272338E-04
      9     -195.7691254048  -1.3326663E-05   3.4535029E-05
     10     -195.7691249356   4.6926345E-07   4.5279373E-05
     11     -195.7691255504  -6.1485747E-07   2.4567902E-05
     12     -195.7691257510  -2.0059170E-07   9.7055122E-06
------------------------------------------------------------

 total:                                   1.280 sec
 * total energy  :  -195.7691258 Eh     change       -0.3584951E-02 Eh
   gradient norm :     0.0179763 Eh/α   predicted    -0.3303052E-02 (  -7.86%)
   displ. norm   :     0.8340816 α      lambda       -0.3852836E-02
   maximum displ.:     0.3301145 α      in ANC's #9, #11, #6, ...

........................................................................
.............................. CYCLE   26 ..............................
........................................................................
------------------------------------------------------------
  cycle        total energy    energy error   density error
------------------------------------------------------------
      1     -195.7725044639  -1.9878952E+02   2.8292828E-03
      2     -195.7663365515   6.1679124E-03   4.0997171E-03
      3     -195.7486261458   1.7710406E-02   7.4911909E-03
      4     -195.7716164615  -2.2990316E-02   1.5432048E-03
      5     -195.7722101571  -5.9369563E-04   9.2489008E-04
      6     -195.7724809852  -2.7082814E-04   5.5249887E-04
      7     -195.7724632608   1.7724420E-05   6.0014955E-04
      8     -195.7724571578   6.1029741E-06   5.9726051E-04
      9     -195.7725824583  -1.2530048E-04   1.7569356E-04
     10     -195.7725947014  -1.2243044E-05   2.1007379E-05
     11     -195.7725948110  -1.0959641E-07   1.3214792E-05
------------------------------------------------------------

 total:                                   1.245 sec
 * total energy  :  -195.7725948 Eh     change       -0.3469060E-02 Eh
   gradient norm :     0.0124353 Eh/α   predicted    -0.3266617E-02 (  -5.84%)
   displ. norm   :     0.8425576 α      lambda       -0.3513012E-02
   maximum displ.:     0.3425981 α      in ANC's #9, #11, #6, ...

........................................................................
.............................. CYCLE   27 ..............................
........................................................................
------------------------------------------------------------
  cycle        total energy    energy error   density error
------------------------------------------------------------
      1     -195.7756526133  -1.9879430E+02   2.8146960E-03
      2     -195.7642658959   1.1386717E-02   5.3728159E-03
      3     -195.7576865507   6.5793452E-03   6.6061770E-03
      4     -195.7751079444  -1.7421394E-02   1.1722225E-03
      5     -195.7755122021  -4.0425766E-04   7.2422538E-04
      6     -195.7756951135  -1.8291145E-04   4.5181981E-04
      7     -195.7757064199  -1.1306340E-05   4.3475535E-04
      8     -195.7756913913   1.5028542E-05   4.6232635E-04
      9     -195.7757590755  -6.7684148E-05   1.9603287E-04
     10     -195.7757736548  -1.4579266E-05   1.8880742E-05
     11     -195.7757737450  -9.0202974E-08   7.7414461E-06
------------------------------------------------------------

 total:                                   1.256 sec
 * total energy  :  -195.7757737 Eh     change       -0.3178934E-02 Eh
   gradient norm :     0.0102151 Eh/α   predicted    -0.3003455E-02 (  -5.52%)
   displ. norm   :     0.8656713 α      lambda       -0.3226485E-02
   maximum displ.:     0.3562613 α      in ANC's #9, #11, #6, ...

........................................................................
.............................. CYCLE   28 ..............................
........................................................................
------------------------------------------------------------
  cycle        total energy    energy error   density error
------------------------------------------------------------
      1     -195.7786597405  -1.9879590E+02   2.7849355E-03
      2     -195.7772974720   1.3622685E-03   2.3751792E-03
      3     -195.7446966154   3.2600857E-02   8.4958607E-03
      4     -195.7766243984  -3.1927783E-02   2.0622648E-03
      5     -195.7782760683  -1.6516699E-03   1.0080947E-03
      6     -195.7786151463  -3.3907802E-04   5.8360652E-04
      7     -195.7785250465   9.0099821E-05   7.5050384E-04
      8     -195.7785233634   1.6830434E-06   7.4131748E-04
      9     -195.7787191869  -1.9582345E-04   1.5156090E-04
     10     -195.7787227716  -3.5847046E-06   1.3221789E-04
     11     -195.7787277237  -4.9521495E-06   5.4567319E-05
     12     -195.7787287945  -1.0707543E-06   1.2598999E-05
     13     -195.7787284352   3.5928431E-07   3.3805974E-05
     14     -195.7787287051  -2.6992817E-07   1.9512634E-05
------------------------------------------------------------

 total:                                   1.459 sec
 * total energy  :  -195.7787287 Eh     change       -0.2954960E-02 Eh
   gradient norm :     0.0126258 Eh/α   predicted    -0.2822230E-02 (  -4.49%)
   displ. norm   :     0.8539167 α      lambda       -0.3330254E-02
   maximum displ.:     0.3523011 α      in ANC's #9, #11, #6, ...

........................................................................
.............................. CYCLE   29 ..............................
........................................................................
------------------------------------------------------------
  cycle        total energy    energy error   density error
------------------------------------------------------------
      1     -195.7812201796  -1.9881206E+02   2.7045768E-03
      2     -195.7654243763   1.5795803E-02   6.2427661E-03
      3     -195.7714412784  -6.0169021E-03   4.9939259E-03
      4     -195.7800193249  -8.5780465E-03   1.6155351E-03
      5     -195.7809864986  -9.6717369E-04   9.6624758E-04
      6     -195.7813646265  -3.7812790E-04   3.7425038E-04
      7     -195.7813628642   1.7622795E-06   3.8271508E-04
      8     -195.7813697948  -6.9305637E-06   3.4875426E-04
      9     -195.7814038148  -3.4020086E-05   1.8506223E-04
     10     -195.7814165770  -1.2762166E-05   4.1609418E-05
     11     -195.7814171069  -5.2985848E-07   1.8753863E-05
------------------------------------------------------------

 total:                                   1.128 sec
 * total energy  :  -195.7814171 Eh     change       -0.2688402E-02 Eh
   gradient norm :     0.0200013 Eh/α   predicted    -0.2879296E-02 (   7.10%)
   displ. norm   :     0.8497084 α      lambda       -0.3301584E-02
   maximum displ.:     0.3468703 α      in ANC's #9, #6, #11, ...

........................................................................
.............................. CYCLE   30 ..............................
........................................................................
------------------------------------------------------------
  cycle        total energy    energy error   density error
------------------------------------------------------------
      1     -195.7839985292  -1.9880258E+02   2.7089133E-03
      2     -195.7831550286   8.4350055E-04   2.1050850E-03
      3     -195.7614290066   2.1726022E-02   7.2377806E-03
      4     -195.7608811669   5.4783968E-04   7.1034653E-03
      5     -195.7839690781  -2.3087911E-02   6.6006579E-04
      6     -195.7841237322  -1.5465404E-04   1.6696880E-04
      7     -195.7841252871  -1.5549521E-06   1.5547987E-04
      8     -195.7841298472  -4.5600408E-06   1.1046491E-04
      9     -195.7841330952  -3.2480380E-06   6.2748373E-05
     10     -195.7841340828  -9.8761035E-07   3.3277230E-05
     11     -195.7841343410  -2.5820273E-07   1.9828280E-05
------------------------------------------------------------

 total:                                   1.232 sec
 * total energy  :  -195.7841343 Eh     change       -0.2717234E-02 Eh
   gradient norm :     0.0177688 Eh/α   predicted    -0.2842673E-02 (   4.62%)
   displ. norm   :     0.7723821 α      lambda       -0.2741374E-02
   maximum displ.:     0.3128776 α      in ANC's #6, #9, #11, ...

........................................................................
.............................. CYCLE   31 ..............................
........................................................................
------------------------------------------------------------
  cycle        total energy    energy error   density error
------------------------------------------------------------
      1     -195.7865537955  -1.9880014E+02   2.2147456E-03
      2     -195.7852123770   1.3414185E-03   2.2375436E-03
      3     -195.7574535716   2.7758805E-02   8.2597348E-03
      4     -195.7796889448  -2.2235373E-02   3.7598214E-03
      5     -195.7863409338  -6.6519890E-03   8.1734951E-04
      6     -195.7865964505  -2.5551667E-04   2.7996183E-04
      7     -195.7866293605  -3.2910018E-05   7.3138876E-05
      8     -195.7866294823  -1.2177233E-07   7.0951546E-05
      9     -195.7866311066  -1.6243045E-06   2.8685572E-05
     10     -195.7866313259  -2.1936202E-07   1.6098086E-05
------------------------------------------------------------

 total:                                   1.073 sec
 * total energy  :  -195.7866313 Eh     change       -0.2496985E-02 Eh
   gradient norm :     0.0164684 Eh/α   predicted    -0.2188411E-02 ( -12.36%)
   displ. norm   :     0.7825697 α      lambda       -0.3305229E-02
   maximum displ.:     0.3093476 α      in ANC's #6, #11, #9, ...

........................................................................
.............................. CYCLE   32 ..............................
........................................................................
------------------------------------------------------------
  cycle        total energy    energy error   density error
------------------------------------------------------------
      1     -195.7893245694  -1.9881020E+02   2.3053988E-03
      2     -195.7862962412   3.0283283E-03   2.9830264E-03
      3     -195.7703682110   1.5928030E-02   6.6642221E-03
      4     -195.7874883301  -1.7120119E-02   2.0138178E-03
      5     -195.7888334544  -1.3451243E-03   1.1243277E-03
      6     -195.7893060495  -4.7259509E-04   5.2659147E-04
      7     -195.7893225597  -1.6510195E-05   4.8553216E-04
      8     -195.7893637747  -4.1215033E-05   3.5232417E-04
      9     -195.7894038796  -4.0104936E-05   1.4871819E-04
     10     -195.7894118693  -7.9897085E-06   4.1127522E-05
     11     -195.7894123068  -4.3747471E-07   2.1863961E-05
     12     -195.7894124448  -1.3799163E-07   7.6823667E-06
------------------------------------------------------------

 total:                                   1.299 sec
 * total energy  :  -195.7894124 Eh     change       -0.2781119E-02 Eh
   gradient norm :     0.0147589 Eh/α   predicted    -0.2664709E-02 (  -4.19%)
   displ. norm   :     0.8422975 α      lambda       -0.2867759E-02
   maximum displ.:     0.3577247 α      in ANC's #6, #11, #9, ...

........................................................................
.............................. CYCLE   33 ..............................
........................................................................
------------------------------------------------------------
  cycle        total energy    energy error   density error
------------------------------------------------------------
      1     -195.7918056545  -1.9880864E+02   2.4600059E-03
      2     -195.7910100493   7.9560518E-04   1.9525564E-03
      3     -195.7659693460   2.5040703E-02   7.5341904E-03
      4     -195.7853221825  -1.9352837E-02   3.7957479E-03
      5     -195.7913362033  -6.0140207E-03   1.1605921E-03
      6     -195.7918176574  -4.8145411E-04   4.4478401E-04
      7     -195.7918007442   1.6913207E-05   4.7802927E-04
      8     -195.7918351786  -3.4434393E-05   3.6816281E-04
      9     -195.7918836706  -4.8492011E-05   1.0510124E-04
     10     -195.7918878912  -4.2206483E-06   1.8528859E-05
     11     -195.7918880146  -1.2337762E-07   9.0754032E-06
------------------------------------------------------------

 total:                                   1.144 sec
 * total energy  :  -195.7918880 Eh     change       -0.2475570E-02 Eh
   gradient norm :     0.0150468 Eh/α   predicted    -0.2451177E-02 (  -0.99%)
   displ. norm   :     0.7899106 α      lambda       -0.2648271E-02
   maximum displ.:     0.3322775 α      in ANC's #6, #3, #11, ...

........................................................................
.............................. CYCLE   34 ..............................
........................................................................
------------------------------------------------------------
  cycle        total energy    energy error   density error
------------------------------------------------------------
      1     -195.7939357561  -1.9881609E+02   2.3756823E-03
      2     -195.7754485504   1.8487206E-02   6.7259633E-03
      3     -195.7880352674  -1.2586717E-02   3.9778192E-03
      4     -195.7899723828  -1.9371154E-03   2.8380524E-03
      5     -195.7938462521  -3.8738694E-03   7.5026874E-04
      6     -195.7940873173  -2.4106515E-04   2.1245456E-04
      7     -195.7940964472  -9.1299269E-06   1.5857700E-04
      8     -195.7940955993   8.4792364E-07   1.6279297E-04
      9     -195.7941014763  -5.8769915E-06   1.0580032E-04
     10     -195.7941047819  -3.3056403E-06   5.0179295E-05
     11     -195.7941053669  -5.8497434E-07   2.9998205E-05
     12     -195.7941056209  -2.5403270E-07   1.3916899E-05
------------------------------------------------------------

 total:                                   1.519 sec
 * total energy  :  -195.7941056 Eh     change       -0.2217606E-02 Eh
   gradient norm :     0.0131201 Eh/α   predicted    -0.2150346E-02 (  -3.03%)
   displ. norm   :     0.7857301 α      lambda       -0.2194204E-02
   maximum displ.:     0.3714477 α      in ANC's #6, #3, #11, ...

........................................................................
.............................. CYCLE   35 ..............................
........................................................................
------------------------------------------------------------
  cycle        total energy    energy error   density error
------------------------------------------------------------
      1     -195.7959347925  -1.9881433E+02   2.0677706E-03
      2     -195.7942989773   1.6358153E-03   2.3363873E-03
      3     -195.7705116319   2.3787345E-02   7.7778341E-03
      4     -195.7912462610  -2.0734629E-02   3.1026585E-03
      5     -195.7958094739  -4.5632129E-03   6.1565266E-04
      6     -195.7959654486  -1.5597472E-04   2.1244457E-04
      7     -195.7959841683  -1.8719633E-05   7.1197814E-05
      8     -195.7959849926  -8.2434067E-07   5.9009034E-05
      9     -195.7959855992  -6.0661532E-07   4.2855846E-05
     10     -195.7959861375  -5.3823697E-07   1.9405220E-05
------------------------------------------------------------

 total:                                   1.034 sec
 * total energy  :  -195.7959861 Eh     change       -0.1880517E-02 Eh
   gradient norm :     0.0120056 Eh/α   predicted    -0.1774431E-02 (  -5.64%)
   displ. norm   :     0.7335954 α      lambda       -0.2058455E-02
   maximum displ.:     0.3608521 α      in ANC's #6, #3, #11, ...

........................................................................
.............................. CYCLE   36 ..............................
........................................................................
------------------------------------------------------------
  cycle        total energy    energy error   density error
------------------------------------------------------------
      1     -195.7973980534  -1.9881967E+02   1.9236173E-03
      2     -195.7838023361   1.3595717E-02   5.7165589E-03
      3     -195.7930376951  -9.2353590E-03   3.4155665E-03
      4     -195.7969727776  -3.9350825E-03   1.1256427E-03
      5     -195.7973651188  -3.9234121E-04   6.6967838E-04
      6     -195.7974668886  -1.0176983E-04   4.9298744E-04
      7     -195.7975213980  -5.4509404E-05   3.3504772E-04
      8     -195.7975469376  -2.5539580E-05   2.1312822E-04
      9     -195.7975603458  -1.3408141E-05   1.0056174E-04
     10     -195.7975640308  -3.6850229E-06   2.6648261E-05
     11     -195.7975642565  -2.2569020E-07   1.1376068E-05
------------------------------------------------------------

 total:                                   1.131 sec
 * total energy  :  -195.7975643 Eh     change       -0.1578119E-02 Eh
   gradient norm :     0.0173924 Eh/α   predicted    -0.1583120E-02 (   0.32%)
   displ. norm   :     0.7535048 α      lambda       -0.2103877E-02
   maximum displ.:     0.3739474 α      in ANC's #6, #3, #11, ...

........................................................................
.............................. CYCLE   37 ..............................
........................................................................
------------------------------------------------------------
  cycle        total energy    energy error   density error
------------------------------------------------------------
      1     -195.7990496897  -1.9882017E+02   1.7597494E-03
      2     -195.7942162532   4.8334365E-03   3.5268567E-03
      3     -195.7908502065   3.3660466E-03   4.5266636E-03
      4     -195.7949813674  -4.1311609E-03   2.8780070E-03
      5     -195.7990751644  -4.0937970E-03   3.3490014E-04
      6     -195.7991079768  -3.2812433E-05   1.6044122E-04
      7     -195.7991150821  -7.1053089E-06   1.0093420E-04
      8     -195.7991181461  -3.0640209E-06   5.0565065E-05
      9     -195.7991186160  -4.6985733E-07   3.2718551E-05
     10     -195.7991189249  -3.0888927E-07   1.7444629E-05
------------------------------------------------------------

 total:                                   1.182 sec
 * total energy  :  -195.7991189 Eh     change       -0.1554668E-02 Eh
   gradient norm :     0.0161708 Eh/α   predicted    -0.1649204E-02 (   6.08%)
   displ. norm   :     0.6781590 α      lambda       -0.1862960E-02
   maximum displ.:     0.3559598 α      in ANC's #6, #3, #8, ...

........................................................................
.............................. CYCLE   38 ..............................
........................................................................
------------------------------------------------------------
  cycle        total energy    energy error   density error
------------------------------------------------------------
      1     -195.8003783027  -1.9881628E+02   1.6769814E-03
      2     -195.7788339245   2.1544378E-02   7.0791519E-03
      3     -195.7994288422  -2.0594918E-02   1.9132680E-03
      4     -195.7999033241  -4.7448184E-04   1.2674777E-03
      5     -195.8005337298  -6.3040572E-04   6.6983631E-04
      6     -195.8006363719  -1.0264207E-04   4.4914412E-04
      7     -195.8006868144  -5.0442534E-05   2.6778614E-04
      8     -195.8007116336  -2.4819171E-05   8.7921881E-05
      9     -195.8007144081  -2.7745198E-06   1.9034440E-05
     10     -195.8007145588  -1.5071154E-07   6.5854288E-06
------------------------------------------------------------

 total:                                   1.197 sec
 * total energy  :  -195.8007146 Eh     change       -0.1595634E-02 Eh
   gradient norm :     0.0137981 Eh/α   predicted    -0.1359868E-02 ( -14.78%)
   displ. norm   :     0.7182264 α      lambda       -0.2423549E-02
   maximum displ.:     0.3856017 α      in ANC's #6, #3, #8, ...

........................................................................
.............................. CYCLE   39 ..............................
........................................................................
------------------------------------------------------------
  cycle        total energy    energy error   density error
------------------------------------------------------------
      1     -195.8024683025  -1.9882308E+02   1.6417863E-03
      2     -195.7926425935   9.8257091E-03   4.9023266E-03
      3     -195.7990566732  -6.4140798E-03   3.0339432E-03
      4     -195.8018258695  -2.7691963E-03   1.2332565E-03
      5     -195.8023826870  -5.5681749E-04   6.6930630E-04
      6     -195.8025724949  -1.8980792E-04   1.9494161E-04
      7     -195.8025845939  -1.2098929E-05   8.0193717E-05
      8     -195.8025862533  -1.6593939E-06   4.5144159E-05
      9     -195.8025869571  -7.0388413E-07   1.5205112E-05
------------------------------------------------------------

 total:                                   0.968 sec
 * total energy  :  -195.8025870 Eh     change       -0.1872398E-02 Eh
   gradient norm :     0.0156572 Eh/α   predicted    -0.1836871E-02 (  -1.90%)
   displ. norm   :     0.7935546 α      lambda       -0.2061294E-02
   maximum displ.:     0.4151906 α      in ANC's #6, #3, #8, ...

........................................................................
.............................. CYCLE   40 ..............................
........................................................................
------------------------------------------------------------
  cycle        total energy    energy error   density error
------------------------------------------------------------
      1     -195.8041718857  -1.9882189E+02   1.8083168E-03
      2     -195.7842801732   1.9891712E-02   6.8765796E-03
      3     -195.8023086314  -1.8028458E-02   2.4387153E-03
      4     -195.8031160361  -8.0740469E-04   1.6076437E-03
      5     -195.8042949480  -1.1789119E-03   6.1800901E-04
      6     -195.8043822731  -8.7325068E-05   4.2229194E-04
      7     -195.8044255997  -4.3326647E-05   2.5529120E-04
      8     -195.8044472913  -2.1691646E-05   9.7826790E-05
      9     -195.8044505197  -3.2283279E-06   2.8280339E-05
     10     -195.8044508303  -3.1058977E-07   6.5716653E-06
------------------------------------------------------------

 total:                                   1.245 sec
 * total energy  :  -195.8044508 Eh     change       -0.1863873E-02 Eh
   gradient norm :     0.0158058 Eh/α   predicted    -0.1679685E-02 (  -9.88%)
   displ. norm   :     0.8272024 α      lambda       -0.2215607E-02
   maximum displ.:     0.4459248 α      in ANC's #6, #3, #8, ...

........................................................................
.............................. CYCLE   41 ..............................
........................................................................
------------------------------------------------------------
  cycle        total energy    energy error   density error
------------------------------------------------------------
      1     -195.8063446692  -1.9882242E+02   1.6922510E-03
      2     -195.7983887207   7.9559485E-03   4.4662441E-03
      3     -195.8016918327  -3.3031120E-03   3.5129882E-03
      4     -195.8054757835  -3.7839508E-03   1.3900252E-03
      5     -195.8063474348  -8.7165126E-04   4.1600325E-04
      6     -195.8064195226  -7.2087792E-05   1.5083701E-04
      7     -195.8064259901  -6.4675575E-06   7.2999786E-05
      8     -195.8064277188  -1.7286762E-06   3.4396922E-05
      9     -195.8064281393  -4.2043132E-07   1.3160073E-05
------------------------------------------------------------

 total:                                   0.942 sec
 * total energy  :  -195.8064281 Eh     change       -0.1977309E-02 Eh
   gradient norm :     0.0112138 Eh/α   predicted    -0.1865839E-02 (  -5.64%)
   displ. norm   :     0.8459840 α      lambda       -0.2183656E-02
   maximum displ.:     0.4512265 α      in ANC's #6, #3, #8, ...

........................................................................
.............................. CYCLE   42 ..............................
........................................................................
------------------------------------------------------------
  cycle        total energy    energy error   density error
------------------------------------------------------------
      1     -195.8082703143  -1.9882462E+02   1.7027775E-03
      2     -195.8007571590   7.5131553E-03   4.3745476E-03
      3     -195.8037373457  -2.9801867E-03   3.4608831E-03
      4     -195.8074734204  -3.7360746E-03   1.3331919E-03
      5     -195.8082617117  -7.8829134E-04   4.3354818E-04
      6     -195.8083381271  -7.6415390E-05   1.5634216E-04
      7     -195.8083452895  -7.1624343E-06   6.9842094E-05
      8     -195.8083463373  -1.0477987E-06   4.2689156E-05
      9     -195.8083469026  -5.6529706E-07   1.9914016E-05
------------------------------------------------------------

 total:                                   1.021 sec
 * total energy  :  -195.8083469 Eh     change       -0.1918763E-02 Eh
   gradient norm :     0.0116628 Eh/α   predicted    -0.1873246E-02 (  -2.37%)
   displ. norm   :     0.8587401 α      lambda       -0.2056681E-02
   maximum displ.:     0.4574758 α      in ANC's #6, #3, #8, ...
 * RMSD in coord.:     1.1827072 α      energy gain  -0.5568525E-01 Eh

generating ANC from exact Hessian ...
Using Lindh-Hessian (1995)
 Shifting diagonal of input Hessian by    1.0088727638963483E-002
 Lowest  eigenvalues of input Hessian
    0.010000    0.000000    0.000000    0.000000    0.000000    0.000000
    0.000000    0.010124    0.010146    0.010243    0.010269    0.010416
    0.010489    0.010553    0.010593    0.010825    0.010891    0.010950
 Highest eigenvalues
    2.088888    2.093141    2.187089    2.187595    2.201862    2.205736


........................................................................
.............................. CYCLE   43 ..............................
........................................................................
------------------------------------------------------------
  cycle        total energy    energy error   density error
------------------------------------------------------------
      1     -195.8098601464  -1.9882487E+02   1.8684020E-03
      2     -195.7859847780   2.3875368E-02   7.6058959E-03
      3     -195.8091309083  -2.3146130E-02   1.8356455E-03
      4     -195.8098261310  -6.9522270E-04   9.4984063E-04
      5     -195.8101072869  -2.8115590E-04   5.3031848E-04
      6     -195.8101645924  -5.7305522E-05   3.5465965E-04
      7     -195.8101919505  -2.7358111E-05   2.2897329E-04
      8     -195.8102114737  -1.9523198E-05   7.1763378E-05
      9     -195.8102132811  -1.8073830E-06   2.0364781E-05
     10     -195.8102134523  -1.7124975E-07   5.6751173E-06
------------------------------------------------------------

 total:                                   1.163 sec
 * total energy  :  -195.8102135 Eh     change       -0.1866550E-02 Eh
   gradient norm :     0.0123678 Eh/α   predicted     0.0000000E+00 (-100.00%)
   displ. norm   :     0.2182778 α      lambda       -0.8119015E-03
   maximum displ.:     0.1012241 α      in ANC's #7, #3, #1, ...

........................................................................
.............................. CYCLE   44 ..............................
........................................................................
------------------------------------------------------------
  cycle        total energy    energy error   density error
------------------------------------------------------------
      1     -195.8109077093  -1.9883100E+02   6.3266542E-04
      2     -195.8090735339   1.8341754E-03   2.1456960E-03
      3     -195.8105373505  -1.4638166E-03   1.0305506E-03
      4     -195.8108290608  -2.9171032E-04   4.3097400E-04
      5     -195.8108988070  -6.9746167E-05   2.1212155E-04
      6     -195.8109207861  -2.1979123E-05   4.0968161E-05
      7     -195.8109212091  -4.2299402E-07   2.8007821E-05
      8     -195.8109213761  -1.6703649E-07   1.9651093E-05
------------------------------------------------------------

 total:                                   0.987 sec
 * total energy  :  -195.8109214 Eh     change       -0.7079238E-03 Eh
   gradient norm :     0.0056185 Eh/α   predicted    -0.4252986E-03 ( -39.92%)
   displ. norm   :     0.6135060 α      lambda       -0.1692161E-02
   maximum displ.:     0.2894108 α      in ANC's #7, #3, #1, ...

........................................................................
.............................. CYCLE   45 ..............................
........................................................................
------------------------------------------------------------
  cycle        total energy    energy error   density error
------------------------------------------------------------
      1     -195.8123117343  -1.9883758E+02   1.3937656E-03
      2     -195.8118482437   4.6349052E-04   1.3494378E-03
      3     -195.7973163256   1.4531918E-02   6.0631506E-03
      4     -195.8104742463  -1.3157921E-02   1.9414032E-03
      5     -195.8122666492  -1.7924029E-03   4.1658098E-04
      6     -195.8123297690  -6.3119772E-05   1.3291797E-04
      7     -195.8123365197  -6.7507545E-06   4.5993206E-05
      8     -195.8123368008  -2.8111927E-07   3.5948439E-05
      9     -195.8123369367  -1.3588476E-07   2.7695434E-05
     10     -195.8123371678  -2.3106770E-07   1.2592951E-05
------------------------------------------------------------

 total:                                   1.120 sec
 * total energy  :  -195.8123372 Eh     change       -0.1415792E-02 Eh
   gradient norm :     0.0092475 Eh/α   predicted    -0.1164536E-02 ( -17.75%)
   displ. norm   :     0.7437252 α      lambda       -0.1629608E-02
   maximum displ.:     0.3519238 α      in ANC's #7, #3, #1, ...

........................................................................
.............................. CYCLE   46 ..............................
........................................................................
------------------------------------------------------------
  cycle        total energy    energy error   density error
------------------------------------------------------------
      1     -195.8138285844  -1.9883795E+02   1.5359423E-03
      2     -195.8136764620   1.5212234E-04   1.1188753E-03
      3     -195.7892938518   2.4382610E-02   7.7382449E-03
      4     -195.8134275288  -2.4133677E-02   9.4244479E-04
      5     -195.8137914663  -3.6393749E-04   3.3040537E-04
      6     -195.8138358357  -4.4369382E-05   1.2434678E-04
      7     -195.8138411797  -5.3440480E-06   6.6739238E-05
      8     -195.8138428839  -1.7041621E-06   2.9811752E-05
      9     -195.8138430628  -1.7893035E-07   2.0194269E-05
     10     -195.8138431989  -1.3603389E-07   8.4206222E-06
------------------------------------------------------------

 total:                                   0.994 sec
 * total energy  :  -195.8138432 Eh     change       -0.1506031E-02 Eh
   gradient norm :     0.0142576 Eh/α   predicted    -0.1265597E-02 ( -15.96%)
   displ. norm   :     0.8272080 α      lambda       -0.1850578E-02
   maximum displ.:     0.3955246 α      in ANC's #7, #3, #1, ...

........................................................................
.............................. CYCLE   47 ..............................
........................................................................
------------------------------------------------------------
  cycle        total energy    energy error   density error
------------------------------------------------------------
      1     -195.8155891717  -1.9883469E+02   1.6443187E-03
      2     -195.8146259935   9.6317827E-04   1.8495095E-03
      3     -195.7988918957   1.5734098E-02   6.4179274E-03
      4     -195.8152306937  -1.6338798E-02   8.4056171E-04
      5     -195.8155806414  -3.4994762E-04   2.4012267E-04
      6     -195.8155992001  -1.8558760E-05   1.3865948E-04
      7     -195.8156058733  -6.6731886E-06   5.3703701E-05
      8     -195.8156061163  -2.4302923E-07   4.2486224E-05
[...]
   (at your option) any later version.
   
   xtb is distributed in the hope that it will be useful,
   but WITHOUT ANY WARRANTY; without even the implied warranty of
   MERCHANTABILITY or FITNESS FOR A PARTICULAR PURPOSE.  See the
   GNU Lesser General Public License for more details.
   
   Cite this work as:
   * C. Bannwarth, E. Caldeweyher, S. Ehlert, A. Hansen, P. Pracht,
     J. Seibert, S. Spicher, S. Grimme, WIREs Comput. Mol. Sci., 2020, 11,
     e01493. DOI: 10.1002/wcms.1493
   
   for GFN2-xTB:
   * C. Bannwarth, S. Ehlert and S. Grimme., J. Chem. Theory Comput., 2019,
     15, 1652-1671. DOI: 10.1021/acs.jctc.8b01176
   for GFN1-xTB:
   * S. Grimme, C. Bannwarth, P. Shushkov, J. Chem. Theory Comput., 2017,
     13, 1989-2009. DOI: 10.1021/acs.jctc.7b00118
   for GFN0-xTB:
   * P. Pracht, E. Caldeweyher, S. Ehlert, S. Grimme, ChemRxiv, 2019, preprint.
     DOI: 10.26434/chemrxiv.8326202.v1
   for GFN-FF:
   * S. Spicher and S. Grimme, Angew. Chem. Int. Ed., 2020, 59, 15665-15673.
     DOI: 10.1002/anie.202004239
   
   for ALPB and GBSA implicit solvation:
   * S. Ehlert, M. Stahn, S. Spicher, S. Grimme, J. Chem. Theory Comput.,
     2021, 17, 4250-4261. DOI: 10.1021/acs.jctc.1c00471
   
   for ddCOSMO and CPCM-X implicit solvation:
   * M. Stahn, S. Ehlert, S. Grimme, J. Phys. Chem. A,
     2023, XX, XXXX-XXXX. DOI: 10.1021/acs.jpca.3c04382
   
   for DFT-D4:
   * E. Caldeweyher, C. Bannwarth and S. Grimme, J. Chem. Phys., 2017,
     147, 034112. DOI: 10.1063/1.4993215
   * E. Caldeweyher, S. Ehlert, A. Hansen, H. Neugebauer, S. Spicher,
     C. Bannwarth and S. Grimme, J. Chem. Phys., 2019, 150, 154122.
     DOI: 10.1063/1.5090222
   * E. Caldeweyher, J.-M. Mewes, S. Ehlert and S. Grimme, Phys. Chem. Chem. Phys.
     2020, 22, 8499-8512. DOI: 10.1039/D0CP00502A
   
   for sTDA-xTB:
   * S. Grimme and C. Bannwarth, J. Chem. Phys., 2016, 145, 054103.
     DOI: 10.1063/1.4959605
   
   in the mass-spec context:
   * V. Asgeirsson, C. Bauer and S. Grimme, Chem. Sci., 2017, 8, 4879.
     DOI: 10.1039/c7sc00601b
   * J. Koopman and S. Grimme, ACS Omega 2019, 4, 12, 15120-15133.
     DOI: 10.1021/acsomega.9b02011
   
   for metadynamics refer to:
   * S. Grimme, J. Chem. Theory Comput., 2019, 155, 2847-2862
     DOI: 10.1021/acs.jctc.9b00143
   
   for SPH calculations refer to:
   * S. Spicher and S. Grimme, J. Chem. Theory Comput., 2021, 17, 1701-1714
     DOI: 10.1021/acs.jctc.0c01306
   
   for ONIOM refer to:
   * C. Plett, A. Katbashev, S. Ehlert, S. Grimme, M. Bursch,
     Phys. Chem. Chem. Phys., 2023, 25, 17860-17868. DOI: 10.1039/D3CP02178E
   
   for DIPRO refer to:
   * J. Kohn, N. Gildemeister, S. Grimme, D. Fazzi, A. Hansen,
     J. Chem. Phys., 2023, just accepted.
   
   for PTB refer to:
   * S. Grimme, M. Mueller, A. Hansen, J. Chem. Phys., 2023, 158, 124111.
     DOI: 10.1063/5.0137838
   
   with help from (in alphabetical order)
   P. Atkinson, C. Bannwarth, F. Bohle, G. Brandenburg, E. Caldeweyher
   M. Checinski, S. Dohm, S. Ehlert, S. Ehrlich, I. Gerasimov, C. Hölzer
   A. Katbashev, J. Kohn, J. Koopman, C. Lavigne, S. Lehtola, F. März, M. Müller,
   F. Musil, H. Neugebauer, J. Pisarek, C. Plett, P. Pracht, F. Pultar,
   J. Seibert, P. Shushkov, S. Spicher, M. Stahn, M. Steiner, T. Strunk,
   J. Stückrath, T. Rose, and J. Unsleber
   
 * started run on 2025/03/24 at 11:40:11.332     
   ID    Z sym.   atoms
    1    6 C      1-9, 11, 12, 14-21, 25-33, 35, 36, 38-45, 48-71, 138-146,
                  148, 149, 151-158, 162-170, 172, 173, 175-182, 185-208
    2    7 N      10, 13, 34, 37, 147, 150, 171, 174
    3    8 O      22, 23, 46, 47, 159, 160, 183, 184
    4    5 B      24, 161
    5    1 H      72-137, 209-274

           -------------------------------------------------
          |                Calculation Setup                |
           -------------------------------------------------

          program call               : xtb opt_dimer.mol --dipro 0.3 --chrg 0 --uhf 2 --spinpol --tblite
          coordinate file            : opt_dimer.mol
          omp threads                :                     8


molecular fragmentation (1/2 indicates fragments):
111111111111111111111111111111111111111111111111111111111111111111111111
111111111111111111111111111111111111111111111111111111111111111112222222
222222222222222222222222222222222222222222222222222222222222222222222222
2222222222222222222222222222222222222222222222222222222222
# atoms in fragment 1/2:   137   137
 fragment masses (1/2) :      942.03      942.03
CMA distance (Bohr)    :  10.582
constraining FC (au)   :  0.0500
Wavefunction read from restart file
           -------------------------------------------------
          |                    D I P R O                    |
           -------------------------------------------------
Calculation for dimer 
--------------------- 
  
charge of dimer :   0.
unpaired e- of dimer :  2
repulsion energy          6.0547624519696E+00 Eh
dispersion energy         4.1546554651341E-02 Eh
number of electrons       7.2200000000000E+02 e
integral cutoff           1.9311100799991E+01 bohr

------------------------------------------------------------
  cycle        total energy    energy error   density error
------------------------------------------------------------
      1     -390.5695419640  -3.9666585E+02   1.3798915E-01
      2     -391.5328578655  -9.6331590E-01   7.1963145E-02
      3     -391.2329311812   2.9992668E-01   4.5612757E-02
      4     -391.1024880623   1.3044312E-01   3.4930668E-02
      5     -391.1866275446  -8.4139482E-02   2.8040138E-02
      6     -391.5255689229  -3.3894138E-01   1.6651295E-02
      7     -391.3646968321   1.6087209E-01   1.9654731E-02
      8     -391.6972480691  -3.3255124E-01   1.0612034E-02
      9     -391.7549788993  -5.7730830E-02   7.0015538E-03
     10     -391.7639899956  -9.0110963E-03   5.6238823E-03
     11     -391.7742906666  -1.0300671E-02   3.3336601E-03
     12     -391.7760921509  -1.8014844E-03   2.7481045E-03
     13     -391.7760553673   3.6783622E-05   2.3049492E-03
     14     -391.7783793408  -2.3239735E-03   1.3400508E-03
     15     -391.7796521366  -1.2727958E-03   6.8358473E-04
     16     -391.7798452272  -1.9309061E-04   3.4761290E-04
     17     -391.7798761131  -3.0885907E-05   2.0550185E-04
     18     -391.7798844838  -8.3707048E-06   1.7153981E-04
     19     -391.7798927301  -8.2462588E-06   1.0147834E-04
     20     -391.7798959660  -3.2359011E-06   4.4618634E-05
     21     -391.7798965282  -5.6222746E-07   2.8860643E-05
     22     -391.7798969912  -4.6294946E-07   8.3364935E-06
------------------------------------------------------------

electronic energy        -3.9787620599781E+02 Eh
total energy             -3.9177989699119E+02 Eh

 total:                                   4.484 sec
 - repulsion                              0.001 sec (  0%)
 - dispersion                             0.024 sec (  0%)
 - coulomb                                0.007 sec (  0%)
 - hamiltonian                            0.021 sec (  0%)
 - scc                                    4.431 sec ( 98%)

Found 2 fragments!
Fragment 1:  1-137
Fragment 2:  138-274

[Info] Fragment spin read from .UHFfrag
Calculation for fragment 1
 ------------------------------
   
charge of fragment :   0.
unpaired e- of fragment :  1
------------------------------------------------------------
  cycle        total energy    energy error   density error
------------------------------------------------------------
      1     -195.2416767128  -1.9827203E+02   1.3836188E-01
      2     -195.6989155720  -4.5723886E-01   7.2627010E-02
      3     -195.2150224714   4.8389310E-01   5.3430265E-02
      4     -195.2120492887   2.9731827E-03   4.1516703E-02
      5     -195.7305752725  -5.1852598E-01   2.2411611E-02
      6     -195.8045523964  -7.3977124E-02   1.4335866E-02
      7     -195.8278716301  -2.3319234E-02   1.0400524E-02
      8     -195.8515636918  -2.3692062E-02   4.6735356E-03
      9     -195.8530369206  -1.4732289E-03   3.3280157E-03
     10     -195.8486117298   4.4251908E-03   4.1642612E-03
     11     -195.8532499444  -4.6382146E-03   1.8799042E-03
     12     -195.8543995119  -1.1495675E-03   6.2784234E-04
     13     -195.8545027941  -1.0328216E-04   2.8600058E-04
     14     -195.8545106639  -7.8698507E-06   1.6561663E-04
     15     -195.8545171878  -6.5238754E-06   5.0502270E-05
     16     -195.8545174444  -2.5659301E-07   2.8466151E-05
     17     -195.8545176304  -1.8603495E-07   7.0472773E-06
------------------------------------------------------------

 total:                                   1.021 sec
Calculation for fragment 2
 ------------------------------
   
charge of fragment :   0.
unpaired e- of fragment :  1
------------------------------------------------------------
  cycle        total energy    energy error   density error
------------------------------------------------------------
      1     -195.2418220576  -1.9827185E+02   1.3793970E-01
      2     -195.6983667788  -4.5654472E-01   7.2195513E-02
      3     -195.2148157307   4.8355105E-01   5.3421319E-02
      4     -195.2129367362   1.8789945E-03   4.1289488E-02
      5     -195.7350850341  -5.2214830E-01   2.2254357E-02
      6     -195.8086750242  -7.3589990E-02   1.3570839E-02
      7     -195.8227468097  -1.4071785E-02   1.1025140E-02
      8     -195.8506771914  -2.7930382E-02   4.8635978E-03
      9     -195.8521632438  -1.4860524E-03   3.7083016E-03
     10     -195.8473492443   4.8139995E-03   4.6391103E-03
     11     -195.8536197778  -6.2705335E-03   1.5901283E-03
     12     -195.8544284879  -8.0871013E-04   4.6754952E-04
     13     -195.8544687030  -4.0215095E-05   2.6194056E-04
     14     -195.8544602768   8.4262685E-06   2.4518858E-04
     15     -195.8544749158  -1.4639072E-05   1.1388792E-04
     16     -195.8544789775  -4.0616739E-06   4.5578690E-05
     17     -195.8544788074   1.7012249E-07   4.9553373E-05
     18     -195.8544796501  -8.4265807E-07   1.8987200E-05
------------------------------------------------------------

 total:                                   0.933 sec
   
   ::::::::::::::::::::::::::::::::::::::::::::::
   ::     D I P R O      C O U P L I N G S     ::
   ::::::::::::::::::::::::::::::::::::::::::::::
   
energy threshhold for near-degenerate orbitals near HOMO and LUMO considered for DIPRO:  0.300 eV
no. of orbitals within energy window of frag 1         6
no. of orbitals within energy window of frag 2         6
   
  Fragment 1 SOMO-3  Fragment 2 SOMO-3
--------------------------------------
E_mon(orb) frag1 frag2              -9.758    -9.757 eV
J(AB):               -0.046 eV
S(AB):             0.00177671 Eh
|J(AB,eff)|:            0.028 eV
   
  Fragment 1 SOMO-3  Fragment 2 SOMO-2
--------------------------------------
E_mon(orb) frag1 frag2              -9.758    -9.745 eV
J(AB):               -0.017 eV
S(AB):             0.00065426 Eh
|J(AB,eff)|:            0.011 eV
   
  Fragment 1 SOMO-3  Fragment 2 SOMO-1
--------------------------------------
E_mon(orb) frag1 frag2              -9.758    -9.701 eV
J(AB):               -0.015 eV
S(AB):             0.00060105 Eh
|J(AB,eff)|:            0.010 eV
   
  Fragment 1 SOMO-3  Fragment 2 SOMO 
--------------------------------------
E_mon(orb) frag1 frag2              -9.758    -9.608 eV
J(AB):               -0.005 eV
S(AB):             0.00014437 Eh
|J(AB,eff)|:            0.004 eV
   
  Fragment 1 SOMO-3  Fragment 2 LUMO 
--------------------------------------
E_mon(orb) frag1 frag2              -9.758    -9.274 eV
J(AB):               -0.022 eV
S(AB):             0.00083183 Eh
|J(AB,eff)|:            0.014 eV
   
  Fragment 1 SOMO-3  Fragment 2 LUMO+1
--------------------------------------
E_mon(orb) frag1 frag2              -9.758    -9.236 eV
J(AB):                0.003 eV
S(AB):            -0.00019795 Eh
|J(AB,eff)|:            0.001 eV
   
  Fragment 1 SOMO-2  Fragment 2 SOMO-3
--------------------------------------
E_mon(orb) frag1 frag2              -9.745    -9.757 eV
J(AB):                0.017 eV
S(AB):            -0.00064665 Eh
|J(AB,eff)|:            0.010 eV
   
  Fragment 1 SOMO-2  Fragment 2 SOMO-2
--------------------------------------
E_mon(orb) frag1 frag2              -9.745    -9.745 eV
J(AB):                0.005 eV
S(AB):            -0.00021903 Eh
|J(AB,eff)|:            0.003 eV
   
  Fragment 1 SOMO-2  Fragment 2 SOMO-1
--------------------------------------
E_mon(orb) frag1 frag2              -9.745    -9.701 eV
J(AB):                0.002 eV
S(AB):            -0.00000956 Eh
|J(AB,eff)|:            0.002 eV
   
  Fragment 1 SOMO-2  Fragment 2 SOMO 
--------------------------------------
E_mon(orb) frag1 frag2              -9.745    -9.608 eV
J(AB):                0.009 eV
S(AB):            -0.00036733 Eh
|J(AB,eff)|:            0.006 eV
   
  Fragment 1 SOMO-2  Fragment 2 LUMO 
--------------------------------------
E_mon(orb) frag1 frag2              -9.745    -9.274 eV
J(AB):                0.001 eV
S(AB):             0.00002893 Eh
|J(AB,eff)|:            0.001 eV
   
  Fragment 1 SOMO-2  Fragment 2 LUMO+1
--------------------------------------
E_mon(orb) frag1 frag2              -9.745    -9.236 eV
J(AB):               -0.005 eV
S(AB):             0.00017730 Eh
|J(AB,eff)|:            0.003 eV
   
  Fragment 1 SOMO-1  Fragment 2 SOMO-3
--------------------------------------
E_mon(orb) frag1 frag2              -9.701    -9.757 eV
J(AB):               -0.016 eV
S(AB):             0.00060582 Eh
|J(AB,eff)|:            0.010 eV
   
  Fragment 1 SOMO-1  Fragment 2 SOMO-2
--------------------------------------
E_mon(orb) frag1 frag2              -9.701    -9.745 eV
J(AB):               -0.002 eV
S(AB):             0.00002232 Eh
|J(AB,eff)|:            0.002 eV
   
  Fragment 1 SOMO-1  Fragment 2 SOMO-1
--------------------------------------
E_mon(orb) frag1 frag2              -9.701    -9.701 eV
J(AB):               -0.002 eV
S(AB):             0.00000248 Eh
|J(AB,eff)|:            0.002 eV
   
  Fragment 1 SOMO-1  Fragment 2 SOMO 
--------------------------------------
E_mon(orb) frag1 frag2              -9.701    -9.608 eV
J(AB):               -0.004 eV
S(AB):             0.00017140 Eh
|J(AB,eff)|:            0.002 eV
   
  Fragment 1 SOMO-1  Fragment 2 LUMO 
--------------------------------------
E_mon(orb) frag1 frag2              -9.701    -9.274 eV
J(AB):               -0.012 eV
S(AB):             0.00045005 Eh
|J(AB,eff)|:            0.007 eV
   
  Fragment 1 SOMO-1  Fragment 2 LUMO+1
--------------------------------------
E_mon(orb) frag1 frag2              -9.701    -9.236 eV
J(AB):               -0.004 eV
S(AB):             0.00020337 Eh
|J(AB,eff)|:            0.002 eV
   
  Fragment 1 SOMO   Fragment 2 SOMO-3
--------------------------------------
E_mon(orb) frag1 frag2              -9.608    -9.757 eV
J(AB):                0.004 eV
S(AB):            -0.00010469 Eh
|J(AB,eff)|:            0.003 eV
   
  Fragment 1 SOMO   Fragment 2 SOMO-2
--------------------------------------
E_mon(orb) frag1 frag2              -9.608    -9.745 eV
J(AB):                0.009 eV
S(AB):            -0.00033943 Eh
|J(AB,eff)|:            0.005 eV
   
  Fragment 1 SOMO   Fragment 2 SOMO-1
--------------------------------------
E_mon(orb) frag1 frag2              -9.608    -9.701 eV
J(AB):                0.004 eV
S(AB):            -0.00018465 Eh
|J(AB,eff)|:            0.003 eV
   
  Fragment 1 SOMO   Fragment 2 SOMO 
--------------------------------------
E_mon(orb) frag1 frag2              -9.608    -9.608 eV
J(AB):               -0.082 eV
S(AB):             0.00313705 Eh
|J(AB,eff)|:            0.052 eV
   
  Fragment 1 SOMO   Fragment 2 LUMO 
--------------------------------------
E_mon(orb) frag1 frag2              -9.608    -9.274 eV
J(AB):               -0.008 eV
S(AB):             0.00037234 Eh
|J(AB,eff)|:            0.004 eV
   
  Fragment 1 SOMO   Fragment 2 LUMO+1
--------------------------------------
E_mon(orb) frag1 frag2              -9.608    -9.236 eV
J(AB):                0.021 eV
S(AB):            -0.00076348 Eh
|J(AB,eff)|:            0.014 eV
   
  Fragment 1 LUMO   Fragment 2 SOMO-3
--------------------------------------
E_mon(orb) frag1 frag2              -9.274    -9.757 eV
J(AB):                0.022 eV
S(AB):            -0.00083101 Eh
|J(AB,eff)|:            0.014 eV
   
  Fragment 1 LUMO   Fragment 2 SOMO-2
--------------------------------------
E_mon(orb) frag1 frag2              -9.274    -9.745 eV
J(AB):                0.001 eV
S(AB):             0.00003907 Eh
|J(AB,eff)|:            0.001 eV
   
  Fragment 1 LUMO   Fragment 2 SOMO-1
--------------------------------------
E_mon(orb) frag1 frag2              -9.274    -9.701 eV
J(AB):                0.012 eV
S(AB):            -0.00046564 Eh
|J(AB,eff)|:            0.008 eV
   
  Fragment 1 LUMO   Fragment 2 SOMO 
--------------------------------------
E_mon(orb) frag1 frag2              -9.274    -9.608 eV
J(AB):               -0.008 eV
S(AB):             0.00037978 Eh
|J(AB,eff)|:            0.004 eV
   
  Fragment 1 LUMO   Fragment 2 LUMO 
--------------------------------------
E_mon(orb) frag1 frag2              -9.274    -9.274 eV
J(AB):                0.081 eV
S(AB):            -0.00342388 Eh
|J(AB,eff)|:            0.049 eV
   
  Fragment 1 LUMO   Fragment 2 LUMO+1
--------------------------------------
E_mon(orb) frag1 frag2              -9.274    -9.236 eV
J(AB):                0.001 eV
S(AB):            -0.00007614 Eh
|J(AB,eff)|:            0.001 eV
   
  Fragment 1 LUMO+1  Fragment 2 SOMO-3
--------------------------------------
E_mon(orb) frag1 frag2              -9.236    -9.757 eV
J(AB):                0.002 eV
S(AB):            -0.00018373 Eh
|J(AB,eff)|:            0.001 eV
   
  Fragment 1 LUMO+1  Fragment 2 SOMO-2
--------------------------------------
E_mon(orb) frag1 frag2              -9.236    -9.745 eV
J(AB):                0.005 eV
S(AB):            -0.00016244 Eh
|J(AB,eff)|:            0.003 eV
   
  Fragment 1 LUMO+1  Fragment 2 SOMO-1
--------------------------------------
E_mon(orb) frag1 frag2              -9.236    -9.701 eV
J(AB):               -0.005 eV
S(AB):             0.00022695 Eh
|J(AB,eff)|:            0.003 eV
   
  Fragment 1 LUMO+1  Fragment 2 SOMO 
--------------------------------------
E_mon(orb) frag1 frag2              -9.236    -9.608 eV
J(AB):               -0.021 eV
S(AB):             0.00074510 Eh
|J(AB,eff)|:            0.014 eV
   
  Fragment 1 LUMO+1  Fragment 2 LUMO 
--------------------------------------
E_mon(orb) frag1 frag2              -9.236    -9.274 eV
J(AB):               -0.004 eV
S(AB):             0.00020571 Eh
|J(AB,eff)|:            0.003 eV
   
  Fragment 1 LUMO+1  Fragment 2 LUMO+1
--------------------------------------
E_mon(orb) frag1 frag2              -9.236    -9.236 eV
J(AB):                0.083 eV
S(AB):            -0.00343369 Eh
|J(AB,eff)|:            0.051 eV
   
..............................................................................
:  total |J(AB,eff)| for hole transport (occ. MOs) :               0.063 eV  :
:  total |J(AB,eff)| for charge transport (unocc. MOs) :           0.071 eV  :
:  total |J(AB,eff)| for charge transfer (CT) :                    0.031 eV  :
..............................................................................
  
 Please remember, DIPRO is not available for restart!
   
normal termination of dipro
----------------------------------------------------------
 * finished run on 2025/03/24 at 11:40:17.814     
----------------------------------------------------------
 dipro:
 * wall-time:     0 d,  0 h,  0 min,  6.473 sec
 *  cpu-time:     0 d,  0 h,  0 min, 22.653 sec
 * ratio c/w:     3.500 speedup
Reorganization energy (electron): 0.030253694766377404 eV
Reorganization energy (hole): 0.03653042268698873 eV
Electron Transfer integral J: 0.071 eV
Hole Transfer integral J: 0.063 eV
