274
 energy: -391.727837901425 gnorm: 0.159237650824 xtb: 6.7.1 (edcfbbe)
C           -2.45310000000000       -2.66600000000000        0.30460000000000
C           -2.77530000000000       -1.39190000000000       -0.15960000000000
C           -3.93220000000000       -1.20900000000000       -0.99740000000000
C           -4.61600000000000       -2.39520000000000       -1.40250000000000
C           -4.19920000000000       -3.65390000000000       -0.92410000000000
C           -3.16150000000000       -3.80670000000000       -0.03900000000000
C           -4.58170000000000        0.04810000000000       -1.28540000000000
C           -5.87160000000000       -0.01270000000000       -1.84080000000000
C           -6.38070000000000       -1.24130000000000       -2.33760000000000
N           -5.74160000000000       -2.40860000000000       -2.15520000000000
C           -4.15720000000000        1.37190000000000       -0.92290000000000
C           -5.13270000000000        2.39720000000000       -0.76650000000000
N           -6.38530000000000        2.29790000000000       -1.25850000000000
C           -6.70590000000000        1.14350000000000       -1.87500000000000
C           -7.96590000000000        1.04580000000000       -2.48500000000000
C           -8.44090000000000       -0.13170000000000       -3.03550000000000
C           -7.64200000000000       -1.25910000000000       -2.95170000000000
C           -2.78840000000000        1.76500000000000       -0.79880000000000
C           -2.47950000000000        2.93710000000000       -0.10880000000000
C           -3.45630000000000        3.86090000000000        0.24350000000000
C           -4.75230000000000        3.60610000000000       -0.15020000000000
O           -1.92220000000000       -0.41450000000000        0.31990000000000
O           -1.80580000000000        1.05730000000000       -1.46330000000000
B           -0.96870000000000        0.27810000000000       -0.56170000000000
C            0.56040000000000       -2.83320000000000       -1.33150000000000
C            0.83640000000000       -1.53990000000000       -0.88350000000000
C            2.03490000000000       -1.28870000000000       -0.12000000000000
C            2.78040000000000       -2.44430000000000        0.27480000000000
C            2.41850000000000       -3.72090000000000       -0.20260000000000
C            1.35780000000000       -3.93030000000000       -1.04490000000000
C            2.69130000000000       -0.00950000000000        0.05340000000000
C            4.01290000000000       -0.03350000000000        0.53900000000000
C            4.54980000000000       -1.22130000000000        1.10250000000000
N            3.92710000000000       -2.40640000000000        0.99550000000000
C            2.27910000000000        1.27460000000000       -0.45060000000000
C            3.27620000000000        2.22590000000000       -0.81670000000000
N            4.54250000000000        2.17200000000000       -0.35360000000000
C            4.86440000000000        1.10410000000000        0.40230000000000
C            6.15520000000000        1.04980000000000        0.95210000000000
C            6.64910000000000       -0.07200000000000        1.59710000000000
C            5.83900000000000       -1.19310000000000        1.65620000000000
C            0.91790000000000        1.68780000000000       -0.59970000000000
C            0.62020000000000        2.72600000000000       -1.48240000000000
C            1.61060000000000        3.51500000000000       -2.05530000000000
C            2.91170000000000        3.29960000000000       -1.65540000000000
O           -0.06620000000000        1.12960000000000        0.18950000000000
O           -0.10000000000000       -0.62620000000000       -1.33320000000000
C           -2.94440000000000       -5.13730000000000        0.69510000000000
C           -1.59930000000000       -5.13030000000000        1.44600000000000
C           -2.95870000000000       -6.32670000000000       -0.28170000000000
C           -4.09120000000000       -5.31330000000000        1.70660000000000
C           -3.08930000000000        5.19700000000000        0.89910000000000
C           -4.10840000000000        5.53640000000000        2.00230000000000
C           -1.68630000000000        5.13640000000000        1.53280000000000
C           -3.10160000000000        6.29920000000000       -0.17290000000000
C           -9.83920000000000       -0.16240000000000       -3.66950000000000
C          -10.18850000000000       -1.56090000000000       -4.21410000000000
C           -9.88920000000000        0.84030000000000       -4.83620000000000
C          -10.88680000000000        0.22080000000000       -2.60820000000000
C            1.19940000000000       -5.28070000000000       -1.76250000000000
C           -0.05640000000000       -5.29180000000000       -2.65350000000000
C            1.10990000000000       -6.43450000000000       -0.74720000000000
C            2.42990000000000       -5.50410000000000       -2.66140000000000
C            1.27750000000000        4.64230000000000       -3.04130000000000
C            2.15980000000000        4.50020000000000       -4.29560000000000
C            1.54130000000000        6.00020000000000       -2.37080000000000
C           -0.19840000000000        4.58750000000000       -3.48320000000000
C            8.11300000000000       -0.13960000000000        2.05870000000000
C            8.62890000000000        1.25520000000000        2.46400000000000
C            8.26170000000000       -1.07920000000000        3.27100000000000
C            8.96910000000000       -0.67540000000000        0.89950000000000
H          -11.89250000000000        0.19560000000000       -3.02680000000000
H          -10.71190000000000        1.22380000000000       -2.22190000000000
H          -10.85430000000000       -0.47190000000000       -1.76790000000000
H          -11.17850000000000       -1.56220000000000       -4.66920000000000
H          -10.19300000000000       -2.30280000000000       -3.41610000000000
H           -9.47510000000000       -1.87460000000000       -4.97540000000000
H          -10.86560000000000        0.82810000000000       -5.31940000000000
H           -9.13800000000000        0.59450000000000       -5.58610000000000
H           -9.69940000000000        1.85640000000000       -4.49340000000000
H           -3.92890000000000       -6.18430000000000        2.34060000000000
H           -5.04460000000000       -5.43950000000000        1.19490000000000
H           -4.17900000000000       -4.43380000000000        2.34160000000000
H           -1.37440000000000       -6.11400000000000        1.85660000000000
H           -1.61260000000000       -4.42340000000000        2.27210000000000
H           -0.78680000000000       -4.84080000000000        0.78260000000000
H           -2.79060000000000       -7.26290000000000        0.25040000000000
H           -2.18080000000000       -6.23050000000000       -1.03380000000000
H           -3.91460000000000       -6.41060000000000       -0.79590000000000
H           -0.21790000000000       -6.27750000000000       -3.08880000000000
H            0.04130000000000       -4.58050000000000       -3.47320000000000
H           -0.94330000000000       -5.02370000000000       -2.08390000000000
H            2.34280000000000       -6.43680000000000       -3.21780000000000
H            3.34470000000000       -5.55010000000000       -2.07170000000000
H            2.53550000000000       -4.69050000000000       -3.37840000000000
H            1.05440000000000       -7.39490000000000       -1.25900000000000
H            0.22510000000000       -6.34720000000000       -0.12280000000000
H            1.98140000000000       -6.45910000000000       -0.09470000000000
H           -3.80910000000000        6.43010000000000        2.54910000000000
H           -4.19060000000000        4.71510000000000        2.71160000000000
H           -5.09870000000000        5.72030000000000        1.58890000000000
H            1.33090000000000        6.82050000000000       -3.05640000000000
H            2.57950000000000        6.08650000000000       -2.05270000000000
H            0.90770000000000        6.12520000000000       -1.49340000000000
H           -1.46860000000000        6.05360000000000        2.07810000000000
H           -0.91570000000000        5.02160000000000        0.77170000000000
H           -1.60880000000000        4.30170000000000        2.22830000000000
H           -2.84350000000000        7.26630000000000        0.25750000000000
H           -4.08560000000000        6.38540000000000       -0.63260000000000
H           -2.38350000000000        6.07770000000000       -0.96190000000000
H            1.91650000000000        5.26510000000000       -5.03240000000000
H            2.01200000000000        3.52560000000000       -4.75990000000000
H            3.21670000000000        4.59890000000000       -4.05280000000000
H           -0.40750000000000        5.35230000000000       -4.23060000000000
H           -0.86960000000000        4.76080000000000       -2.64290000000000
H           -0.43870000000000        3.61930000000000       -3.92190000000000
H            8.89390000000000       -0.02350000000000        0.02970000000000
H            8.63730000000000       -1.66930000000000        0.60080000000000
H           10.01840000000000       -0.74010000000000        1.18570000000000
H            7.56700000000000       -0.79870000000000        4.05800000000000
H            9.27040000000000       -1.03250000000000        3.68020000000000
H            8.06750000000000       -2.11660000000000        3.00380000000000
H            7.96230000000000        1.71710000000000        3.18860000000000
H            8.70730000000000        1.91850000000000        1.60400000000000
H            9.61920000000000        1.18870000000000        2.91350000000000
H            6.77970000000000        1.91280000000000        0.81900000000000
H            6.21210000000000       -2.10720000000000        2.07770000000000
H            3.07670000000000       -4.53920000000000        0.02220000000000
H            3.69120000000000        3.95590000000000       -1.99530000000000
H           -5.51370000000000        4.34960000000000       -0.00600000000000
H           -4.79540000000000       -4.50420000000000       -1.19890000000000
H           -8.57890000000000        1.92770000000000       -2.50200000000000
H           -7.99040000000000       -2.20290000000000       -3.32610000000000
H           -0.30500000000000       -2.94360000000000       -1.95720000000000
H           -1.62970000000000       -2.72260000000000        0.99140000000000
H           -1.44800000000000        3.12750000000000        0.11230000000000
H           -0.41210000000000        2.91090000000000       -1.70180000000000
C           -0.48650000000000       -2.43510000000000        5.24500000000000
C           -0.74470000000000       -1.18090000000000        4.68840000000000
C           -1.94870000000000       -0.97190000000000        3.92050000000000
C           -2.75300000000000       -2.13140000000000        3.68670000000000
C           -2.42220000000000       -3.36000000000000        4.29310000000000
C           -1.32410000000000       -3.52830000000000        5.09390000000000
C           -2.54520000000000        0.30280000000000        3.58010000000000
C           -3.87560000000000        0.28150000000000        3.11860000000000
C           -4.48490000000000       -0.94360000000000        2.73900000000000
N           -3.91640000000000       -2.13310000000000        2.99290000000000
C           -2.05440000000000        1.62210000000000        3.88000000000000
C           -2.99020000000000        2.67460000000000        4.10420000000000
N           -4.26640000000000        2.62370000000000        3.67030000000000
C           -4.66270000000000        1.47220000000000        3.09500000000000
C           -5.96900000000000        1.40810000000000        2.58430000000000
C           -6.53810000000000        0.23210000000000        2.12510000000000
C           -5.78600000000000       -0.92680000000000        2.21320000000000
C           -0.66990000000000        1.97000000000000        3.96410000000000
C           -0.30520000000000        3.10810000000000        4.68410000000000
C           -1.23990000000000        4.03250000000000        5.13300000000000
C           -2.55460000000000        3.83970000000000        4.76890000000000
O            0.21320000000000       -0.24870000000000        5.05110000000000
O            0.27450000000000        1.23740000000000        3.27490000000000
B            1.13660000000000        0.48330000000000        4.16710000000000
C            2.65690000000000       -2.59250000000000        3.72220000000000
C            2.94620000000000       -1.26480000000000        4.03700000000000
C            4.09030000000000       -0.96280000000000        4.86200000000000
C            4.77100000000000       -2.08170000000000        5.43350000000000
C            4.38850000000000       -3.39540000000000        5.09580000000000
C            3.37900000000000       -3.67130000000000        4.20840000000000
C            4.74230000000000        0.32090000000000        4.98730000000000
C            6.01260000000000        0.34040000000000        5.58950000000000
C            6.49720000000000       -0.80400000000000        6.27490000000000
N            5.86710000000000       -1.98880000000000        6.22380000000000
C            4.34730000000000        1.57680000000000        4.41410000000000
C            5.33570000000000        2.56370000000000        4.13890000000000
N            6.56890000000000        2.53560000000000        4.68550000000000
C            6.85550000000000        1.48630000000000        5.48110000000000
C            8.09150000000000        1.48000000000000        6.14660000000000
C            8.53260000000000        0.39810000000000        6.88960000000000
C            7.73380000000000       -0.73080000000000        6.93270000000000
C            2.98730000000000        1.95110000000000        4.18880000000000
C            2.71030000000000        3.00090000000000        3.31180000000000
C            3.70420000000000        3.86460000000000        2.86550000000000
C            4.98420000000000        3.66900000000000        3.33810000000000
O            1.98970000000000        1.36680000000000        4.94470000000000
O            2.07430000000000       -0.37770000000000        3.42910000000000
C           -1.15310000000000       -4.81950000000000        5.90860000000000
C            0.21740000000000       -4.85330000000000        6.60860000000000
C           -1.28390000000000       -6.05860000000000        5.00270000000000
C           -2.25300000000000       -4.86930000000000        6.98390000000000
C           -0.82710000000000        5.27060000000000        5.93970000000000
C           -1.72610000000000        5.39450000000000        7.18420000000000
C            0.63650000000000        5.17140000000000        6.41450000000000
C           -0.97840000000000        6.52270000000000        5.06140000000000
C           -8.01880000000000        0.17460000000000        1.71860000000000
C           -8.25030000000000       -0.90980000000000        0.64910000000000
C           -8.48870000000000        1.52600000000000        1.14490000000000
C           -8.85620000000000       -0.16070000000000        2.96380000000000
C            3.20650000000000       -5.08200000000000        3.62630000000000
C            1.84180000000000       -5.21960000000000        2.92600000000000
C            3.30990000000000       -6.15690000000000        4.72480000000000
C            4.32780000000000       -5.31390000000000        2.59800000000000
C            3.36770000000000        5.09830000000000        2.01990000000000
C            4.41180000000000        5.26670000000000        0.90120000000000
C            3.37680000000000        6.34190000000000        2.92450000000000
C            1.97500000000000        4.96590000000000        1.37540000000000
C            9.89920000000000        0.38470000000000        7.58930000000000
C           10.57250000000000        1.76990000000000        7.55040000000000
C            9.71960000000000       -0.02190000000000        9.06420000000000
C           10.81490000000000       -0.62790000000000        6.87910000000000
H           -9.91700000000000       -0.21140000000000        2.71980000000000
H           -8.72140000000000        0.59640000000000        3.73570000000000
H           -8.55850000000000       -1.12120000000000        3.38320000000000
H           -9.27200000000000       -0.87440000000000        0.27270000000000
H           -8.08520000000000       -1.91010000000000        1.04560000000000
H           -7.57750000000000       -0.76550000000000       -0.19200000000000
H           -9.49770000000000        1.44750000000000        0.74120000000000
H           -7.83150000000000        1.85450000000000        0.34290000000000
H           -8.50550000000000        2.30110000000000        1.90950000000000
H           -2.15820000000000       -5.76380000000000        7.59870000000000
H           -3.24340000000000       -4.87610000000000        6.53020000000000
H           -2.19180000000000       -4.00010000000000        7.63800000000000
H            0.38630000000000       -5.81530000000000        7.09160000000000
H            0.28480000000000       -4.08340000000000        7.37650000000000
H            1.01980000000000       -4.68560000000000        5.89400000000000
H           -1.13570000000000       -6.97360000000000        5.57550000000000
H           -0.54670000000000       -6.04570000000000        4.20400000000000
H           -2.27050000000000       -6.11580000000000        4.54560000000000
H            1.65670000000000       -6.24950000000000        2.62250000000000
H            1.79110000000000       -4.60070000000000        2.03290000000000
H            1.03810000000000       -4.90660000000000        3.58810000000000
H            4.20490000000000       -6.26940000000000        2.08890000000000
H            5.30430000000000       -5.30920000000000        3.08090000000000
H            4.33160000000000       -4.52330000000000        1.85000000000000
H            3.12370000000000       -7.14810000000000        4.31190000000000
H            2.58690000000000       -5.98580000000000        5.51850000000000
H            4.30160000000000       -6.17390000000000        5.17400000000000
H           -1.42500000000000        6.24150000000000        7.80000000000000
H           -1.66200000000000        4.49410000000000        7.79450000000000
H           -2.76970000000000        5.54000000000000        6.90980000000000
H            3.14160000000000        7.24090000000000        2.35540000000000
H            4.35300000000000        6.48110000000000        3.38760000000000
H            2.64050000000000        6.24460000000000        3.72150000000000
H            0.89840000000000        6.02210000000000        7.04290000000000
H            1.32680000000000        5.16420000000000        5.57200000000000
H            0.79670000000000        4.26480000000000        6.99750000000000
H           -0.70450000000000        7.42130000000000        5.61350000000000
H           -2.00560000000000        6.63940000000000        4.71820000000000
H           -0.33470000000000        6.45730000000000        4.18490000000000
H            4.13670000000000        6.07880000000000        0.22910000000000
H            4.49450000000000        4.35340000000000        0.31550000000000
H            5.39710000000000        5.49330000000000        1.30520000000000
H            1.77770000000000        5.80190000000000        0.70600000000000
H            1.19080000000000        4.96390000000000        2.13130000000000
H            1.89790000000000        4.04490000000000        0.79940000000000
H           10.94910000000000       -0.35710000000000        5.83220000000000
H           10.39250000000000       -1.63140000000000        6.91280000000000
H           11.79770000000000       -0.66200000000000        7.34840000000000
H            9.03950000000000        0.66180000000000        9.57120000000000
H           10.67260000000000       -0.00340000000000        9.59210000000000
H            9.31220000000000       -1.02770000000000        9.15420000000000
H            9.93860000000000        2.52500000000000        8.01420000000000
H           10.78500000000000        2.07650000000000        6.52690000000000
H           11.51920000000000        1.75440000000000        8.09000000000000
H            8.70510000000000        2.35500000000000        6.04580000000000
H            8.07660000000000       -1.61070000000000        7.44450000000000
H            4.99010000000000       -4.19480000000000        5.48660000000000
H            5.75420000000000        4.38320000000000        3.11390000000000
H           -3.29050000000000        4.58510000000000        5.00640000000000
H           -3.12220000000000       -4.16760000000000        4.19000000000000
H           -6.54380000000000        2.31460000000000        2.59930000000000
H           -6.21610000000000       -1.87100000000000        1.93760000000000
H            1.84990000000000       -2.74720000000000        3.03110000000000
H            0.39600000000000       -2.51220000000000        5.85160000000000
H            0.73670000000000        3.25820000000000        4.88240000000000
H            1.68950000000000        3.15180000000000        3.02090000000000
274
 energy: -391.755018994528 gnorm: 0.073312800800 xtb: 6.7.1 (edcfbbe)
C           -2.45588507423235       -2.66382191224286        0.31333278139118
C           -2.75455962761011       -1.38843250750515       -0.16177235710367
C           -3.91495623833781       -1.19495866539728       -0.97906651214564
C           -4.61010638801727       -2.38595294680025       -1.38803660285425
C           -4.20686033870613       -3.65588180274636       -0.91929544467331
C           -3.18177889413152       -3.80794606948621       -0.01704631284108
C           -4.56700560112234        0.05189258964244       -1.28032105608187
C           -5.85954618772584       -0.01093769586125       -1.83792201518102
C           -6.37440970807034       -1.24036309741770       -2.32756588788277
N           -5.73014476177985       -2.39430782368614       -2.13387084852990
C           -4.13368760308662        1.37113788634131       -0.93698019557079
C           -5.12136766087678        2.39418644137176       -0.77104682032135
N           -6.36661193237003        2.28392058643262       -1.25780634678999
C           -6.69614722240589        1.14144256304858       -1.87852405599629
C           -7.96341591282976        1.04781280488801       -2.48660221863238
C           -8.44168515807188       -0.13556231249544       -3.03806534299200
C           -7.63901216937405       -1.26447695863933       -2.95335375724094
C           -2.77992392892686        1.76532713633547       -0.81605456321130
C           -2.47797486224709        2.93702914708181       -0.12682625572077
C           -3.45986431007737        3.86495730601390        0.23670431589555
C           -4.75714011106554        3.60937142155707       -0.15068492066539
O           -1.91969899103481       -0.42854857710631        0.32606179331495
O           -1.81674159736538        1.05067121893971       -1.46231714147307
B           -0.96518203313898        0.27122093336134       -0.55845064094125
C            0.55590954173781       -2.82898240879550       -1.33314039880471
C            0.81040212947801       -1.53354242900615       -0.87539201604654
C            2.01510760966737       -1.27332443746028       -0.13649619435678
C            2.77121898209974       -2.43216404404660        0.26104092550832
C            2.42285506726231       -3.72012889146850       -0.20483986224789
C            1.37072167067061       -3.92813128872023       -1.06390293663147
C            2.67686110168695       -0.00602473384383        0.04852178723214
C            4.00066042050568       -0.03211012356605        0.53575324162444
C            4.54246579814573       -1.21873112617337        1.09344421648923
N            3.91211181322738       -2.38972704161238        0.97639384181829
C            2.25549999105474        1.27381106517346       -0.43744184583509
C            3.26392880524397        2.22021039583279       -0.81231732905481
N            4.52233387366132        2.15535661465153       -0.35203109685523
C            4.85507211489249        1.10006543466779        0.40389645117545
C            6.15404539807244        1.05136967932420        0.94945774140097
C            6.65538787682225       -0.07801019863146        1.58703059227807
C            5.83748915418598       -1.19862966588791        1.65393453996475
C            0.90989711974140        1.69308058104309       -0.58064466179490
C            0.61967040195994        2.72905735229534       -1.46662903208438
C            1.61487776800575        3.51400186103250       -2.05730387548010
C            2.91594339537402        3.29936374635125       -1.65773445450194
O           -0.05534906218874        1.12880846843073        0.18946211231226
O           -0.10386864659029       -0.64003669244877       -1.33956455189607
C           -2.94308783122547       -5.13975441270958        0.69330570157848
C           -1.60405225773411       -5.12916286480094        1.44359676491038
C           -2.96014655828116       -6.32564729142249       -0.28208919050503
C           -4.09200591595553       -5.30856471959369        1.70052998134440
C           -3.09109099509309        5.19172763379394        0.90118128465728
C           -4.10949432161353        5.53382290141112        1.99900956897286
C           -1.69072985486925        5.13516705200843        1.52832475288304
C           -3.10414887313753        6.29153818420817       -0.17288754136019
C           -9.83554041763341       -0.16625184989586       -3.66984124511398
C          -10.18658608439717       -1.55848872123172       -4.21288019883336
C           -9.88422167750606        0.83851024038358       -4.83169930586092
C          -10.87920772637708        0.22012268245423       -2.60900067131803
C            1.19714858423974       -5.27961578993342       -1.76318697918742
C           -0.05324038878817       -5.29136600029086       -2.65253040525610
C            1.11252999745534       -6.43235416696964       -0.75089158138606
C            2.42895315457232       -5.49854326570505       -2.65774151625881
C            1.27644610710033        4.63679361523968       -3.04047897921000
C            2.15916806904921        4.49755112971456       -4.29102528185541
C            1.54241999679557        5.99367678916897       -2.37090540533183
C           -0.19446466387894        4.58635362592141       -3.48105265755564
C            8.11073098213063       -0.13747306708332        2.06098117179755
C            8.62741930232423        1.25357048890279        2.45932506412574
C            8.26126198232672       -1.07889497118956        3.26527552870489
C            8.96059430357012       -0.67434851171227        0.89850265133525
H          -11.88103930266145        0.19253448636724       -3.03438198991051
H          -10.70589787179159        1.22258612765107       -2.22448901669033
H          -10.84753772224436       -0.47503499543506       -1.77184229657765
H          -11.17674159963928       -1.54618253550602       -4.66471822913099
H          -10.19542486941045       -2.29851777469276       -3.41488677919300
H           -9.47631114673592       -1.86982190919787       -4.97625724954762
H          -10.86245750396004        0.82056357543248       -5.30913670658534
H           -9.13540241407644        0.59022286998733       -5.58160076217899
H           -9.69665924633336        1.85350819073697       -4.48904798269688
H           -3.92056808415458       -6.18152615476188        2.32902795136705
H           -5.04157953133707       -5.44120451834033        1.18563391830349
H           -4.17628179656779       -4.42611850079138        2.33081694614662
H           -1.38766139454437       -6.11704550147693        1.84654330287763
H           -1.62471036498031       -4.42902151044404        2.27479807778158
H           -0.79251034468023       -4.83929262372767        0.77993890409055
H           -2.79179910035972       -7.25623632845153        0.25791315771887
H           -2.18170904754038       -6.22772386917665       -1.03242082986551
H           -3.91572612826033       -6.40896590247513       -0.79341951968895
H           -0.20503312219095       -6.28040759148785       -3.08139385851586
H            0.04860195998487       -4.58381468119676       -3.47324329056896
H           -0.94057776374761       -5.02595887203019       -2.08317869732072
H            2.33280121162193       -6.43166106861168       -3.21051668489604
H            3.34198967971026       -5.54715408454054       -2.06829393996777
H            2.53178231026716       -4.68622278117496       -3.37485899230430
H            1.05874774473515       -7.38771850613949       -1.27074721648889
H            0.22755945156068       -6.34342694675760       -0.12922667316713
H            1.98378985863281       -6.45414593608837       -0.10083885173696
H           -3.80007030887784        6.42750010879200        2.53883013028081
H           -4.19237927416199        4.71178465317679        2.70526346171820
H           -5.09572888667265        5.72436842039624        1.58314795141278
H            1.32978865709169        6.80873331200339       -3.06118730748629
H            2.57956334446221        6.07919026426857       -2.05400909783615
H            0.90665869512286        6.11763317706258       -1.49599020991621
H           -1.48621847892714        6.05520767112636        2.07260349214330
H           -0.92013522602336        5.02732971587474        0.76783304864153
H           -1.61282445139957        4.30277911353093        2.22426461707233
H           -2.84474942930192        7.25446412257098        0.26467210266594