116
 energy: -22.928061455056 gnorm: 0.329736929581 xtb: 6.6.1 (8d0f1dd)
C           -3.31122850772930        0.79849766164622       -0.92477639677520
C           -2.44380812530352       -0.12270372891954       -0.27661132624697
C           -1.41337090092821        0.39579727573559        0.56335275196199
C           -0.89266158675590        1.65801491088749        0.27377586709581
C           -1.72665675402493        2.51431363229076       -0.49448366572522
C           -2.95444148494349        2.13954154133227       -1.01494489940871
C           -0.74098268209890       -0.43411532818871        1.49825021926784
C            0.56872586496315        0.03782116815119        1.86248088067890
C            1.03782416582094        1.29402317993033        1.50887470833621
N            0.31238977034758        2.07067427098208        0.65193736800696
C           -1.29695700510141       -1.39996043042223        2.41574187746061
C           -0.38243517664656       -2.18060797534842        3.13232615520648
N            0.91308504082021       -1.90366887689689        3.30325166013478
C            1.37712470144904       -0.74872102533751        2.81811050966982
C            2.52149331701875       -0.17739833758153        3.39379298866852
C            2.95849061756259        1.02681208890480        2.95105897606587
C            2.24288949469137        1.78498308775960        2.03503020483770
C           -2.74860936222260       -1.74497937691422        2.38401158947411
C           -3.09416315450955       -2.91614440870436        3.00571134491758
C           -2.16786021984049       -3.77788778654213        3.63251872101904
C           -0.85708937311598       -3.40495313382985        3.68547234358092
O           -3.71994433332149       -0.94984598373544        1.67726658385724
O           -2.55702603277562       -1.47241711578389       -0.57241635275616
C           -3.84297843593025        3.13357444054366       -1.60938954875544
C           -2.68769581069131       -5.03867041417370        4.30484659386931
H           -1.39666850744143        3.51251503834900       -0.76806311868865
H           -4.27662633836220        0.55105838579656       -1.33106614114542
H            2.66329581305412        2.73912661909249        1.72562431984580
H            3.05775395548473       -0.69369546277216        4.16536137542516
H           -0.24710966264510       -4.12034095424229        4.22946223699121
H           -4.11477991332403       -3.04712728052358        3.03244694615357
O           -4.21824883374556        4.03433712717988       -0.87713382485991
O           -4.44510595673734        2.90643496899600       -2.81853501752979
C           -5.44216520282800        3.83300025693726       -3.02488532025093
C            4.23586651889298        1.50004220933226        3.59165660008449
O            5.05927614697201        0.66079890002952        3.91714215179376
O            4.47001334453535        2.86385149488593        3.72605651435371
C            5.79457498613219        3.08584475587818        4.15829123132174
O           -3.82227255313510       -5.27347675879771        4.16636005494405
O           -1.85023202017753       -5.79767454267276        5.06656077253571
C           -2.55119635829503       -6.86252441382958        5.62930343183426
C           -5.07197156564436       -1.42399175670916        1.58830531863830
C           -1.33089900128490       -2.23622472573986       -0.99264499351172
H           -2.54510546830388       -7.76426885143998        4.99136022291012
H           -3.57194749219491       -6.44405511486021        5.74196173723541
H           -2.09133598235598       -7.02043774843818        6.64022264233588
H            5.72707967266424        3.46798026205549        5.10135971236643
H            6.34060091246885        3.78468702308830        3.50069950143490
H            6.17933064298187        2.03010500085905        4.19342358084693
H           -0.91862729772622       -2.57650129080332       -0.01361370304871
H           -0.49769766914251       -1.60651221708571       -1.34094446550576
H           -1.52632419730509       -2.94569707152159       -1.75361447637286
H           -5.11788846557077       -2.41810833635233        1.17520213188926
H           -5.67929807973498       -0.69619639428435        1.04301666067831
H           -5.57598832326623       -1.42383358739762        2.57928294206544
H           -6.13050215934830        3.76035386975488       -2.23272855695873
H           -5.86615610071888        3.45938329385866       -4.02668959924245
H           -5.13479557532099        4.87790991548477       -2.98314551356402
C           -1.38192942069774        3.73616555005018        2.91232598411686
C           -1.84821468128685        2.59982427735607        3.49755545445181
C           -1.05946531454833        2.05730632010638        4.60922730982276
C            0.19893954712228        2.69376791964407        4.86302140881997
C            0.50425395911860        3.94630308659851        4.28768785650746
C           -0.26031777722226        4.46998310053134        3.25072669343212
C           -1.20488993561782        0.74454293276906        5.14851520323437
C           -0.06287609782692        0.02744069315890        5.60930570802864
C            1.19208754369866        0.71421540266195        5.78882868583885
N            1.19428660993148        2.06344359410476        5.62744624321596
C           -2.41361422770794        0.07928500213936        5.25249410304426
C           -2.45851584031083       -1.32662100968547        5.60237876023992
N           -1.29466212405906       -1.98318595734370        5.89916817085159
C           -0.14475655767527       -1.32117560077092        5.98824682881008
C            0.97209270935794       -1.98958449505532        6.53157704134458
C            2.21982707914082       -1.36973967291181        6.68703967237737
C            2.30561929262884       -0.09745313075593        6.26436900324455
C           -3.73018485967715        0.71367583494582        5.25810242262992
C           -4.89964478833448       -0.06184623426677        5.21204641615509
C           -4.82617965800088       -1.39228978090841        5.46901303780036
C           -3.67144193418464       -1.98914944386360        5.67265433266067
O           -3.75568638935321        2.07705011038914        5.52067969627343
O           -2.94192434743730        1.91263938797883        3.01658762327703
C            0.21273512614467        5.50086066357994        2.34765104514621
C           -6.06660304520411       -2.17604633098929        5.80641622556876
H            1.41756699010566        4.38133362238595        4.66974005703471
H           -1.82880610647429        4.11982501512100        2.06992133318584
H            3.26888037378556        0.32655662585251        6.31721410015598
H            0.87146188387207       -3.08471526305024        6.57830423410869
H           -3.67716811065157       -3.05999292755990        5.83019634570050
H           -5.77379677507622        0.43595144608221        4.71017130754348
O            1.34459852619901        5.82615848916894        2.44941456579099
O           -0.74718748219123        6.07961784856304        1.59848183464284
C           -0.21473095568964        7.24015934882472        1.05753806029483
C            3.53228080814219       -2.00967610361154        7.02506769044485
O            3.64093082622715       -3.14437803815732        7.50071391725347
O            4.56565258381079       -1.22937033368332        6.69086985080897
C            5.72579357310716       -1.80692399125161        7.22246151275881
O           -7.04801223588612       -1.95726935745904        5.14194115322235
O           -6.01514389321278       -2.93743591896022        6.94765316328794
C           -7.21292732384718       -3.62681918543340        7.15115816329978
C           -4.95459780685163        2.65960679932188        5.86868674392943
C           -3.68284113682406        2.59129188358641        2.05479246020704
H           -7.43119628931628       -4.22607794725959        6.20622607140901
H           -8.06548455146707       -2.91765848248592        7.29781126410398
H           -7.07314693247270       -4.33087306029711        7.91223421050944
H            6.57332189837178       -1.29353136199234        6.78341268688262
H            5.74663761932316       -2.84282155125561        6.88089468184451
H            5.69426191474290       -1.72781984964892        8.29460302186842
H           -4.10481209541493        3.44288266176275        2.60483747673152
H           -4.49244774344916        1.87419893016926        1.82433103764650
H           -3.18901540870812        2.85154642679373        1.06781919454921
H           -5.55414326821421        2.76698137191684        4.93950725322359
H           -4.78658370641210        3.62090640967288        6.25983200635257
H           -5.43485580473958        1.97242995129449        6.65265772412460
H            0.89164886030839        7.38838561720231        1.13776105146914
H           -0.62894889903848        8.04195665205089        1.64837664327952
H           -0.59282546386754        7.45699159724320        0.03719083132488
116
 energy: -22.748231602502 gnorm: 0.481522682747 xtb: 6.6.1 (8d0f1dd)
C           -2.84926772160509        0.50808037353749       -1.16442286769613
C           -2.12120235867917       -0.53355193156642       -0.50358585353735
C           -0.94699549646022       -0.22329055753838        0.24235917712140
C           -0.47677405242261        1.11358280120115        0.19255856180069
C           -1.33985393058668        2.17953355015565       -0.25501138586447
C           -2.50453277595549        1.90788699240527       -0.92186432870763
C           -0.26402912233930       -1.03180113931794        1.18728525412285
C            1.01677540193210       -0.70611238593742        1.47819568864817
C            1.46424626258108        0.59819739120729        1.31266166224961
N            0.63853189506061        1.56970285800895        0.84507330685380
C           -0.90413498597992       -2.11001674145443        1.93226391519300
C           -0.02089883210599       -2.99890997718055        2.67269592617674
N            1.28056678497058       -2.62087760049153        2.73574666654684
C            1.82335609281314       -1.53874157023416        2.23758916199153
C            3.16523708980876       -1.19729227573271        2.65500304038522
C            3.56604329605829        0.13285089783472        2.32527756251990
C            2.68769333182106        1.01135169685066        1.73529163072981
C           -2.32595081023777       -2.41127794899682        2.06199659017185
C           -2.79957872715910       -3.44701010445997        2.82424467040048
C           -1.89791936103534       -4.23572537479868        3.55398809476449
C           -0.56657341407031       -3.98852580559172        3.48504922040773
O           -3.27397340593180       -1.65520440330525        1.38676663208979
O           -2.54173417487133       -1.81885109003044       -0.94051560998178
C           -3.62544558962321        2.85472941291252       -1.40013128318205
C           -2.30472036495260       -5.34064588074915        4.39594582680518
H           -1.28267683060694        3.20213081905612       -0.08366997041077
H           -3.84884682510408        0.32760163491017       -1.45155850255363
H            2.99717056880426        1.87307267308561        1.22267482873946
H            3.67615433406980       -1.76117769806220        3.41177404149476
H            0.02588235552271       -4.57382585872139        4.13809097221901
H           -3.73986238703954       -3.67841072581674        2.93582171216225
O           -3.42618317785606        3.72557213510558       -2.17060659846157
O           -4.84065272757203        2.63246055369499       -0.77465889936491
C           -5.86602669367286        3.41384191428975       -1.33782792514200
C            4.90150898935436        0.60305489944204        2.95301099195279
O            5.44401604127286       -0.16286566910165        3.70694416522468
O            5.32902369111170        1.87484736044363        2.62758889600520
C            6.57802954040188        2.11523293657903        3.10045277537066
O           -3.30346132807275       -5.28074661794367        5.05399308779515
O           -1.40109942590666       -6.43613120073084        4.64814260183692
C           -1.96764478618057       -7.60046771373109        5.24424132816714
C           -4.73621768393831       -1.68865058486771        1.78506240700936
C           -1.63790705363484       -2.92693690851615       -0.99839649342421
H           -2.69891479657847       -8.20086191201938        4.75749582219491
H           -2.39221206176999       -7.40896589419510        6.21347552695886
H           -0.99013081040212       -8.32977228025579        5.15258622866607
H            6.51235717242946        1.62625796677045        3.97554150810237
H            6.70033641549595        3.20808953083310        3.26398374500277
H            7.49449997941730        1.64142771190902        2.58270678978962
H           -1.05100413680889       -2.81741421285935       -0.13850127760413
H           -1.21523131247283       -2.99674278004003       -2.00085498652141
H           -2.40699075987216       -3.78172737818087       -0.65392414194031
H           -4.97044015637005       -2.70655584239989        1.69883292810702
H           -5.34246625778943       -0.95999610217688        1.30047493597055
H           -4.62273213895086       -1.38657545494881        2.89680264664344
H           -6.06236280532788        4.18300378600217       -0.57308150550995
H           -6.83005563030918        2.81117208276003       -1.61540374682321
H           -5.71921437719868        3.62662370014571       -2.38016637810099
C           -2.09453010802031        4.44098346876119        3.40681920517662
C           -2.28183731991758        3.21143200453274        3.93195186610107
C           -1.32537641844672        2.68078338612027        4.74031778357605
C           -0.02315850170256        3.24617715121980        4.74888021222893
C            0.16971225527537        4.49153456049163        4.21232992642786
C           -0.83932604302933        5.05930979877571        3.46056245837583
C           -1.48310338281586        1.36122721396145        5.31835597431234
C           -0.35449112042663        0.57682618141090        5.62406275124946
C            0.89049244646418        1.24512079085994        5.64076400875931
N            1.08108652560884        2.56081151611582        5.36904395898758
C           -2.86769973156904        0.78762787522471        5.72615974113378
C           -2.86910911291015       -0.66146554073658        5.74130009365292
N           -1.77262114118210       -1.36840444982735        5.98331885230733
C           -0.53889551571116       -0.76106703403239        6.02455855319081
C            0.59641706088074       -1.37635904108669        6.57057303351235
C            1.72744305961109       -0.74282488106506        6.80710692338843
C            1.90126947575236        0.55802113600596        6.40922419850741
C           -4.08593433700644        1.54591647228917        5.86797497301687
C           -5.27485419005178        0.81695067345216        5.60710398904742
C           -5.30031416663920       -0.57675603866757        5.33193490446369
C           -4.15272479743194       -1.27828164812902        5.55781048595393
O           -4.02552576131589        2.81456322701706        6.49863509662835
O           -3.18048384238985        2.31370847496105        3.47706933100701
C           -0.62296571185116        6.31181471965021        2.64616066878160
C           -6.67150955444619       -1.21150501325065        5.22943805647647
H            1.13674143253390        4.92039501689884        4.13999341377722
H           -2.74161630515422        4.63652783785557        2.61498382328692
H            2.91555477570939        1.07484132131523        6.49394197668930
H            0.46898840072817       -2.43452842530696        6.81272185194153
H           -4.12055059410916       -2.33955699353817        5.35548293888934
H           -6.30872804136622        1.36005786894055        5.63953324587814
O            0.63748345163328        6.58373728060814        2.53117307271724
O           -1.67751138736756        6.94356915713902        2.08978672812700
C           -1.13027260462417        8.05277198477701        1.33240844976278
C            2.81443772344925       -1.39816781441302        7.60687298257373
O            2.85678553014492       -2.58086365842736        7.79623748760167
O            3.93778473292435       -0.58071013176491        7.95148909710905
C            4.94235564774754       -1.45906288102591        8.50368584592827
O           -7.54825907978624       -1.09068214649340        6.06506178026453
O           -6.66768956829708       -2.10000783264420        4.13315788786901
C           -7.20939599686770       -3.35802190575865        4.29420481952827
C           -2.80680793884249        2.78872057458199        7.29480218102179
C           -4.08464428863099        2.67801007006724        2.45399962777332
H           -7.71738706402134       -3.40591249670047        3.34415920172005
H           -7.99497179661906       -3.41470519724183        5.02823588713219
H           -6.52356152444556       -4.17266118453335        4.47955384539025
H            5.83201778536880       -0.92035987172635        8.25928310064943
H            4.91677056792700       -2.48993155330534        8.07075710587245
H            4.75850697445511       -1.20889128381312        9.54610628388971
H           -4.33987551780280        3.67045401024191        2.32379131803252
H           -4.89951137458800        1.89052566425440        2.43089912031649
H           -3.39322121919643        2.38719655579200        1.58813176401281
H           -2.19899985303725        1.90498509208921        7.10903147194510
H           -3.01830282583555        2.78691846129906        8.30857757997203
H           -2.23045383393713        3.58679504744460        6.86877359295826
H           -0.81849156025075        8.77630837099300        2.07676063900573
H           -2.00147477004190        8.51532276926321        0.83340908018177
H           -0.18360652499327        7.72050218300927        0.79965088230521
116
 energy: -22.788040144023 gnorm: 0.451501773117 xtb: 6.6.1 (8d0f1dd)
C           -3.09520635480977        0.69264657603306       -0.35754668633658
C           -2.34106191372444       -0.34658510455375        0.34733734874313
C           -1.20733404961822        0.04712623921454        1.09622958640113
C           -0.54581364547369        1.26209934017907        0.85634045494157
C           -1.20165966316703        2.26710816088768        0.13670114902979
C           -2.41433331950922        1.93055362880507       -0.43409402903544
C           -0.44130498808627       -0.90509818265184        1.96554677859472
C            0.95118016694585       -0.75650061238359        2.08810813551489
C            1.49997945316627        0.52084976727791        1.68049295061103
N            0.80249209151122        1.51945756054343        1.16274670701760
C           -0.95294630577633       -1.96718284842181        2.72318114318433
C           -0.01402407614110       -2.90186783338242        3.30211551589917
N            1.34008153814527       -2.76711512585523        3.40766167449899
C            1.81847892531008       -1.70212218956053        2.79951342071940
C            3.11327041989424       -1.20188780042800        3.12738982272483
C            3.64510393963341       -0.10582207618055        2.56720549890681
C            2.85400007949674        0.76474245291341        1.89035188792427
C           -2.35318861182618       -2.29036952031294        2.86644272248898
C           -2.68911899177249       -3.56836270123849        3.27845466605609
C           -1.70907401860931       -4.47768343491027        3.71236346597573
C           -0.36673686791711       -4.18162979417612        3.78850782153235
O           -3.38113841137870       -1.41285414154431        2.57715434010801
O           -2.86768774403448       -1.60284659936557        0.06122081014380
C           -3.11226346453569        3.04769109006339       -1.12807285606003
C           -2.22061329019813       -5.88743713435393        4.07184738818658
H           -0.73959656467585        3.24377118757244        0.33165103041936
H           -3.78873835475220        0.58808707329297       -1.18824154000356
H            3.46041131195520        1.62272616479897        1.47207082833932
H            3.96708479780061       -1.84406859481684        3.39411399153007
H            0.47398935250033       -4.76506017820260        4.09303791011399
H           -3.71505206365999       -3.97458586189410        3.30410361197621
O           -2.66526775749134        4.18175306595177       -0.93930209230396
O           -4.21633142671523        2.75207979803354       -1.88711145685906
C           -4.78671387005811        3.99650392121088       -2.33515384796251
C            5.07635652013091        0.23120760079570        2.86344217858589
O            5.74617573520460       -0.55451372145693        3.50334726936280
O            5.59960607893404        1.34915913316351        2.29935335831278
C            7.00111180094485        1.34021765225203        2.33309232425851
O           -3.23591132195977       -6.31136475485657        3.56111198899145
O           -1.35980457666102       -6.63471086107984        4.74614231626241
C           -1.78088705520982       -7.73299914750239        5.47378452028876
C           -4.59131584561830       -2.04418407035543        2.08982458057587
C           -1.86231793822470       -2.54834656014574       -0.17635648581924
H           -1.29706884636687       -8.71681679162304        5.31733994217673
H           -2.92374407589621       -7.80840108949295        5.30398588058711
H           -1.50821261456259       -7.53480388027572        6.43939914800656
H            7.40537229007958        1.52889130609269        3.31764083932407
H            7.49571367954643        2.14514200030437        1.65066467563079
H            7.24831872785114        0.40568227304612        1.77114559194442
H           -1.23616017074139       -2.76433554717249        0.76156513007544
H           -1.09134073487763       -2.32041321162300       -0.92670965783624
H           -2.43561277489645       -3.39623249152998       -0.67852465630558
H           -4.33379946823404       -3.10336182992062        1.90435921307707
H           -4.84411155686097       -1.40722254488180        1.15222164915861
H           -5.41520457637808       -2.08217284015014        2.70111560913981
H           -5.13274993121799        3.94635675483795       -3.34009502393672
H           -4.10277993720443        4.89973873955066       -2.05820709616699
H           -5.65919556434941        4.02419199034446       -1.65189269686284
C           -2.06214131264089        4.32703698490157        2.73882896591261
C           -2.36794182763446        3.08498868969079        3.24789136601680
C           -1.37721386883984        2.49489748196474        4.31566727825366
C           -0.13077677849520        3.21576997103437        4.57823895734138
C           -0.02326282409614        4.57353594337447        4.09881718217739
C           -0.96058843032176        5.13649300532682        3.16561216826722
C           -1.50540388732505        1.21064212160359        4.91195184881646
C           -0.37323321514474        0.59207087018592        5.38455929861375
C            0.86546224455518        1.34299302789305        5.60156007257773
N            0.95265833431233        2.65490649633599        5.25165471167902
C           -2.71171013225100        0.64346666744844        5.28061226169528
C           -2.74099495910854       -0.74031056087443        5.61294326996031
N           -1.64552802153113       -1.54634142532596        5.73321466570681
C           -0.48689944029390       -0.79702562238106        5.76665273357071
C            0.48799233699445       -1.27227439396605        6.53342387293386
C            1.75156769484885       -0.59245767632887        6.56931352569935
C            1.85264376928861        0.67165812521563        6.19769856215614
C           -3.90643022804426        1.39635462269183        5.31395744962348
C           -5.10894543692670        0.61462557317203        5.50272746596110
C           -5.17963112464889       -0.72273319918075        5.90792185297840
C           -3.93830894335207       -1.35624241072682        6.00767440842133
O           -4.11552817204153        2.79442776617060        5.11376836645678
O           -3.29121616642164        2.20328137321636        2.77550788795976
C           -0.72440692520710        6.57998452084354        2.77468819232261
C           -6.20929684130701       -1.74129842688515        5.68284352974481
H            1.00950826248707        5.01343408907709        4.24725939519754
H           -2.71158783368924        4.84218527082674        2.12700966250777
H            2.85329734854721        1.14542245348963        6.34376191147343
H            0.47565297091482       -2.27591123149501        7.02068157177456
H           -3.90186999274428       -2.41836692292163        6.30884260775531
H           -6.06938897175703        1.20596729528800        5.24211850911068
O            0.24514210371365        7.22263315349888        3.06541917508655
O           -1.78067562599947        7.16310537653958        2.07341429000963
C           -1.63206461909895        8.43707709284413        1.84562856671230
C            2.73453644615440       -1.40651589144343        7.16342959078719
O            2.59740228262913       -2.59228565876139        7.52085644822045
O            3.90828203190261       -0.66426242595115        7.36546379537879
C            5.00366377453206       -1.31207777271378        7.14215617187903
O           -6.33205402925007       -2.77092769925398        6.42061071565993
O           -7.14261266662618       -1.40282523013868        4.71255913905527
C           -7.96231479831422       -2.53108326117089        4.63698763315107
C           -4.89473834724530        3.60402689673696        6.02214920450852
C           -4.25332036650699        2.64965816935932        1.85007341739253
H           -7.40206082637383       -3.12341855456658        3.88523670249127
H           -8.92982556654889       -2.29085863414740        4.20885358204601
H           -8.02873544983668       -3.11240291932846        5.56491649927488
H            4.90431088457588       -1.89020026294421        6.20483481929312
H            5.22563111878454       -2.03216011424930        8.03559349376761
H            5.89858631559391       -0.64112220243787        6.98404218076479
H           -4.18988982895668        2.41269661767592        0.76314293630908
H           -4.09960015352130        3.68967475809193        1.70922360666382
H           -5.25496362574665        2.36198039672339        2.29059254462541
H           -4.21688829665294        4.16942387705618        6.58279080817620
H           -5.48534103216162        2.91108939528686        6.62710508793461
H           -5.54163105437275        4.19305823287258        5.50498406001683
H           -1.06126119644513        8.78886605368754        0.98807280072100
H           -1.26849034030850        8.79294067618858        2.83362895496399
H           -2.63948336462003        8.85306547169818        1.69495661521419
116
 energy: -22.802852395864 gnorm: 0.430995601396 xtb: 6.6.1 (8d0f1dd)
C           -2.24494659821288        0.67387857229616       -0.34748467889643
C           -1.69382460306658       -0.29788258244974        0.42894170317370
C           -0.70827415745793        0.15622318878139        1.43306538545125
C           -0.11160512433520        1.42981691347165        1.20509838435742
C           -0.91731794857484        2.38776812561959        0.49226734715680
C           -2.03723797376451        1.99981473681952       -0.18673031401237
C           -0.04413775984349       -0.74523145158705        2.23230613680016
C            1.28819394849771       -0.51183840565365        2.46481942252209
C            1.87901223422903        0.77691860152365        2.08263301566167
N            1.06760201312974        1.80174765290197        1.72885097223340
C           -0.56469347445701       -1.97971308978531        2.75167167570061
C            0.29692434119588       -2.92016275459511        3.23882161927919
N            1.65737015584462       -2.85424101148798        3.24864927286811
C            2.14881981453521       -1.66294063251409        2.83592136009763
C            3.51350079687849       -1.39147789588640        2.73101396526844
C            4.10937679961527       -0.15051416255282        2.54198062887230
C            3.25352357916189        0.96802150951953        2.37701893828872
C           -1.99062453514469       -2.09819640009335        2.91250811781745
C           -2.43954400368302       -3.30277440518360        3.44098849252501
C           -1.60903495810258       -4.32331940610954        3.89308990278339
C           -0.21127252529238       -4.03498649001801        3.83110174428629
O           -2.92863479417869       -1.16064427156502        2.37307962465213
O           -1.79635183679699       -1.74653306863831        0.18634571189360
C           -2.88641551148838        2.93685825246406       -0.91636962619614
C           -2.41229192274797       -5.44938765031330        4.42787170823802
H           -0.69822977981749        3.51787760754755        0.52033555996347
H           -2.99842225582753        0.36663976674104       -1.05338946557120
H            3.50794435857581        2.00191391981518        2.56124068044947
H            4.09908160293183       -2.23101450112397        2.95737562995205
H            0.47075423136602       -4.81272774492698        4.02491056594369
H           -3.55927713527690       -3.55820100529693        3.42992031806078
O           -4.00545484547616        3.18995833258653       -0.55370689974128