Optimization of monomers started
      -----------------------------------------------------------      
     |                   =====================                   |     
     |                           x T B                           |     
     |                   =====================                   |     
     |                         S. Grimme                         |     
     |          Mulliken Center for Theoretical Chemistry        |     
     |                    University of Bonn                     |     
      -----------------------------------------------------------      

   * xtb version 6.7.1 (edcfbbe) compiled by 'runner@Mac-1732539442253.local' on 2024-11-25

   xtb is free software: you can redistribute it and/or modify it under
   the terms of the GNU Lesser General Public License as published by
   the Free Software Foundation, either version 3 of the License, or
   (at your option) any later version.
   
   xtb is distributed in the hope that it will be useful,
   but WITHOUT ANY WARRANTY; without even the implied warranty of
   MERCHANTABILITY or FITNESS FOR A PARTICULAR PURPOSE.  See the
   GNU Lesser General Public License for more details.
   
   Cite this work as:
   * C. Bannwarth, E. Caldeweyher, S. Ehlert, A. Hansen, P. Pracht,
     J. Seibert, S. Spicher, S. Grimme, WIREs Comput. Mol. Sci., 2020, 11,
     e01493. DOI: 10.1002/wcms.1493
   
   for GFN2-xTB:
   * C. Bannwarth, S. Ehlert and S. Grimme., J. Chem. Theory Comput., 2019,
     15, 1652-1671. DOI: 10.1021/acs.jctc.8b01176
   for GFN1-xTB:
   * S. Grimme, C. Bannwarth, P. Shushkov, J. Chem. Theory Comput., 2017,
     13, 1989-2009. DOI: 10.1021/acs.jctc.7b00118
   for GFN0-xTB:
   * P. Pracht, E. Caldeweyher, S. Ehlert, S. Grimme, ChemRxiv, 2019, preprint.
     DOI: 10.26434/chemrxiv.8326202.v1
   for GFN-FF:
   * S. Spicher and S. Grimme, Angew. Chem. Int. Ed., 2020, 59, 15665-15673.
     DOI: 10.1002/anie.202004239
   
   for ALPB and GBSA implicit solvation:
   * S. Ehlert, M. Stahn, S. Spicher, S. Grimme, J. Chem. Theory Comput.,
     2021, 17, 4250-4261. DOI: 10.1021/acs.jctc.1c00471
   
   for ddCOSMO and CPCM-X implicit solvation:
   * M. Stahn, S. Ehlert, S. Grimme, J. Phys. Chem. A,
     2023, XX, XXXX-XXXX. DOI: 10.1021/acs.jpca.3c04382
   
   for DFT-D4:
   * E. Caldeweyher, C. Bannwarth and S. Grimme, J. Chem. Phys., 2017,
     147, 034112. DOI: 10.1063/1.4993215
   * E. Caldeweyher, S. Ehlert, A. Hansen, H. Neugebauer, S. Spicher,
     C. Bannwarth and S. Grimme, J. Chem. Phys., 2019, 150, 154122.
     DOI: 10.1063/1.5090222
   * E. Caldeweyher, J.-M. Mewes, S. Ehlert and S. Grimme, Phys. Chem. Chem. Phys.
     2020, 22, 8499-8512. DOI: 10.1039/D0CP00502A
   
   for sTDA-xTB:
   * S. Grimme and C. Bannwarth, J. Chem. Phys., 2016, 145, 054103.
     DOI: 10.1063/1.4959605
   
   in the mass-spec context:
   * V. Asgeirsson, C. Bauer and S. Grimme, Chem. Sci., 2017, 8, 4879.
     DOI: 10.1039/c7sc00601b
   * J. Koopman and S. Grimme, ACS Omega 2019, 4, 12, 15120-15133.
     DOI: 10.1021/acsomega.9b02011
   
   for metadynamics refer to:
   * S. Grimme, J. Chem. Theory Comput., 2019, 155, 2847-2862
     DOI: 10.1021/acs.jctc.9b00143
   
   for SPH calculations refer to:
   * S. Spicher and S. Grimme, J. Chem. Theory Comput., 2021, 17, 1701-1714
     DOI: 10.1021/acs.jctc.0c01306
   
   for ONIOM refer to:
   * C. Plett, A. Katbashev, S. Ehlert, S. Grimme, M. Bursch,
     Phys. Chem. Chem. Phys., 2023, 25, 17860-17868. DOI: 10.1039/D3CP02178E
   
   for DIPRO refer to:
   * J. Kohn, N. Gildemeister, S. Grimme, D. Fazzi, A. Hansen,
     J. Chem. Phys., 2023, just accepted.
   
   for PTB refer to:
   * S. Grimme, M. Mueller, A. Hansen, J. Chem. Phys., 2023, 158, 124111.
     DOI: 10.1063/5.0137838
   
   with help from (in alphabetical order)
   P. Atkinson, C. Bannwarth, F. Bohle, G. Brandenburg, E. Caldeweyher
   M. Checinski, S. Dohm, S. Ehlert, S. Ehrlich, I. Gerasimov, C. Hölzer
   A. Katbashev, J. Kohn, J. Koopman, C. Lavigne, S. Lehtola, F. März, M. Müller,
   F. Musil, H. Neugebauer, J. Pisarek, C. Plett, P. Pracht, F. Pultar,
   J. Seibert, P. Shushkov, S. Spicher, M. Stahn, M. Steiner, T. Strunk,
   J. Stückrath, T. Rose, and J. Unsleber
   
 * started run on 2025/02/24 at 09:58:28.755     
   ID    Z sym.   atoms
    1    6 C      1-9, 11, 12, 14-21, 25-33, 35, 36, 38-45, 48-71
    2    7 N      10, 13, 34, 37
    3    8 O      22, 23, 46, 47
    4    5 B      24
    5    1 H      72-137

           -------------------------------------------------
          |                Calculation Setup                |
           -------------------------------------------------

          program call               : xtb Base1tBu.mol --opt --chrg 0 --uhf 1 --tight --spinpol --tblite
          coordinate file            : Base1tBu.mol
          omp threads                :                     8

########################################################################
[WARNING] Please study the warnings concerning your input carefully
-2- prog_main: Charge in sdf/mol input was overwritten
-1- prog_main_parseArguments: Unknown option '--tight' provided
########################################################################
repulsion energy          3.2090722321784E+00 Eh
dispersion energy         3.5956337761325E-03 Eh
interaction energy        0.0000000000000E+00 Eh
number of electrons       3.6100000000000E+02 e
integral cutoff           1.9311100799991E+01 bohr

------------------------------------------------------------
  cycle        total energy    energy error   density error
------------------------------------------------------------
      1     -194.1166666330  -1.9732933E+02   1.0151847E-01
      2     -191.9702656157   2.1464010E+00   7.6509153E-02
      3     -183.2465914748   8.7236741E+00   9.6160515E-02
      4     -187.5389681637  -4.2923767E+00   8.2993526E-02
      5     -194.3789747086  -6.8400065E+00   4.0672749E-02
      6     -194.8602747524  -4.8130004E-01   2.2051328E-02
      7     -194.7777188246   8.2555928E-02   2.3266824E-02
      8     -194.9051969849  -1.2747816E-01   1.5686825E-02
      9     -194.9503535852  -4.5156600E-02   1.1195889E-02
     10     -194.9490306811   1.3229041E-03   7.0118803E-03
     11     -194.9580932862  -9.0626051E-03   4.5528831E-03
     12     -194.9579370827   1.5620343E-04   5.5374407E-03
     13     -194.9611052353  -3.1681526E-03   4.2897596E-03
     14     -194.9639854276  -2.8801923E-03   2.8755858E-03
     15     -194.9654343746  -1.4489470E-03   1.6308700E-03
     16     -194.9657449243  -3.1054977E-04   1.1811120E-03
     17     -194.9656041242   1.4080017E-04   1.2375549E-03
     18     -194.9658439399  -2.3981575E-04   7.0271926E-04
     19     -194.9659752183  -1.3127838E-04   2.0507855E-04
     20     -194.9659658298   9.3884774E-06   2.1142731E-04
     21     -194.9659701855  -4.3556704E-06   1.9306662E-04
     22     -194.9659824282  -1.2242757E-05   4.7745732E-05
     23     -194.9659826163  -1.8810113E-07   3.4914744E-05
     24     -194.9659828491  -2.3278071E-07   1.8536130E-05
------------------------------------------------------------

electronic energy        -1.9817865071507E+02 Eh
total energy             -1.9496598284912E+02 Eh

 total:                                   5.686 sec
 - repulsion                              0.001 sec (  0%)
 - dispersion                             0.026 sec (  0%)
 - coulomb                                0.007 sec (  0%)
 - hamiltonian                            0.028 sec (  0%)
 - scc                                    5.625 sec ( 98%)

      ----------------------------------------------------------- 
     |                   =====================                   |
     |                        A N C O P T                        |
     |                   =====================                   |
     |               Approximate Normal Coordinate               |
     |                Rational Function Optimizer                |
      ----------------------------------------------------------- 
      ----------------------------------------------------------- 
     |                   =====================                   |
     |                        A N C O P T                        |
     |                   =====================                   |
     |               Approximate Normal Coordinate               |
     |                Rational Function Optimizer                |
      ----------------------------------------------------------- 

          ...................................................
          :                      SETUP                      :
          :.................................................:
          :   optimization level            normal          :
          :   max. optcycles                   411          :
          :   ANC micro-cycles                  20          :
          :   degrees of freedom               405          :
          :.................................................:
          :   RF solver                   davidson          :
          :   write xtbopt.log                true          :
          :   linear?                        false          :
          :   energy convergence         0.5000000E-05 Eh   :
          :   grad. convergence          0.1000000E-02 Eh/α :
          :   maxmium RF displ.          1.0000000          :
          :   Hlow (freq-cutoff)         0.1000000E-01      :
          :   Hmax (freq-cutoff)         5.0000000          :
          :   S6 in model hess.         20.0000000          :
          ...................................................

generating ANC from exact Hessian ...
Using Lindh-Hessian (1995)
 Shifting diagonal of input Hessian by    1.1664657831475000E-002
 Lowest  eigenvalues of input Hessian
    0.010000    0.010251    0.010624    0.011290    0.011469    0.000000
    0.000000    0.000000    0.000000    0.000000    0.000000    0.011707
    0.011746    0.011811    0.011912    0.011972    0.012037    0.012230
 Highest eigenvalues
    2.329077    2.462783    2.516340    2.516772    2.690956    2.703279


........................................................................
.............................. CYCLE    1 ..............................
........................................................................
------------------------------------------------------------
  cycle        total energy    energy error   density error
------------------------------------------------------------
      1     -194.9659541964  -1.9817862E+02   2.2950643E-04
      2     -194.9642253066   1.7288898E-03   1.8803487E-03
      3     -194.9657360505  -1.5107439E-03   7.1017762E-04
      4     -194.9659826585  -2.4660804E-04   2.9115298E-05
      5     -194.9659827591  -1.0061913E-07   2.2997010E-05
      6     -194.9659829311  -1.7203885E-07   9.8264280E-06
------------------------------------------------------------

 total:                                   0.997 sec
 * total energy  :  -194.9659829 Eh     change       -0.8203040E-07 Eh
   gradient norm :     0.6936680 Eh/α   predicted     0.0000000E+00 (-100.00%)
   displ. norm   :     0.6091860 α      lambda       -0.3478815E+00
   maximum displ.:     0.1518396 α      in ANC's #260, #285, #264, ...

........................................................................
.............................. CYCLE    2 ..............................
........................................................................
------------------------------------------------------------
  cycle        total energy    energy error   density error
------------------------------------------------------------
      1     -195.2133136930  -1.9835531E+02   9.2276235E-03
      2     -194.8565258774   3.5678782E-01   2.3776842E-02
      3     -195.2250189058  -3.6849303E-01   6.4444628E-03
      4     -195.1639560038   6.1062902E-02   1.1861970E-02
      5     -195.2056906982  -4.1734694E-02   8.3704434E-03
      6     -195.2273701110  -2.1679413E-02   4.2950186E-03
      7     -195.2277502015  -3.8009046E-04   3.3983948E-03
      8     -195.2306864011  -2.9361997E-03   2.5831548E-03
      9     -195.2308685532  -1.8215205E-04   2.4007652E-03
     10     -195.2316519546  -7.8340140E-04   1.7145445E-03
     11     -195.2317830670  -1.3111237E-04   1.3872560E-03
     12     -195.2318366012  -5.3534205E-05   1.2140680E-03
     13     -195.2321193491  -2.8274795E-04   6.8228025E-04
     14     -195.2322042451  -8.4895980E-05   2.4115145E-04
     15     -195.2322012512   2.9939004E-06   1.7827539E-04
     16     -195.2322090490  -7.7977757E-06   1.2049602E-04
     17     -195.2322095775  -5.2855520E-07   5.1652110E-05
     18     -195.2322098953  -3.1778848E-07   4.5820519E-05
     19     -195.2322105809  -6.8561647E-07   1.1734550E-05
------------------------------------------------------------

 total:                                   2.199 sec
 * total energy  :  -195.2322106 Eh     change       -0.2662276E+00 Eh
   gradient norm :     0.3457762 Eh/α   predicted    -0.2386278E+00 ( -10.37%)
   displ. norm   :     0.6757914 α      lambda       -0.2002623E+00
   maximum displ.:     0.1732634 α      in ANC's #260, #257, #285, ...

........................................................................
.............................. CYCLE    3 ..............................
........................................................................
------------------------------------------------------------
  cycle        total energy    energy error   density error
------------------------------------------------------------
      1     -195.3606168000  -1.9855720E+02   1.0176607E-02
      2     -195.0328371002   3.2777970E-01   2.3192995E-02
      3     -195.3789319374  -3.4609484E-01   5.8664066E-03
      4     -195.3335905414   4.5341396E-02   1.0088225E-02
      5     -195.3513607446  -1.7770203E-02   9.1357902E-03
      6     -195.3719665301  -2.0605785E-02   6.1930883E-03
      7     -195.3773131903  -5.3466602E-03   4.1553328E-03
      8     -195.3811839363  -3.8707460E-03   2.8038789E-03
      9     -195.3819440624  -7.6012608E-04   2.2159539E-03
     10     -195.3827095354  -7.6547301E-04   1.4619859E-03
     11     -195.3828200148  -1.1047940E-04   1.2381910E-03
     12     -195.3829247354  -1.0472067E-04   9.5504514E-04
     13     -195.3830481119  -1.2337649E-04   6.3451281E-04
     14     -195.3831226422  -7.4530259E-05   2.3915730E-04
     15     -195.3831327834  -1.0141217E-05   6.6495302E-05
     16     -195.3831320345   7.4890932E-07   8.8586250E-05
     17     -195.3831326137  -5.7923424E-07   4.7277227E-05
     18     -195.3831330985  -4.8472114E-07   7.0641330E-06
------------------------------------------------------------

 total:                                   1.959 sec
 * total energy  :  -195.3831331 Eh     change       -0.1509225E+00 Eh
   gradient norm :     0.1601044 Eh/α   predicted    -0.1458605E+00 (  -3.35%)
   displ. norm   :     0.7329722 α      lambda       -0.1019341E+00
   maximum displ.:     0.1651365 α      in ANC's #82, #85, #94, ...

........................................................................
.............................. CYCLE    4 ..............................
........................................................................
------------------------------------------------------------
  cycle        total energy    energy error   density error
------------------------------------------------------------
      1     -195.4599153832  -1.9866844E+02   7.9282900E-03
      2     -195.4149308648   4.4984518E-02   1.0285352E-02
      3     -195.4013361319   1.3594733E-02   1.2454418E-02
      4     -195.4411859269  -3.9849795E-02   7.4844575E-03
      5     -195.4549257667  -1.3739840E-02   4.2702046E-03
      6     -195.4597313609  -4.8055942E-03   4.0694634E-03
      7     -195.4596181887   1.1317221E-04   4.0456183E-03
      8     -195.4602097930  -5.9160425E-04   3.7009709E-03
      9     -195.4648248267  -4.6150337E-03   4.6785336E-04
     10     -195.4649120174  -8.7190773E-05   2.6909801E-04
     11     -195.4649342914  -2.2274013E-05   1.6049504E-04
     12     -195.4649320016   2.2898430E-06   1.4339880E-04
     13     -195.4649262799   5.7216992E-06   1.5512569E-04
     14     -195.4649334972  -7.2172779E-06   8.4644605E-05
     15     -195.4649353853  -1.8881424E-06   3.9195531E-05
     16     -195.4649357553  -3.6998327E-07   1.5846644E-05
------------------------------------------------------------

 total:                                   1.749 sec
 * total energy  :  -195.4649358 Eh     change       -0.8180266E-01 Eh
   gradient norm :     0.1047509 Eh/α   predicted    -0.7834922E-01 (  -4.22%)
   displ. norm   :     0.7744659 α      lambda       -0.6567612E-01
   maximum displ.:     0.1946128 α      in ANC's #82, #30, #22, ...

........................................................................
.............................. CYCLE    5 ..............................
........................................................................
------------------------------------------------------------
  cycle        total energy    energy error   density error
------------------------------------------------------------
      1     -195.5172413131  -1.9871152E+02   6.7550611E-03
      2     -195.4930433525   2.4197961E-02   8.6533515E-03
      3     -195.4643985354   2.8644817E-02   1.1956587E-02
      4     -195.5061342403  -4.1735705E-02   5.6809247E-03
      5     -195.5175251204  -1.1390880E-02   2.1824113E-03
      6     -195.5186743086  -1.1491882E-03   1.4143623E-03
      7     -195.5196021717  -9.2786315E-04   5.5751936E-04
      8     -195.5194722815   1.2989021E-04   7.8401052E-04
      9     -195.5196233523  -1.5107083E-04   3.7930823E-04
     10     -195.5196565063  -3.3154000E-05   2.5217576E-04
     11     -195.5196810021  -2.4495734E-05   5.4725028E-05
     12     -195.5196811338  -1.3173471E-07   5.3662370E-05
     13     -195.5196819547  -8.2093925E-07   1.5994975E-05
------------------------------------------------------------

 total:                                   1.605 sec
 * total energy  :  -195.5196820 Eh     change       -0.5474620E-01 Eh
   gradient norm :     0.0795115 Eh/α   predicted    -0.5253427E-01 (  -4.04%)
   displ. norm   :     0.8106878 α      lambda       -0.4737337E-01
   maximum displ.:     0.2286354 α      in ANC's #30, #22, #82, ...

........................................................................
.............................. CYCLE    6 ..............................
........................................................................
------------------------------------------------------------
  cycle        total energy    energy error   density error
------------------------------------------------------------
      1     -195.5593669722  -1.9873728E+02   5.5938045E-03
      2     -195.5393731227   1.9993849E-02   7.6469510E-03
      3     -195.5111382569   2.8234866E-02   1.1316095E-02
      4     -195.5456016595  -3.4463403E-02   5.3362891E-03
      5     -195.5565877779  -1.0986118E-02   2.5884232E-03
      6     -195.5603114233  -3.7236453E-03   5.8715616E-04
      7     -195.5604359620  -1.2453878E-04   2.8524200E-04
      8     -195.5604544646  -1.8502586E-05   1.9465524E-04
      9     -195.5604603935  -5.9288502E-06   1.0903504E-04
     10     -195.5604566769   3.7165666E-06   1.3607590E-04
     11     -195.5604638832  -7.2063179E-06   2.6512060E-05
     12     -195.5604639438  -6.0605913E-08   1.6808734E-05
------------------------------------------------------------

 total:                                   1.437 sec
 * total energy  :  -195.5604639 Eh     change       -0.4078199E-01 Eh
   gradient norm :     0.0619162 Eh/α   predicted    -0.3925397E-01 (  -3.75%)
   displ. norm   :     0.8438352 α      lambda       -0.3719719E-01
   maximum displ.:     0.2536697 α      in ANC's #22, #30, #24, ...

........................................................................
.............................. CYCLE    7 ..............................
........................................................................
------------------------------------------------------------
  cycle        total energy    energy error   density error
------------------------------------------------------------
      1     -195.5928927445  -1.9875125E+02   4.5216911E-03
      2     -195.5851013747   7.7913697E-03   5.0532305E-03
      3     -195.5679172061   1.7184169E-02   7.9354864E-03
      4     -195.5850463576  -1.7129151E-02   3.8611433E-03
      5     -195.5876128835  -2.5665260E-03   3.6140225E-03
      6     -195.5928986456  -5.2857621E-03   1.0444689E-03
      7     -195.5932899387  -3.9129308E-04   3.9232480E-04
      8     -195.5933364444  -4.6505679E-05   1.3533451E-04
      9     -195.5933390681  -2.6237149E-06   8.7584525E-05
     10     -195.5933414803  -2.4121967E-06   4.2011324E-05
     11     -195.5933415552  -7.4944893E-08   3.1615843E-05
     12     -195.5933417704  -2.1512543E-07   1.8294847E-05
------------------------------------------------------------

 total:                                   1.446 sec
 * total energy  :  -195.5933418 Eh     change       -0.3287783E-01 Eh
   gradient norm :     0.0495287 Eh/α   predicted    -0.3184191E-01 (  -3.15%)
   displ. norm   :     0.8687056 α      lambda       -0.3126072E-01
   maximum displ.:     0.2835158 α      in ANC's #22, #30, #24, ...

........................................................................
.............................. CYCLE    8 ..............................
........................................................................
------------------------------------------------------------
  cycle        total energy    energy error   density error
------------------------------------------------------------
      1     -195.6205479054  -1.9876329E+02   3.9785972E-03
      2     -195.6157038806   4.8440248E-03   4.1382028E-03
      3     -195.5778043970   3.7899484E-02   1.0541455E-02
      4     -195.6140074624  -3.6203065E-02   3.6033547E-03
      5     -195.6187673435  -4.7598811E-03   2.0686927E-03
      6     -195.6202544260  -1.4870825E-03   1.2377439E-03
      7     -195.6207465196  -4.9209359E-04   5.5865133E-04
      8     -195.6208558072  -1.0928754E-04   1.3866267E-04
      9     -195.6208588543  -3.0471522E-06   7.6828384E-05
     10     -195.6208584812   3.7313387E-07   7.8083169E-05
     11     -195.6208600999  -1.6187682E-06   3.9468199E-05
     12     -195.6208605228  -4.2280990E-07   1.4774391E-05
------------------------------------------------------------

 total:                                   1.365 sec
 * total energy  :  -195.6208605 Eh     change       -0.2751875E-01 Eh
   gradient norm :     0.0431359 Eh/α   predicted    -0.2742586E-01 (  -0.34%)
   displ. norm   :     0.8929938 α      lambda       -0.2766165E-01
   maximum displ.:     0.2863401 α      in ANC's #22, #30, #24, ...

........................................................................
.............................. CYCLE    9 ..............................
........................................................................
------------------------------------------------------------
  cycle        total energy    energy error   density error
------------------------------------------------------------
      1     -195.6423610394  -1.9876641E+02   3.8324625E-03
      2     -195.6044348660   3.7926173E-02   9.9306655E-03
      3     -195.6337715332  -2.9336667E-02   5.1122434E-03
      4     -195.6327868740   9.8465918E-04   4.6117528E-03
      5     -195.6427336900  -9.9468161E-03   1.1800365E-03
      6     -195.6431955698  -4.6187973E-04   5.0328496E-04
      7     -195.6432953146  -9.9744808E-05   2.3661050E-04
      8     -195.6433025215  -7.2069421E-06   1.6526102E-04
      9     -195.6433085418  -6.0202409E-06   8.3691122E-05
     10     -195.6433105062  -1.9644592E-06   2.9322803E-05
     11     -195.6433105070  -7.6880724E-10   2.8720043E-05
     12     -195.6433106958  -1.8886098E-07   1.6934281E-05
------------------------------------------------------------

 total:                                   1.427 sec
 * total energy  :  -195.6433107 Eh     change       -0.2245017E-01 Eh
   gradient norm :     0.0537756 Eh/α   predicted    -0.2486005E-01 (  10.73%)
   displ. norm   :     0.8567778 α      lambda       -0.2414371E-01
   maximum displ.:     0.3056931 α      in ANC's #22, #30, #24, ...

........................................................................
.............................. CYCLE   10 ..............................
........................................................................
------------------------------------------------------------
  cycle        total energy    energy error   density error
------------------------------------------------------------
      1     -195.6624022824  -1.9877354E+02   2.9828375E-03
      2     -195.6595924011   2.8098813E-03   3.2188688E-03
      3     -195.6418899374   1.7702464E-02   7.1395271E-03
      4     -195.6610127178  -1.9122780E-02   1.8360062E-03
      5     -195.6618296022  -8.1688442E-04   1.2705608E-03
      6     -195.6624662356  -6.3663339E-04   4.4747072E-04
      7     -195.6625610769  -9.4841368E-05   1.2922322E-04
      8     -195.6625664724  -5.3955028E-06   6.4064041E-05
      9     -195.6625671503  -6.7781954E-07   2.7801524E-05
     10     -195.6625671213   2.8978917E-08   2.6420441E-05
     11     -195.6625672947  -1.7347486E-07   1.2678529E-05
------------------------------------------------------------

 total:                                   1.151 sec
 * total energy  :  -195.6625673 Eh     change       -0.1925660E-01 Eh
   gradient norm :     0.0476408 Eh/α   predicted    -0.2093342E-01 (   8.71%)
   displ. norm   :     0.8486226 α      lambda       -0.2084531E-01
   maximum displ.:     0.2983693 α      in ANC's #22, #24, #30, ...

........................................................................
.............................. CYCLE   11 ..............................
........................................................................
------------------------------------------------------------
  cycle        total energy    energy error   density error
------------------------------------------------------------
      1     -195.6776357640  -1.9876734E+02   3.1212396E-03
      2     -195.6769117932   7.2397076E-04   2.4225525E-03
      3     -195.6588650526   1.8046741E-02   6.7593716E-03
      4     -195.6661614447  -7.2963921E-03   5.5082710E-03
      5     -195.6765638305  -1.0402386E-02   1.7346792E-03
      6     -195.6776645916  -1.1007611E-03   7.8187502E-04
      7     -195.6779715388  -3.0694724E-04   2.0686799E-04
      8     -195.6779800015  -8.4626824E-06   1.1964767E-04
      9     -195.6779849520  -4.9505181E-06   3.7037263E-05
     10     -195.6779849587  -6.6719963E-09   3.0514263E-05
     11     -195.6779852482  -2.8950396E-07   1.4621450E-05
------------------------------------------------------------

 total:                                   1.240 sec
 * total energy  :  -195.6779852 Eh     change       -0.1541795E-01 Eh
   gradient norm :     0.0549402 Eh/α   predicted    -0.1792866E-01 (  16.28%)
   displ. norm   :     0.8160959 α      lambda       -0.1743704E-01
   maximum displ.:     0.2881173 α      in ANC's #22, #24, #34, ...

........................................................................
.............................. CYCLE   12 ..............................
........................................................................
------------------------------------------------------------
  cycle        total energy    energy error   density error
------------------------------------------------------------
      1     -195.6920314871  -1.9877257E+02   2.4845320E-03
      2     -195.6892950729   2.7364142E-03   2.8540170E-03
      3     -195.6786947110   1.0600362E-02   5.8245000E-03
      4     -195.6819674785  -3.2727675E-03   4.9386735E-03
      5     -195.6918724790  -9.9050005E-03   9.8268883E-04
      6     -195.6922452310  -3.7275194E-04   3.4245306E-04
      7     -195.6922971323  -5.1901304E-05   1.5329255E-04
      8     -195.6923042704  -7.1381381E-06   7.0016129E-05
      9     -195.6923033214   9.4904280E-07   7.8202783E-05
     10     -195.6923056120  -2.2906584E-06   2.0058437E-05
     11     -195.6923056520  -3.9944553E-08   1.3837795E-05
------------------------------------------------------------

 total:                                   3.777 sec
 * total energy  :  -195.6923057 Eh     change       -0.1432040E-01 Eh
   gradient norm :     0.0320184 Eh/α   predicted    -0.1452517E-01 (   1.43%)
   displ. norm   :     0.8471826 α      lambda       -0.1443721E-01
   maximum displ.:     0.3144499 α      in ANC's #22, #24, #18, ...

........................................................................
.............................. CYCLE   13 ..............................
........................................................................
------------------------------------------------------------
  cycle        total energy    energy error   density error
------------------------------------------------------------
      1     -195.7042502433  -1.9877022E+02   2.5302963E-03
      2     -195.7013318563   2.9183870E-03   3.1277351E-03
      3     -195.6889789876   1.2352869E-02   6.2265778E-03
      4     -195.7012454522  -1.2266465E-02   2.3522642E-03
      5     -195.7032860581  -2.0406059E-03   1.5274757E-03
      6     -195.7043353212  -1.0492631E-03   2.4696969E-04
      7     -195.7043565089  -2.1187711E-05   8.1019006E-05
      8     -195.7043571850  -6.7603850E-07   6.2963846E-05
      9     -195.7043577790  -5.9401611E-07   4.6048791E-05
     10     -195.7043582496  -4.7063111E-07   2.3414143E-05
     11     -195.7043584013  -1.5169286E-07   1.0972614E-05
------------------------------------------------------------

 total:                                   5.102 sec
 * total energy  :  -195.7043584 Eh     change       -0.1205275E-01 Eh
   gradient norm :     0.0294281 Eh/α   predicted    -0.1239955E-01 (   2.88%)
   displ. norm   :     0.8568538 α      lambda       -0.1205782E-01
   maximum displ.:     0.3043042 α      in ANC's #22, #24, #18, ...

........................................................................
.............................. CYCLE   14 ..............................
........................................................................
------------------------------------------------------------
  cycle        total energy    energy error   density error
------------------------------------------------------------
      1     -195.7146400100  -1.9877137E+02   2.4645365E-03
      2     -195.7005935497   1.4046460E-02   6.1954171E-03
      3     -195.7102769739  -9.6834242E-03   3.5416225E-03
      4     -195.7108041812  -5.2720738E-04   2.9848510E-03
      5     -195.7141460301  -3.3418489E-03   1.2424136E-03
      6     -195.7148425716  -6.9654149E-04   4.1239838E-04
      7     -195.7148885774  -4.6005799E-05   2.4180003E-04
      8     -195.7149049729  -1.6395502E-05   1.2386163E-04
      9     -195.7149102389  -5.2660139E-06   3.5702726E-05
     10     -195.7149104633  -2.2438451E-07   1.6768512E-05
------------------------------------------------------------

 total:                                   4.464 sec
 * total energy  :  -195.7149105 Eh     change       -0.1055206E-01 Eh
   gradient norm :     0.0225245 Eh/α   predicted    -0.1045533E-01 (  -0.92%)
   displ. norm   :     0.8656872 α      lambda       -0.1005587E-01
   maximum displ.:     0.3001000 α      in ANC's #22, #19, #18, ...

........................................................................
.............................. CYCLE   15 ..............................
........................................................................
------------------------------------------------------------
  cycle        total energy    energy error   density error
------------------------------------------------------------
      1     -195.7236014407  -1.9876702E+02   2.5866360E-03
      2     -195.7124154335   1.1186007E-02   5.4323497E-03
      3     -195.7147118769  -2.2964434E-03   4.9526127E-03
      4     -195.7179000970  -3.1882201E-03   3.3700533E-03
      5     -195.7229284804  -5.0283834E-03   1.3738730E-03
      6     -195.7237718067  -8.4332624E-04   2.7326475E-04
      7     -195.7237993653  -2.7558635E-05   9.9500440E-05
      8     -195.7238013593  -1.9939725E-06   6.4343854E-05
      9     -195.7238015120  -1.5274713E-07   4.9649239E-05
     10     -195.7238016964  -1.8435966E-07   3.1184265E-05
     11     -195.7238019747  -2.7833789E-07   1.2530348E-05
------------------------------------------------------------

 total:                                   5.753 sec
 * total energy  :  -195.7238020 Eh     change       -0.8891511E-02 Eh
   gradient norm :     0.0215721 Eh/α   predicted    -0.8795956E-02 (  -1.07%)
   displ. norm   :     0.8772541 α      lambda       -0.9251626E-02
   maximum displ.:     0.2730828 α      in ANC's #22, #18, #19, ...

........................................................................
.............................. CYCLE   16 ..............................
........................................................................
------------------------------------------------------------
  cycle        total energy    energy error   density error
------------------------------------------------------------
      1     -195.7307731075  -1.9877017E+02   2.9343318E-03
      2     -195.7075275442   2.3245563E-02   7.7678228E-03
      3     -195.7273410489  -1.9813505E-02   3.3996942E-03
      4     -195.7267957632   5.4528572E-04   3.0601197E-03
      5     -195.7302749074  -3.4791442E-03   1.4822344E-03
      6     -195.7311562833  -8.8137593E-04   5.9788850E-04
      7     -195.7311854835  -2.9200130E-05   5.0859016E-04
      8     -195.7312761006  -9.0617106E-05   1.4906677E-04
      9     -195.7312832772  -7.1766756E-06   2.9951298E-05
     10     -195.7312833508  -7.3524149E-08   2.2804115E-05
     11     -195.7312834460  -9.5205536E-08   1.6129936E-05
------------------------------------------------------------

 total:                                   6.071 sec
 * total energy  :  -195.7312834 Eh     change       -0.7481471E-02 Eh
   gradient norm :     0.0347515 Eh/α   predicted    -0.8185729E-02 (   9.41%)
   displ. norm   :     0.8238548 α      lambda       -0.8233507E-02
   maximum displ.:     0.2468579 α      in ANC's #22, #19, #18, ...

........................................................................
.............................. CYCLE   17 ..............................
........................................................................
------------------------------------------------------------
  cycle        total energy    energy error   density error
------------------------------------------------------------
      1     -195.7377602404  -1.9876769E+02   2.7181927E-03
      2     -195.7364645588   1.2956817E-03   2.3855760E-03
      3     -195.7322075728   4.2569859E-03   3.5329092E-03
      4     -195.7182628634   1.3944709E-02   6.7528282E-03
      5     -195.7375788086  -1.9315945E-02   9.7630013E-04
      6     -195.7379027506  -3.2394197E-04   3.4703753E-04
      7     -195.7379489205  -4.6169948E-05   1.7424584E-04
      8     -195.7379537857  -4.8651348E-06   1.3160227E-04
      9     -195.7379561134  -2.3277143E-06   9.1068610E-05
     10     -195.7379581876  -2.0742576E-06   4.5367953E-05
     11     -195.7379588806  -6.9292463E-07   1.2170496E-05
------------------------------------------------------------

 total:                                   5.634 sec
 * total energy  :  -195.7379589 Eh     change       -0.6675435E-02 Eh
   gradient norm :     0.0220141 Eh/α   predicted    -0.6910936E-02 (   3.53%)
   displ. norm   :     0.8233250 α      lambda       -0.6556231E-02
   maximum displ.:     0.2264193 α      in ANC's #22, #19, #8, ...

........................................................................
.............................. CYCLE   18 ..............................
........................................................................
------------------------------------------------------------
  cycle        total energy    energy error   density error
------------------------------------------------------------
      1     -195.7432165627  -1.9876152E+02   2.8151296E-03
      2     -195.7197069715   2.3509591E-02   7.6832862E-03
      3     -195.7340518293  -1.4344858E-02   5.0565108E-03
      4     -195.7361784491  -2.1266198E-03   3.8517911E-03
      5     -195.7429116252  -6.7331761E-03   1.1049465E-03
      6     -195.7435059817  -5.9435642E-04   2.3893310E-04
      7     -195.7435189143  -1.2932622E-05   1.4194428E-04
      8     -195.7435237205  -4.8062314E-06   8.3733893E-05
      9     -195.7435241381  -4.1761879E-07   6.2940409E-05
     10     -195.7435248121  -6.7391738E-07   3.3868055E-05
     11     -195.7435250819  -2.6988840E-07   1.4790986E-05
------------------------------------------------------------

 total:                                   5.173 sec
 * total energy  :  -195.7435251 Eh     change       -0.5566201E-02 Eh
   gradient norm :     0.0195165 Eh/α   predicted    -0.5500257E-02 (  -1.18%)
   displ. norm   :     0.8267826 α      lambda       -0.5772580E-02
   maximum displ.:     0.2447278 α      in ANC's #14, #19, #8, ...

........................................................................
.............................. CYCLE   19 ..............................
........................................................................
------------------------------------------------------------
  cycle        total energy    energy error   density error
------------------------------------------------------------
      1     -195.7483772601  -1.9876975E+02   2.6745915E-03
      2     -195.7460374942   2.3397659E-03   2.9170505E-03
      3     -195.7228211714   2.3216323E-02   7.8943678E-03
      4     -195.7328303249  -1.0009154E-02   5.9649304E-03
      5     -195.7479657921  -1.5135467E-02   1.0364285E-03
      6     -195.7483815555  -4.1576338E-04   5.3640383E-04
      7     -195.7484655925  -8.4037062E-05   2.9302105E-04
      8     -195.7484945483  -2.8955750E-05   1.0392533E-04
      9     -195.7484978019  -3.2536811E-06   4.1557621E-05
     10     -195.7484977320   6.9932838E-08   3.1971187E-05
     11     -195.7484980952  -3.6320674E-07   8.8788928E-06
------------------------------------------------------------

 total:                                   4.738 sec
 * total energy  :  -195.7484981 Eh     change       -0.4973013E-02 Eh
   gradient norm :     0.0161773 Eh/α   predicted    -0.4859276E-02 (  -2.29%)
   displ. norm   :     0.8455940 α      lambda       -0.5286289E-02
   maximum displ.:     0.2656980 α      in ANC's #14, #8, #19, ...

........................................................................
.............................. CYCLE   20 ..............................
........................................................................
------------------------------------------------------------
  cycle        total energy    energy error   density error
------------------------------------------------------------
      1     -195.7525277581  -1.9876575E+02   3.0251144E-03
      2     -195.7499607018   2.5670564E-03   3.0078599E-03
      3     -195.7244362779   2.5524424E-02   8.1123147E-03
      4     -195.7405849553  -1.6148677E-02   5.1199863E-03
      5     -195.7516713737  -1.1086418E-02   1.4819508E-03
      6     -195.7525557890  -8.8441527E-04   5.4800787E-04
      7     -195.7525337074   2.2081561E-05   5.8157069E-04
      8     -195.7525621414  -2.8434058E-05   5.0008599E-04
      9     -195.7526316927  -6.9551213E-05   2.5715268E-04
     10     -195.7526571396  -2.5446906E-05   2.9597427E-05
     11     -195.7526573372  -1.9767583E-07   2.2000165E-05
     12     -195.7526574042  -6.6978913E-08   1.4421840E-05
------------------------------------------------------------

 total:                                   6.457 sec
 * total energy  :  -195.7526574 Eh     change       -0.4159309E-02 Eh
   gradient norm :     0.0256492 Eh/α   predicted    -0.4533075E-02 (   8.99%)
   displ. norm   :     0.7742168 α      lambda       -0.5071294E-02
   maximum displ.:     0.2871532 α      in ANC's #14, #8, #31, ...
 * RMSD in coord.:     1.1210062 α      energy gain  -0.7866746E+00 Eh

generating ANC from exact Hessian ...
Using Lindh-Hessian (1995)
 Shifting diagonal of input Hessian by    1.0425020083957405E-002
 Lowest  eigenvalues of input Hessian
    0.010000    0.000000    0.000000    0.000000    0.000000    0.000000
    0.000000    0.010463    0.010520    0.010566    0.010629    0.010723
    0.010843    0.010877    0.010898    0.010960    0.011221    0.011230
 Highest eigenvalues
    2.080594    2.082141    2.187269    2.193954    2.196216    2.201278


........................................................................
.............................. CYCLE   21 ..............................
........................................................................
------------------------------------------------------------
  cycle        total energy    energy error   density error
------------------------------------------------------------
      1     -195.7561987904  -1.9877404E+02   2.6389789E-03
      2     -195.7333543262   2.2844464E-02   7.4884069E-03
      3     -195.7456853623  -1.2331036E-02   5.2506472E-03
      4     -195.7505345389  -4.8491766E-03   3.5961848E-03
      5     -195.7559636302  -5.4290912E-03   9.9866996E-04
      6     -195.7564099673  -4.4633714E-04   3.6606400E-04
      7     -195.7564525929  -4.2625571E-05   1.7110697E-04
      8     -195.7564563588  -3.7659211E-06   1.4222579E-04
      9     -195.7564579857  -1.6268956E-06   1.1909792E-04
     10     -195.7564631434  -5.1577150E-06   2.6459715E-05
     11     -195.7564632606  -1.1722383E-07   1.5613194E-05
------------------------------------------------------------

 total:                                   6.043 sec
 * total energy  :  -195.7564633 Eh     change       -0.3805856E-02 Eh
   gradient norm :     0.0209433 Eh/α   predicted     0.0000000E+00 (-100.00%)
   displ. norm   :     0.3404633 α      lambda       -0.2735863E-02
   maximum displ.:     0.1181347 α      in ANC's #9, #6, #27, ...

........................................................................
.............................. CYCLE   22 ..............................
........................................................................
------------------------------------------------------------
  cycle        total energy    energy error   density error
------------------------------------------------------------
      1     -195.7587683377  -1.9878026E+02   1.4886384E-03
      2     -195.7554581567   3.3101810E-03   3.0083170E-03
      3     -195.7562516867  -7.9353002E-04   2.5376722E-03
      4     -195.7584882744  -2.2365877E-03   8.2478157E-04
      5     -195.7586508297  -1.6255528E-04   5.7418688E-04
      6     -195.7588003309  -1.4950120E-04   1.1323920E-04
      7     -195.7587958365   4.4943616E-06   1.4634865E-04
      8     -195.7588000343  -4.1978260E-06   1.0923584E-04
      9     -195.7588034801  -3.4457241E-06   5.7918050E-05
     10     -195.7588046143  -1.1342344E-06   2.1411213E-05
     11     -195.7588047566  -1.4235411E-07   8.6103877E-06
------------------------------------------------------------

 total:                                   8.974 sec
 * total energy  :  -195.7588048 Eh     change       -0.2341496E-02 Eh
   gradient norm :     0.0095205 Eh/α   predicted    -0.1526534E-02 ( -34.81%)
   displ. norm   :     0.7325572 α      lambda       -0.4188588E-02
   maximum displ.:     0.2623259 α      in ANC's #9, #27, #6, ...

........................................................................
.............................. CYCLE   23 ..............................
........................................................................
------------------------------------------------------------
  cycle        total energy    energy error   density error
------------------------------------------------------------
      1     -195.7621826480  -1.9878485E+02   2.9015930E-03
      2     -195.7545662812   7.6163668E-03   4.6821216E-03
      3     -195.7433339729   1.1232308E-02   6.7996461E-03
      4     -195.7604435208  -1.7109548E-02   2.0277426E-03
      5     -195.7618899000  -1.4463792E-03   9.4229319E-04
      6     -195.7622610372  -3.7113725E-04   2.6929706E-04
      7     -195.7622816621  -2.0624838E-05   2.0083096E-04
      8     -195.7622623711   1.9291001E-05   2.9460634E-04
      9     -195.7622929440  -3.0572867E-05   1.0402037E-04
     10     -195.7622970070  -4.0630574E-06   1.5366309E-05
     11     -195.7622970511  -4.4105150E-08   9.8440743E-06
------------------------------------------------------------

 total:                                   7.497 sec
 * total energy  :  -195.7622971 Eh     change       -0.3492294E-02 Eh
   gradient norm :     0.0176756 Eh/α   predicted    -0.3218880E-02 (  -7.83%)
   displ. norm   :     0.7785992 α      lambda       -0.3586895E-02
   maximum displ.:     0.2915452 α      in ANC's #9, #27, #11, ...

........................................................................
.............................. CYCLE   24 ..............................
........................................................................
------------------------------------------------------------
  cycle        total energy    energy error   density error
------------------------------------------------------------
      1     -195.7654899705  -1.9878506E+02   2.8151528E-03
      2     -195.7634370161   2.0529545E-03   2.6942163E-03
      3     -195.7336538072   2.9783209E-02   8.3885129E-03
      4     -195.7644061544  -3.0752347E-02   1.6064442E-03
      5     -195.7652842840  -8.7812955E-04   8.0945736E-04
      6     -195.7654002726  -1.1598862E-04   6.6521517E-04
      7     -195.7652937573   1.0651530E-04   8.4792748E-04
      8     -195.7652918952   1.8620569E-06   8.3094163E-04
      9     -195.7655544876  -2.6259236E-04   6.3523533E-05
     10     -195.7655471417   7.3459499E-06   1.5484241E-04
     11     -195.7655545651  -7.4234917E-06   4.8783286E-05
     12     -195.7655551935  -6.2836028E-07   2.4973004E-05
     13     -195.7655551753   1.8218316E-08   2.5873299E-05
     14     -195.7655553129  -1.3766041E-07   1.5918751E-05
------------------------------------------------------------

 total:                                   8.328 sec
 * total energy  :  -195.7655553 Eh     change       -0.3258262E-02 Eh
   gradient norm :     0.0236432 Eh/α   predicted    -0.2880666E-02 ( -11.59%)
   displ. norm   :     0.8186927 α      lambda       -0.3957610E-02
   maximum displ.:     0.3157543 α      in ANC's #9, #11, #6, ...

........................................................................
.............................. CYCLE   25 ..............................
........................................................................
------------------------------------------------------------
  cycle        total energy    energy error   density error
------------------------------------------------------------
      1     -195.7689377746  -1.9878626E+02   2.8408349E-03
      2     -195.7524557642   1.6482010E-02   6.4435212E-03
      3     -195.7588920402  -6.4362760E-03   5.0804145E-03
      4     -195.7680024665  -9.1104263E-03   1.6702520E-03
      5     -195.7688475485  -8.4508201E-04   7.9801309E-04
      6     -195.7690785415  -2.3099297E-04   3.8130889E-04
      7     -195.7690921107  -1.3569280E-05   3.6827027E-04
      8     -195.7690724066   1.9704152E-05   4.1658474E-04
      9     -195.7691332439  -6.0837351E-05   1.3980598E-04
     10     -195.7691408438  -7.5999085E-06   1.2154601E-05
     11     -195.7691408609  -1.7088013E-08   7.1873213E-06
------------------------------------------------------------

 total:                                   6.551 sec
 * total energy  :  -195.7691409 Eh     change       -0.3585548E-02 Eh
   gradient norm :     0.0179392 Eh/α   predicted    -0.3305114E-02 (  -7.82%)
   displ. norm   :     0.8344504 α      lambda       -0.3852791E-02
   maximum displ.:     0.3301846 α      in ANC's #9, #11, #6, ...

........................................................................
.............................. CYCLE   26 ..............................
........................................................................
------------------------------------------------------------
  cycle        total energy    energy error   density error
------------------------------------------------------------
      1     -195.7725532545  -1.9878957E+02   2.8051958E-03
      2     -195.7722911103   2.6214416E-04   1.8681407E-03
      3     -195.7309758402   4.1315270E-02   9.8667540E-03
      4     -195.7707839612  -3.9808121E-02   2.0769766E-03
      5     -195.7722157186  -1.4317574E-03   9.6469734E-04
      6     -195.7724645811  -2.4886254E-04   5.7734903E-04
      7     -195.7725853766  -1.2079553E-04   2.4661603E-04
      8     -195.7726086318  -2.3255170E-05   6.6724741E-05
      9     -195.7726103058  -1.6739986E-06   2.2668930E-05
     10     -195.7726098718   4.3399228E-07   3.9225792E-05
     11     -195.7726103373  -4.6544568E-07   1.9960796E-05
------------------------------------------------------------

 total:                                   6.607 sec
 * total energy  :  -195.7726103 Eh     change       -0.3469476E-02 Eh
   gradient norm :     0.0124309 Eh/α   predicted    -0.3267766E-02 (  -5.81%)
   displ. norm   :     0.8424101 α      lambda       -0.3513838E-02
   maximum displ.:     0.3425564 α      in ANC's #9, #11, #6, ...

........................................................................
.............................. CYCLE   27 ..............................
........................................................................
------------------------------------------------------------
  cycle        total energy    energy error   density error
------------------------------------------------------------
      1     -195.7755576959  -1.9879425E+02   2.8674306E-03
      2     -195.7515609193   2.3996777E-02   7.6397898E-03
      3     -195.7639012302  -1.2340311E-02   5.4751132E-03
      4     -195.7749884594  -1.1087229E-02   1.3253223E-03
      5     -195.7754823821  -4.9392273E-04   7.7373708E-04
      6     -195.7757461265  -2.6374440E-04   3.0839358E-04
      7     -195.7757810995  -3.4972956E-05   1.6211395E-04
      8     -195.7757557045   2.5394967E-05   2.9244920E-04
      9     -195.7757831198  -2.7415296E-05   1.2368358E-04
     10     -195.7757886866  -5.5668241E-06   1.1766116E-05
     11     -195.7757886914  -4.7660933E-09   8.8130533E-06
------------------------------------------------------------

 total:                                   1.848 sec
 * total energy  :  -195.7757887 Eh     change       -0.3178354E-02 Eh
   gradient norm :     0.0102270 Eh/α   predicted    -0.3003726E-02 (  -5.49%)
   displ. norm   :     0.8663808 α      lambda       -0.3226193E-02
   maximum displ.:     0.3563933 α      in ANC's #9, #6, #11, ...

........................................................................
.............................. CYCLE   28 ..............................
........................................................................
------------------------------------------------------------
  cycle        total energy    energy error   density error
------------------------------------------------------------
      1     -195.7786017976  -1.9879561E+02   2.8271361E-03
      2     -195.7660182358   1.2583562E-02   5.6176353E-03
      3     -195.7612715095   4.7467263E-03   6.5006895E-03
      4     -195.7766233725  -1.5351863E-02   2.0096248E-03
      5     -195.7783461863  -1.7228139E-03   9.2857581E-04
      6     -195.7786700499  -3.2386356E-04   4.3233071E-04
      7     -195.7786678837   2.1662337E-06   4.4130207E-04
      8     -195.7786720388  -4.1551155E-06   4.1730878E-04
      9     -195.7787219055  -4.9866676E-05   2.1185777E-04
     10     -195.7787388697  -1.6964260E-05   3.8295567E-05
     11     -195.7787393195  -4.4977440E-07   1.4830209E-05
------------------------------------------------------------

 total:                                   1.292 sec
 * total energy  :  -195.7787393 Eh     change       -0.2950628E-02 Eh
   gradient norm :     0.0128185 Eh/α   predicted    -0.2823956E-02 (  -4.29%)
   displ. norm   :     0.8531724 α      lambda       -0.3350182E-02
   maximum displ.:     0.3517618 α      in ANC's #9, #11, #6, ...

........................................................................
.............................. CYCLE   29 ..............................
........................................................................
------------------------------------------------------------
  cycle        total energy    energy error   density error
------------------------------------------------------------
      1     -195.7813290745  -1.9881229E+02   2.6721545E-03
      2     -195.7756117808   5.7172937E-03   3.9975889E-03
      3     -195.7574660160   1.8145765E-02   7.5663139E-03
      4     -195.7803153425  -2.2849326E-02   1.4543243E-03
      5     -195.7808138561  -4.9851356E-04   1.1302275E-03
      6     -195.7813877243  -5.7386819E-04   2.7298386E-04
      7     -195.7814192664  -3.1542147E-05   7.8227242E-05
      8     -195.7814129528   6.3135888E-06   1.4333191E-04
      9     -195.7814182890  -5.3361427E-06   8.5937901E-05
     10     -195.7814210515  -2.7625433E-06   1.6416610E-05
     11     -195.7814211168  -6.5341482E-08   8.2773578E-06
------------------------------------------------------------

 total:                                   1.127 sec
 * total energy  :  -195.7814211 Eh     change       -0.2681797E-02 Eh
   gradient norm :     0.0201892 Eh/α   predicted    -0.2894397E-02 (   7.93%)
   displ. norm   :     0.8459214 α      lambda       -0.3283981E-02
   maximum displ.:     0.3455472 α      in ANC's #9, #6, #11, ...

........................................................................
.............................. CYCLE   30 ..............................
........................................................................
------------------------------------------------------------
  cycle        total energy    energy error   density error
------------------------------------------------------------
      1     -195.7839635095  -1.9880265E+02   2.7248848E-03
      2     -195.7756688821   8.2946274E-03   4.5969809E-03
      3     -195.7637791243   1.1889758E-02   6.9428917E-03
      4     -195.7772180881  -1.3438964E-02   3.7040963E-03
      5     -195.7838511338  -6.6330457E-03   8.6663348E-04
      6     -195.7840156925  -1.6455872E-04   5.6794479E-04
      7     -195.7840412661  -2.5573632E-05   5.1100155E-04
      8     -195.7840863748  -4.5108684E-05   3.7656045E-04
      9     -195.7841270414  -4.0666532E-05   1.9348329E-04
     10     -195.7841404350  -1.3393629E-05   5.4186744E-05
     11     -195.7841412819  -8.4691212E-07   2.3202212E-05
     12     -195.7841413397  -5.7821836E-08   1.4289345E-05
------------------------------------------------------------

 total:                                   1.285 sec
 * total energy  :  -195.7841413 Eh     change       -0.2720223E-02 Eh
   gradient norm :     0.0175563 Eh/α   predicted    -0.2816974E-02 (   3.56%)
   displ. norm   :     0.7734845 α      lambda       -0.2753373E-02
   maximum displ.:     0.3133341 α      in ANC's #6, #9, #11, ...

........................................................................
.............................. CYCLE   31 ..............................
........................................................................
------------------------------------------------------------
  cycle        total energy    energy error   density error
------------------------------------------------------------
      1     -195.7863465276  -1.9880001E+02   2.3649606E-03
      2     -195.7575400699   2.8806458E-02   8.2681211E-03
      3     -195.7806068257  -2.3066756E-02   3.9558150E-03
      4     -195.7825493402  -1.9425146E-03   2.8254441E-03
      5     -195.7863494901  -3.8001499E-03   8.0973223E-04
      6     -195.7866299862  -2.8049613E-04   1.6734037E-04
      7     -195.7866392793  -9.2930588E-06   1.0701422E-04
      8     -195.7866378466   1.4326563E-06   1.1953830E-04
      9     -195.7866427879  -4.9413104E-06   4.1187368E-05
     10     -195.7866432222  -4.3426124E-07   1.7802368E-05
------------------------------------------------------------

 total:                                   1.288 sec
 * total energy  :  -195.7866432 Eh     change       -0.2501882E-02 Eh
   gradient norm :     0.0165635 Eh/α   predicted    -0.2200334E-02 ( -12.05%)
   displ. norm   :     0.7815492 α      lambda       -0.3270177E-02
   maximum displ.:     0.3101207 α      in ANC's #6, #11, #9, ...

........................................................................
.............................. CYCLE   32 ..............................
........................................................................
------------------------------------------------------------
  cycle        total energy    energy error   density error
------------------------------------------------------------
      1     -195.7893483787  -1.9880941E+02   2.2856417E-03
      2     -195.7891919828   1.5639591E-04   1.5047706E-03
      3     -195.7739831113   1.5208871E-02   5.7779995E-03
      4     -195.7764025512  -2.4194399E-03   5.4741771E-03
      5     -195.7889359880  -1.2533437E-02   1.0334568E-03
      6     -195.7894012205  -4.6523246E-04   1.7728858E-04
      7     -195.7894067917  -5.5712183E-06   1.4186597E-04
      8     -195.7894067847   6.9752844E-09   1.4257899E-04
      9     -195.7894113135  -4.5287218E-06   9.2659967E-05
     10     -195.7894138884  -2.5748974E-06   4.0411418E-05
     11     -195.7894142313  -3.4288956E-07   2.5398564E-05
     12     -195.7894144235  -1.9224760E-07   1.1319082E-05
------------------------------------------------------------

 total:                                   1.261 sec
 * total energy  :  -195.7894144 Eh     change       -0.2771201E-02 Eh
   gradient norm :     0.0148768 Eh/α   predicted    -0.2633838E-02 (  -4.96%)
   displ. norm   :     0.8399546 α      lambda       -0.2861766E-02
   maximum displ.:     0.3563094 α      in ANC's #6, #11, #9, ...

........................................................................
.............................. CYCLE   33 ..............................
........................................................................
------------------------------------------------------------
  cycle        total energy    energy error   density error
------------------------------------------------------------
      1     -195.7918125848  -1.9880840E+02   2.4380888E-03
      2     -195.7910516128   7.6097202E-04   2.0017734E-03
      3     -195.7580622940   3.2989319E-02   8.8713058E-03
      4     -195.7797936776  -2.1731384E-02   5.0509925E-03
      5     -195.7916858992  -1.1892222E-02   7.1857873E-04
      6     -195.7918633103  -1.7741110E-04   2.6501535E-04
      7     -195.7918908092  -2.7498889E-05   8.7777482E-05
      8     -195.7918906724   1.3677268E-07   9.3707784E-05
      9     -195.7918932730  -2.6005441E-06   4.6120495E-05
     10     -195.7918937877  -5.1468695E-07   2.5287233E-05
     11     -195.7918938880  -1.0033159E-07   1.8683612E-05
------------------------------------------------------------

 total:                                   1.338 sec
 * total energy  :  -195.7918939 Eh     change       -0.2479464E-02 Eh
   gradient norm :     0.0149035 Eh/α   predicted    -0.2440414E-02 (  -1.57%)
   displ. norm   :     0.7909606 α      lambda       -0.2669508E-02
   maximum displ.:     0.3309339 α      in ANC's #6, #3, #11, ...

........................................................................
.............................. CYCLE   34 ..............................
........................................................................
------------------------------------------------------------
  cycle        total energy    energy error   density error
------------------------------------------------------------
      1     -195.7940442980  -1.9881718E+02   2.3286905E-03
      2     -195.7917754250   2.2688729E-03   2.7137289E-03
      3     -195.7650090301   2.6766395E-02   8.3109739E-03
      4     -195.7898674424  -2.4858412E-02   2.8934946E-03
      5     -195.7938163783  -3.9489359E-03   7.9317509E-04
      6     -195.7940762167  -2.5983839E-04   2.6316593E-04
      7     -195.7941023221  -2.6105380E-05   1.0300113E-04
      8     -195.7941054486  -3.1265253E-06   6.2936489E-05
      9     -195.7941060402  -5.9164145E-07   4.6225568E-05
     10     -195.7941067066  -6.6638444E-07   1.9867556E-05
------------------------------------------------------------

 total:                                   1.114 sec
 * total energy  :  -195.7941067 Eh     change       -0.2212819E-02 Eh
   gradient norm :     0.0135772 Eh/α   predicted    -0.2169806E-02 (  -1.94%)
   displ. norm   :     0.7910941 α      lambda       -0.2205516E-02
   maximum displ.:     0.3751911 α      in ANC's #6, #3, #11, ...

........................................................................
.............................. CYCLE   35 ..............................
........................................................................
------------------------------------------------------------
  cycle        total energy    energy error   density error
------------------------------------------------------------
      1     -195.7959012748  -1.9881410E+02   2.0909281E-03
      2     -195.7915669126   4.3343622E-03   3.4463994E-03
      3     -195.7812220785   1.0344834E-02   5.9670758E-03
      4     -195.7895669727  -8.3448942E-03   3.6283418E-03
      5     -195.7958275044  -6.2605318E-03   5.9093846E-04
      6     -195.7959695655  -1.4206108E-04   1.7336907E-04
      7     -195.7959791119  -9.5463773E-06   9.5864530E-05
      8     -195.7959764453   2.6666149E-06   1.2540579E-04
      9     -195.7959798099  -3.3646301E-06   8.3771432E-05
     10     -195.7959818930  -2.0831008E-06   3.8207581E-05
     11     -195.7959822608  -3.6776009E-07   2.1867760E-05
     12     -195.7959823862  -1.2546272E-07   1.1944186E-05
------------------------------------------------------------

 total:                                   1.339 sec
 * total energy  :  -195.7959824 Eh     change       -0.1875680E-02 Eh
   gradient norm :     0.0119614 Eh/α   predicted    -0.1792905E-02 (  -4.41%)
   displ. norm   :     0.7292435 α      lambda       -0.2078524E-02
   maximum displ.:     0.3593605 α      in ANC's #6, #3, #11, ...

........................................................................
.............................. CYCLE   36 ..............................
........................................................................
------------------------------------------------------------
  cycle        total energy    energy error   density error
------------------------------------------------------------
      1     -195.7974212401  -1.9881890E+02   1.8845915E-03
      2     -195.7885795772   8.8416629E-03   4.6643224E-03
      3     -195.7906720063  -2.0924292E-03   4.1444414E-03
      4     -195.7965604395  -5.8884331E-03   1.3688463E-03
      5     -195.7972670424  -7.0660293E-04   7.4200805E-04
      6     -195.7974748791  -2.0783666E-04   3.5282753E-04
      7     -195.7975059644  -3.1085342E-05   2.1864062E-04
      8     -195.7975145750  -8.6106365E-06   1.5595653E-04
      9     -195.7975208991  -6.3240537E-06   8.6078257E-05
     10     -195.7975235016  -2.6025015E-06   2.8024471E-05
     11     -195.7975237393  -2.3775357E-07   1.3035111E-05
------------------------------------------------------------

 total:                                   1.186 sec
 * total energy  :  -195.7975237 Eh     change       -0.1541353E-02 Eh
   gradient norm :     0.0188177 Eh/α   predicted    -0.1591955E-02 (   3.28%)
   displ. norm   :     0.7356986 α      lambda       -0.2112518E-02
   maximum displ.:     0.3621196 α      in ANC's #6, #3, #11, ...

........................................................................
.............................. CYCLE   37 ..............................
........................................................................
------------------------------------------------------------
  cycle        total energy    energy error   density error
------------------------------------------------------------
      1     -195.7990204378  -1.9882098E+02   1.7444526E-03
      2     -195.7923172626   6.7031752E-03   4.0977577E-03
      3     -195.7931539165  -8.3665386E-04   3.8714560E-03
      4     -195.7952836492  -2.1297328E-03   2.7661992E-03
      5     -195.7990583077  -3.7746585E-03   3.4170031E-04
      6     -195.7990878681  -2.9560374E-05   1.9831780E-04
      7     -195.7990973108  -9.4427755E-06   1.3345852E-04
      8     -195.7991028413  -5.5304482E-06   6.2930835E-05
      9     -195.7991036639  -8.2264751E-07   3.8703799E-05
     10     -195.7991040870  -4.2308133E-07   2.1021600E-05
     11     -195.7991042318  -1.4479562E-07   8.3891308E-06
------------------------------------------------------------

 total:                                   1.402 sec
 * total energy  :  -195.7991042 Eh     change       -0.1580492E-02 Eh
   gradient norm :     0.0155568 Eh/α   predicted    -0.1627964E-02 (   3.00%)
   displ. norm   :     0.6854245 α      lambda       -0.1814284E-02
   maximum displ.:     0.3617575 α      in ANC's #6, #3, #8, ...

........................................................................
.............................. CYCLE   38 ..............................
........................................................................
------------------------------------------------------------
  cycle        total energy    energy error   density error
------------------------------------------------------------
      1     -195.8005533888  -1.9881672E+02   1.5131255E-03
      2     -195.7878467393   1.2706649E-02   5.5098244E-03
      3     -195.7987466427  -1.0899903E-02   2.2950135E-03
      4     -195.8002404847  -1.4938420E-03   9.3628045E-04
      5     -195.8005879835  -3.4749883E-04   4.8172725E-04
      6     -195.8006624913  -7.4507817E-05   2.6070377E-04
      7     -195.8006806981  -1.8206734E-05   1.4852759E-04
      8     -195.8006883184  -7.6203412E-06   5.0912235E-05
      9     -195.8006890557  -7.3730831E-07   2.0918762E-05
     10     -195.8006892220  -1.6632322E-07   4.1641138E-06
------------------------------------------------------------

 total:                                   1.579 sec
 * total energy  :  -195.8006892 Eh     change       -0.1584990E-02 Eh
   gradient norm :     0.0132495 Eh/α   predicted    -0.1333325E-02 ( -15.88%)
   displ. norm   :     0.7283830 α      lambda       -0.2433368E-02
   maximum displ.:     0.3899969 α      in ANC's #6, #3, #8, ...

........................................................................
.............................. CYCLE   39 ..............................
........................................................................
------------------------------------------------------------
  cycle        total energy    energy error   density error
------------------------------------------------------------
      1     -195.8023712542  -1.9882283E+02   1.7369319E-03
      2     -195.7857769884   1.6594266E-02   6.2986174E-03
      3     -195.8003297377  -1.4552749E-02   2.4855799E-03
      4     -195.8016739431  -1.3442054E-03   1.3644174E-03
      5     -195.8023560133  -6.8207028E-04   7.3637427E-04
      6     -195.8025518084  -1.9579501E-04   3.2768197E-04
      7     -195.8025860219  -3.4213567E-05   1.4525501E-04
      8     -195.8025923128  -6.2908670E-06   6.7923432E-05
      9     -195.8025939097  -1.5969612E-06   2.0851540E-05
     10     -195.8025940285  -1.1873882E-07   1.2924037E-05
------------------------------------------------------------

 total:                                   1.105 sec
 * total energy  :  -195.8025940 Eh     change       -0.1904806E-02 Eh
   gradient norm :     0.0149880 Eh/α   predicted    -0.1862192E-02 (  -2.24%)
   displ. norm   :     0.7963671 α      lambda       -0.2093926E-02
   maximum displ.:     0.4164277 α      in ANC's #6, #3, #8, ...

........................................................................
.............................. CYCLE   40 ..............................
........................................................................
------------------------------------------------------------
  cycle        total energy    energy error   density error
------------------------------------------------------------
      1     -195.8044048215  -1.9882182E+02   1.6554222E-03
      2     -195.8019515440   2.4532775E-03   2.5763578E-03
      3     -195.7915901239   1.0361420E-02   5.6405361E-03
      4     -195.8031142645  -1.1524141E-02   1.6071910E-03
      5     -195.8043872743  -1.2730098E-03   3.8203422E-04
      6     -195.8044429814  -5.5707177E-05   1.2009698E-04
      7     -195.8044452323  -2.2508183E-06   8.4742630E-05
      8     -195.8044472571  -2.0248410E-06   4.5310869E-05
      9     -195.8044477115  -4.5440763E-07   2.9588648E-05
     10     -195.8044476970   1.4498880E-08   2.9296823E-05
     11     -195.8044478028  -1.0574774E-07   2.3938492E-05
     12     -195.8044479417  -1.3895928E-07   1.3908347E-05
------------------------------------------------------------

 total:                                   1.381 sec
 * total energy  :  -195.8044479 Eh     change       -0.1853913E-02 Eh
   gradient norm :     0.0160411 Eh/α   predicted    -0.1710957E-02 (  -7.71%)
   displ. norm   :     0.8265504 α      lambda       -0.2180801E-02
   maximum displ.:     0.4474665 α      in ANC's #6, #3, #8, ...

........................................................................
.............................. CYCLE   41 ..............................
........................................................................
------------------------------------------------------------
  cycle        total energy    energy error   density error
------------------------------------------------------------
      1     -195.8063748709  -1.9882098E+02   1.6398210E-03
      2     -195.8063353961   3.9474804E-05   1.0077282E-03
      3     -195.7911661203   1.5169276E-02   6.0555190E-03
      4     -195.8050884203  -1.3922300E-02   1.6999864E-03
      5     -195.8063033344  -1.2149141E-03   4.4611426E-04
      6     -195.8063920684  -8.8734016E-05   1.0622116E-04
      7     -195.8063920263   4.2120945E-08   1.0043217E-04
      8     -195.8063940808  -2.0545226E-06   7.1028825E-05
      9     -195.8063952248  -1.1439574E-06   4.6108112E-05
     10     -195.8063956424  -4.1758315E-07   3.1027822E-05
     11     -195.8063958043  -1.6191427E-07   2.2907652E-05
     12     -195.8063959250  -1.2068688E-07   1.3855840E-05
------------------------------------------------------------

 total:                                   1.353 sec
 * total energy  :  -195.8063959 Eh     change       -0.1947983E-02 Eh
   gradient norm :     0.0122576 Eh/α   predicted    -0.1835354E-02 (  -5.78%)
   displ. norm   :     0.8340450 α      lambda       -0.2203615E-02
   maximum displ.:     0.4451343 α      in ANC's #6, #3, #8, ...

........................................................................
.............................. CYCLE   42 ..............................
........................................................................
------------------------------------------------------------
  cycle        total energy    energy error   density error
------------------------------------------------------------
      1     -195.8083021737  -1.9882504E+02   1.6307406E-03
      2     -195.8077561660   5.4600774E-04   1.4942208E-03
      3     -195.7913181435   1.6438022E-02   6.3771025E-03
      4     -195.8075559187  -1.6237775E-02   1.2734466E-03
      5     -195.8082106816  -6.5476284E-04   5.1091906E-04
      6     -195.8083131122  -1.0243057E-04   1.8953382E-04
      7     -195.8083246611  -1.1548964E-05   8.1780296E-05
      8     -195.8083267821  -2.1209616E-06   3.2264528E-05
      9     -195.8083271248  -3.4270067E-07   1.5289772E-05
------------------------------------------------------------

 total:                                   0.932 sec
 * total energy  :  -195.8083271 Eh     change       -0.1931200E-02 Eh
   gradient norm :     0.0114039 Eh/α   predicted    -0.1868261E-02 (  -3.26%)
   displ. norm   :     0.8614511 α      lambda       -0.2060447E-02
   maximum displ.:     0.4585584 α      in ANC's #6, #3, #8, ...
 * RMSD in coord.:     1.1824449 α      energy gain  -0.5566972E-01 Eh

generating ANC from exact Hessian ...
Using Lindh-Hessian (1995)
 Shifting diagonal of input Hessian by    1.0087962108540927E-002
 Lowest  eigenvalues of input Hessian
    0.010000    0.000000    0.000000    0.000000    0.000000    0.000000
    0.000000    0.010123    0.010145    0.010243    0.010268    0.010416
    0.010487    0.010553    0.010592    0.010824    0.010892    0.010950
 Highest eigenvalues
    2.089385    2.092960    2.187033    2.187492    2.201849    2.205705


........................................................................
.............................. CYCLE   43 ..............................
........................................................................
------------------------------------------------------------
  cycle        total energy    energy error   density error
------------------------------------------------------------
      1     -195.8101045990  -1.9882527E+02   1.6965170E-03
      2     -195.8016312238   8.4733752E-03   4.6339345E-03
      3     -195.8064241741  -4.7929503E-03   3.1516291E-03
      4     -195.8100713036  -3.6471295E-03   5.0334639E-04
      5     -195.8101643772  -9.3073624E-05   2.5129768E-04
      6     -195.8101727683  -8.3910274E-06   2.0399506E-04
      7     -195.8101871023  -1.4334003E-05   1.0247208E-04
      8     -195.8101907987  -3.6964122E-06   3.1506433E-05
      9     -195.8101909622  -1.6351632E-07   1.9931986E-05
------------------------------------------------------------

 total:                                   1.082 sec
 * total energy  :  -195.8101910 Eh     change       -0.1863837E-02 Eh
   gradient norm :     0.0125596 Eh/α   predicted     0.0000000E+00 (-100.00%)
   displ. norm   :     0.2176752 α      lambda       -0.8101213E-03
   maximum displ.:     0.1015262 α      in ANC's #7, #3, #1, ...

........................................................................
.............................. CYCLE   44 ..............................
........................................................................
------------------------------------------------------------
  cycle        total energy    energy error   density error
------------------------------------------------------------
      1     -195.8108675712  -1.9883097E+02   6.4932960E-04
      2     -195.8072619117   3.6056595E-03   2.9953071E-03
      3     -195.8107473446  -3.4854328E-03   6.8635827E-04
      4     -195.8107519465  -4.6019500E-06   5.4631145E-04
      5     -195.8108774976  -1.2555109E-04   2.0365098E-04
      6     -195.8108940800  -1.6582378E-05   9.1387879E-05
      7     -195.8108975637  -3.4836426E-06   3.2626388E-05
      8     -195.8108977739  -2.1028148E-07   2.2427164E-05
      9     -195.8108978818  -1.0790879E-07   1.4502305E-05
------------------------------------------------------------

 total:                                   1.033 sec
 * total energy  :  -195.8108979 Eh     change       -0.7069196E-03 Eh
   gradient norm :     0.0056090 Eh/α   predicted    -0.4242596E-03 ( -39.98%)
   displ. norm   :     0.6129059 α      lambda       -0.1686058E-02
   maximum displ.:     0.2895178 α      in ANC's #7, #3, #1, ...

........................................................................
.............................. CYCLE   45 ..............................
........................................................................
------------------------------------------------------------
  cycle        total energy    energy error   density error
------------------------------------------------------------
      1     -195.8122970386  -1.9883739E+02   1.3793454E-03
      2     -195.8122824587   1.4579939E-05   8.4444118E-04
      3     -195.8054967971   6.7856616E-03   4.0392542E-03
      4     -195.8111180869  -5.6212898E-03   1.6677421E-03
      5     -195.8122471744  -1.1290875E-03   3.5975219E-04
      6     -195.8123041591  -5.6984653E-05   1.2658007E-04
      7     -195.8123094055  -5.2464322E-06   6.5215155E-05
      8     -195.8123106865  -1.2809601E-06   3.0966585E-05
      9     -195.8123108561  -1.6964987E-07   2.1167058E-05
     10     -195.8123109453  -8.9200370E-08   1.4735551E-05
------------------------------------------------------------

 total:                                   1.096 sec
 * total energy  :  -195.8123109 Eh     change       -0.1413063E-02 Eh
   gradient norm :     0.0093774 Eh/α   predicted    -0.1159715E-02 ( -17.93%)
   displ. norm   :     0.7450679 α      lambda       -0.1632561E-02
   maximum displ.:     0.3531988 α      in ANC's #7, #3, #1, ...

........................................................................
.............................. CYCLE   46 ..............................
........................................................................
------------------------------------------------------------
  cycle        total energy    energy error   density error
------------------------------------------------------------
      1     -195.8138025662  -1.9883774E+02   1.5397461E-03
      2     -195.8124578481   1.3447181E-03   2.0681481E-03
      3     -195.8031929894   9.2648587E-03   5.1293472E-03
      4     -195.8136596655  -1.0466676E-02   6.0455026E-04
      5     -195.8138019790  -1.4231344E-04   2.2358314E-04
      6     -195.8138144527  -1.2473705E-05   1.3526327E-04
      7     -195.8138195017  -5.0489949E-06   8.7671100E-05
      8     -195.8138218079  -2.3061950E-06   5.4816106E-05
      9     -195.8138226420  -8.3412135E-07   2.8904749E-05
     10     -195.8138228401  -1.9808536E-07   1.7083018E-05
------------------------------------------------------------

 total:                                   1.048 sec
 * total energy  :  -195.8138228 Eh     change       -0.1511895E-02 Eh
   gradient norm :     0.0145177 Eh/α   predicted    -0.1269508E-02 ( -16.03%)
   displ. norm   :     0.8298133 α      lambda       -0.1860361E-02
   maximum displ.:     0.3974866 α      in ANC's #7, #3, #1, ...

........................................................................
.............................. CYCLE   47 ..............................
........................................................................
------------------------------------------------------------
  cycle        total energy    energy error   density error
------------------------------------------------------------
      1     -195.8155117605  -1.9883444E+02   1.6887987E-03
      2     -195.8063768547   9.1349058E-03   4.8736184E-03
[...]
   the Free Software Foundation, either version 3 of the License, or
   (at your option) any later version.
   
   xtb is distributed in the hope that it will be useful,
   but WITHOUT ANY WARRANTY; without even the implied warranty of
   MERCHANTABILITY or FITNESS FOR A PARTICULAR PURPOSE.  See the
   GNU Lesser General Public License for more details.
   
   Cite this work as:
   * C. Bannwarth, E. Caldeweyher, S. Ehlert, A. Hansen, P. Pracht,
     J. Seibert, S. Spicher, S. Grimme, WIREs Comput. Mol. Sci., 2020, 11,
     e01493. DOI: 10.1002/wcms.1493
   
   for GFN2-xTB:
   * C. Bannwarth, S. Ehlert and S. Grimme., J. Chem. Theory Comput., 2019,
     15, 1652-1671. DOI: 10.1021/acs.jctc.8b01176
   for GFN1-xTB:
   * S. Grimme, C. Bannwarth, P. Shushkov, J. Chem. Theory Comput., 2017,
     13, 1989-2009. DOI: 10.1021/acs.jctc.7b00118
   for GFN0-xTB:
   * P. Pracht, E. Caldeweyher, S. Ehlert, S. Grimme, ChemRxiv, 2019, preprint.
     DOI: 10.26434/chemrxiv.8326202.v1
   for GFN-FF:
   * S. Spicher and S. Grimme, Angew. Chem. Int. Ed., 2020, 59, 15665-15673.
     DOI: 10.1002/anie.202004239
   
   for ALPB and GBSA implicit solvation:
   * S. Ehlert, M. Stahn, S. Spicher, S. Grimme, J. Chem. Theory Comput.,
     2021, 17, 4250-4261. DOI: 10.1021/acs.jctc.1c00471
   
   for ddCOSMO and CPCM-X implicit solvation:
   * M. Stahn, S. Ehlert, S. Grimme, J. Phys. Chem. A,
     2023, XX, XXXX-XXXX. DOI: 10.1021/acs.jpca.3c04382
   
   for DFT-D4:
   * E. Caldeweyher, C. Bannwarth and S. Grimme, J. Chem. Phys., 2017,
     147, 034112. DOI: 10.1063/1.4993215
   * E. Caldeweyher, S. Ehlert, A. Hansen, H. Neugebauer, S. Spicher,
     C. Bannwarth and S. Grimme, J. Chem. Phys., 2019, 150, 154122.
     DOI: 10.1063/1.5090222
   * E. Caldeweyher, J.-M. Mewes, S. Ehlert and S. Grimme, Phys. Chem. Chem. Phys.
     2020, 22, 8499-8512. DOI: 10.1039/D0CP00502A
   
   for sTDA-xTB:
   * S. Grimme and C. Bannwarth, J. Chem. Phys., 2016, 145, 054103.
     DOI: 10.1063/1.4959605
   
   in the mass-spec context:
   * V. Asgeirsson, C. Bauer and S. Grimme, Chem. Sci., 2017, 8, 4879.
     DOI: 10.1039/c7sc00601b
   * J. Koopman and S. Grimme, ACS Omega 2019, 4, 12, 15120-15133.
     DOI: 10.1021/acsomega.9b02011
   
   for metadynamics refer to:
   * S. Grimme, J. Chem. Theory Comput., 2019, 155, 2847-2862
     DOI: 10.1021/acs.jctc.9b00143
   
   for SPH calculations refer to:
   * S. Spicher and S. Grimme, J. Chem. Theory Comput., 2021, 17, 1701-1714
     DOI: 10.1021/acs.jctc.0c01306
   
   for ONIOM refer to:
   * C. Plett, A. Katbashev, S. Ehlert, S. Grimme, M. Bursch,
     Phys. Chem. Chem. Phys., 2023, 25, 17860-17868. DOI: 10.1039/D3CP02178E
   
   for DIPRO refer to:
   * J. Kohn, N. Gildemeister, S. Grimme, D. Fazzi, A. Hansen,
     J. Chem. Phys., 2023, just accepted.
   
   for PTB refer to:
   * S. Grimme, M. Mueller, A. Hansen, J. Chem. Phys., 2023, 158, 124111.
     DOI: 10.1063/5.0137838
   
   with help from (in alphabetical order)
   P. Atkinson, C. Bannwarth, F. Bohle, G. Brandenburg, E. Caldeweyher
   M. Checinski, S. Dohm, S. Ehlert, S. Ehrlich, I. Gerasimov, C. Hölzer
   A. Katbashev, J. Kohn, J. Koopman, C. Lavigne, S. Lehtola, F. März, M. Müller,
   F. Musil, H. Neugebauer, J. Pisarek, C. Plett, P. Pracht, F. Pultar,
   J. Seibert, P. Shushkov, S. Spicher, M. Stahn, M. Steiner, T. Strunk,
   J. Stückrath, T. Rose, and J. Unsleber
   
 * started run on 2025/02/24 at 10:20:42.406     
   ID    Z sym.   atoms
    1    6 C      1-9, 11, 12, 14-21, 25-33, 35, 36, 38-45, 48-71, 138-146,
                  148, 149, 151-158, 162-170, 172, 173, 175-182, 185-208
    2    7 N      10, 13, 34, 37, 147, 150, 171, 174
    3    8 O      22, 23, 46, 47, 159, 160, 183, 184
    4    5 B      24, 161
    5    1 H      72-137, 209-274

           -------------------------------------------------
          |                Calculation Setup                |
           -------------------------------------------------

          program call               : xtb opt_dimer.mol --dipro 0.3 --chrg 0 --uhf 2 --spinpol --tblite
          coordinate file            : opt_dimer.mol
          omp threads                :                     8


molecular fragmentation (1/2 indicates fragments):
111111111111111111111111111111111111111111111111111111111111111111111111
111111111111111111111111111111111111111111111111111111111111111112222222
222222222222222222222222222222222222222222222222222222222222222222222222
2222222222222222222222222222222222222222222222222222222222
# atoms in fragment 1/2:   137   137
 fragment masses (1/2) :      942.03      942.03
CMA distance (Bohr)    :  10.547
constraining FC (au)   :  0.0500
Wavefunction read from restart file
           -------------------------------------------------
          |                    D I P R O                    |
           -------------------------------------------------
Calculation for dimer 
--------------------- 
  
charge of dimer :   0.
unpaired e- of dimer :  2
repulsion energy          6.0548296230600E+00 Eh
dispersion energy         4.1601506840461E-02 Eh
number of electrons       7.2200000000000E+02 e
integral cutoff           1.9311100799991E+01 bohr

------------------------------------------------------------
  cycle        total energy    energy error   density error
------------------------------------------------------------
      1     -390.5685041227  -3.9666494E+02   1.3763415E-01
      2     -391.5331180689  -9.6461395E-01   7.1686834E-02
      3     -391.2448854173   2.8823265E-01   4.5291125E-02
      4     -391.0837512226   1.6113419E-01   3.5000418E-02
      5     -391.2554176352  -1.7166641E-01   2.6484230E-02
      6     -391.4581459329  -2.0272830E-01   1.7834665E-02
      7     -391.3619193241   9.6226609E-02   1.9333577E-02
      8     -391.7059669775  -3.4404765E-01   1.0247536E-02
      9     -391.7543913160  -4.8424338E-02   6.8440857E-03
     10     -391.7644181689  -1.0026853E-02   5.7841933E-03
     11     -391.7748656628  -1.0447494E-02   2.9170417E-03
     12     -391.7744339018   4.3176104E-04   2.9067288E-03
     13     -391.7768121782  -2.3782764E-03   2.0501070E-03
     14     -391.7791790093  -2.3668312E-03   7.2640982E-04
     15     -391.7794343125  -2.5530311E-04   4.1853805E-04
     16     -391.7794993910  -6.5078511E-05   2.3383091E-04
     17     -391.7794863731   1.3017836E-05   2.4713933E-04
     18     -391.7795071482  -2.0775103E-05   1.4074704E-04
     19     -391.7795137769  -6.6286170E-06   5.9923417E-05
     20     -391.7795149032  -1.1263786E-06   2.6189715E-05
     21     -391.7795152440  -3.4078653E-07   1.1855445E-05
------------------------------------------------------------

electronic energy        -3.9787594637392E+02 Eh
total energy             -3.9177951524402E+02 Eh

 total:                                   4.098 sec
 - repulsion                              0.000 sec (  0%)
 - dispersion                             0.025 sec (  0%)
 - coulomb                                0.007 sec (  0%)
 - hamiltonian                            0.022 sec (  0%)
 - scc                                    4.044 sec ( 98%)

Found 2 fragments!
Fragment 1:  1-137
Fragment 2:  138-274

[Info] Fragment spin read from .UHFfrag
Calculation for fragment 1
 ------------------------------
   
charge of fragment :   0.
unpaired e- of fragment :  1
------------------------------------------------------------
  cycle        total energy    energy error   density error
------------------------------------------------------------
      1     -195.2412356170  -1.9827155E+02   1.3800096E-01
      2     -195.6983693223  -4.5713371E-01   7.2390731E-02
      3     -195.2147405175   4.8362880E-01   5.3289379E-02
      4     -195.2122122475   2.5282700E-03   4.1422912E-02
      5     -195.7318242747  -5.1961203E-01   2.2285065E-02
      6     -195.8043639511  -7.2539676E-02   1.4266880E-02
      7     -195.8273036444  -2.2939693E-02   1.0403205E-02
      8     -195.8512268763  -2.3923232E-02   4.6855458E-03
      9     -195.8529777504  -1.7508742E-03   3.2308938E-03
     10     -195.8494960335   3.4817169E-03   3.7425228E-03
     11     -195.8528173221  -3.3212886E-03   1.9967901E-03
     12     -195.8541771499  -1.3598278E-03   5.7607638E-04
     13     -195.8542581272  -8.0977233E-05   2.9746712E-04
     14     -195.8542693273  -1.1200107E-05   1.5900211E-04
     15     -195.8542751478  -5.8204974E-06   4.6970443E-05
     16     -195.8542751295   1.8241906E-08   3.3963734E-05
     17     -195.8542754451  -3.1560134E-07   8.2511361E-06
------------------------------------------------------------

 total:                                   0.946 sec
Calculation for fragment 2
 ------------------------------
   
charge of fragment :   0.
unpaired e- of fragment :  1
------------------------------------------------------------
  cycle        total energy    energy error   density error
------------------------------------------------------------
      1     -195.2410794977  -1.9827120E+02   1.3759738E-01
      2     -195.6972343386  -4.5615484E-01   7.1982437E-02
      3     -195.2127145637   4.8451977E-01   5.3348748E-02
      4     -195.2134836198  -7.6905610E-04   4.1183885E-02
      5     -195.7347405818  -5.2125696E-01   2.2202991E-02
      6     -195.8084621940  -7.3721612E-02   1.3530668E-02
      7     -195.8221484749  -1.3686281E-02   1.1021865E-02
      8     -195.8501399221  -2.7991447E-02   4.9186285E-03
      9     -195.8520109141  -1.8709919E-03   3.6485033E-03
     10     -195.8475414374   4.4694767E-03   4.4578248E-03
     11     -195.8531329529  -5.5915155E-03   1.7107801E-03
     12     -195.8540938732  -9.6092023E-04   4.9846308E-04
     13     -195.8541431708  -4.9297637E-05   2.6504971E-04
     14     -195.8541342169   8.9539148E-06   2.4775724E-04
     15     -195.8541488094  -1.4592520E-05   1.2169739E-04
     16     -195.8541535349  -4.7255256E-06   4.9285997E-05
     17     -195.8541534509   8.3998998E-08   5.1021936E-05
     18     -195.8541543618  -9.1083271E-07   1.8785309E-05
------------------------------------------------------------

 total:                                   0.897 sec
   
   ::::::::::::::::::::::::::::::::::::::::::::::
   ::     D I P R O      C O U P L I N G S     ::
   ::::::::::::::::::::::::::::::::::::::::::::::
   
energy threshhold for near-degenerate orbitals near HOMO and LUMO considered for DIPRO:  0.300 eV
no. of orbitals within energy window of frag 1         6
no. of orbitals within energy window of frag 2         6
   
  Fragment 1 SOMO-3  Fragment 2 SOMO-3
--------------------------------------
E_mon(orb) frag1 frag2              -9.757    -9.756 eV
J(AB):               -0.045 eV
S(AB):             0.00175155 Eh
|J(AB,eff)|:            0.028 eV
   
  Fragment 1 SOMO-3  Fragment 2 SOMO-2
--------------------------------------
E_mon(orb) frag1 frag2              -9.757    -9.745 eV
J(AB):               -0.017 eV
S(AB):             0.00067051 Eh
|J(AB,eff)|:            0.011 eV
   
  Fragment 1 SOMO-3  Fragment 2 SOMO-1
--------------------------------------
E_mon(orb) frag1 frag2              -9.757    -9.700 eV
J(AB):               -0.016 eV
S(AB):             0.00061688 Eh
|J(AB,eff)|:            0.010 eV
   
  Fragment 1 SOMO-3  Fragment 2 SOMO 
--------------------------------------
E_mon(orb) frag1 frag2              -9.757    -9.609 eV
J(AB):               -0.006 eV
S(AB):             0.00019511 Eh
|J(AB,eff)|:            0.005 eV
   
  Fragment 1 SOMO-3  Fragment 2 LUMO 
--------------------------------------
E_mon(orb) frag1 frag2              -9.757    -9.274 eV
J(AB):               -0.024 eV
S(AB):             0.00091400 Eh
|J(AB,eff)|:            0.016 eV
   
  Fragment 1 SOMO-3  Fragment 2 LUMO+1
--------------------------------------
E_mon(orb) frag1 frag2              -9.757    -9.237 eV
J(AB):                0.002 eV
S(AB):            -0.00015176 Eh
|J(AB,eff)|:            0.000 eV
   
  Fragment 1 SOMO-2  Fragment 2 SOMO-3
--------------------------------------
E_mon(orb) frag1 frag2              -9.745    -9.756 eV
J(AB):                0.017 eV
S(AB):            -0.00065767 Eh
|J(AB,eff)|:            0.011 eV
   
  Fragment 1 SOMO-2  Fragment 2 SOMO-2
--------------------------------------
E_mon(orb) frag1 frag2              -9.745    -9.745 eV
J(AB):                0.005 eV
S(AB):            -0.00023091 Eh
|J(AB,eff)|:            0.003 eV
   
  Fragment 1 SOMO-2  Fragment 2 SOMO-1
--------------------------------------
E_mon(orb) frag1 frag2              -9.745    -9.700 eV
J(AB):                0.002 eV
S(AB):            -0.00001666 Eh
|J(AB,eff)|:            0.002 eV
   
  Fragment 1 SOMO-2  Fragment 2 SOMO 
--------------------------------------
E_mon(orb) frag1 frag2              -9.745    -9.609 eV
J(AB):                0.010 eV
S(AB):            -0.00039473 Eh
|J(AB,eff)|:            0.006 eV
   
  Fragment 1 SOMO-2  Fragment 2 LUMO 
--------------------------------------
E_mon(orb) frag1 frag2              -9.745    -9.274 eV
J(AB):                0.003 eV
S(AB):            -0.00003343 Eh
|J(AB,eff)|:            0.002 eV
   
  Fragment 1 SOMO-2  Fragment 2 LUMO+1
--------------------------------------
E_mon(orb) frag1 frag2              -9.745    -9.237 eV
J(AB):               -0.006 eV
S(AB):             0.00020565 Eh
|J(AB,eff)|:            0.004 eV
   
  Fragment 1 SOMO-1  Fragment 2 SOMO-3
--------------------------------------
E_mon(orb) frag1 frag2              -9.700    -9.756 eV
J(AB):               -0.016 eV
S(AB):             0.00061410 Eh
|J(AB,eff)|:            0.010 eV
   
  Fragment 1 SOMO-1  Fragment 2 SOMO-2
--------------------------------------
E_mon(orb) frag1 frag2              -9.700    -9.745 eV
J(AB):               -0.002 eV
S(AB):             0.00002601 Eh
|J(AB,eff)|:            0.002 eV
   
  Fragment 1 SOMO-1  Fragment 2 SOMO-1
--------------------------------------
E_mon(orb) frag1 frag2              -9.700    -9.700 eV
J(AB):               -0.002 eV
S(AB):             0.00001401 Eh
|J(AB,eff)|:            0.002 eV
   
  Fragment 1 SOMO-1  Fragment 2 SOMO 
--------------------------------------
E_mon(orb) frag1 frag2              -9.700    -9.609 eV
J(AB):               -0.005 eV
S(AB):             0.00020391 Eh
|J(AB,eff)|:            0.003 eV
   
  Fragment 1 SOMO-1  Fragment 2 LUMO 
--------------------------------------
E_mon(orb) frag1 frag2              -9.700    -9.274 eV
J(AB):               -0.013 eV
S(AB):             0.00051908 Eh
|J(AB,eff)|:            0.008 eV
   
  Fragment 1 SOMO-1  Fragment 2 LUMO+1
--------------------------------------
E_mon(orb) frag1 frag2              -9.700    -9.237 eV
J(AB):               -0.005 eV
S(AB):             0.00021157 Eh
|J(AB,eff)|:            0.003 eV
   
  Fragment 1 SOMO   Fragment 2 SOMO-3
--------------------------------------
E_mon(orb) frag1 frag2              -9.609    -9.756 eV
J(AB):                0.006 eV
S(AB):            -0.00017708 Eh
|J(AB,eff)|:            0.004 eV
   
  Fragment 1 SOMO   Fragment 2 SOMO-2
--------------------------------------
E_mon(orb) frag1 frag2              -9.609    -9.745 eV
J(AB):                0.010 eV
S(AB):            -0.00038066 Eh
|J(AB,eff)|:            0.006 eV
   
  Fragment 1 SOMO   Fragment 2 SOMO-1
--------------------------------------
E_mon(orb) frag1 frag2              -9.609    -9.700 eV
J(AB):                0.006 eV
S(AB):            -0.00022628 Eh
|J(AB,eff)|:            0.003 eV
   
  Fragment 1 SOMO   Fragment 2 SOMO 
--------------------------------------
E_mon(orb) frag1 frag2              -9.609    -9.609 eV
J(AB):               -0.082 eV
S(AB):             0.00314266 Eh
|J(AB,eff)|:            0.052 eV
   
  Fragment 1 SOMO   Fragment 2 LUMO 
--------------------------------------
E_mon(orb) frag1 frag2              -9.609    -9.274 eV
J(AB):               -0.006 eV
S(AB):             0.00030315 Eh
|J(AB,eff)|:            0.003 eV
   
  Fragment 1 SOMO   Fragment 2 LUMO+1
--------------------------------------
E_mon(orb) frag1 frag2              -9.609    -9.237 eV
J(AB):                0.024 eV
S(AB):            -0.00086488 Eh
|J(AB,eff)|:            0.015 eV
   
  Fragment 1 LUMO   Fragment 2 SOMO-3
--------------------------------------
E_mon(orb) frag1 frag2              -9.274    -9.756 eV
J(AB):                0.024 eV
S(AB):            -0.00091378 Eh
|J(AB,eff)|:            0.016 eV
   
  Fragment 1 LUMO   Fragment 2 SOMO-2
--------------------------------------
E_mon(orb) frag1 frag2              -9.274    -9.745 eV
J(AB):                0.002 eV
S(AB):            -0.00002143 Eh
|J(AB,eff)|:            0.002 eV
   
  Fragment 1 LUMO   Fragment 2 SOMO-1
--------------------------------------
E_mon(orb) frag1 frag2              -9.274    -9.700 eV
J(AB):                0.014 eV
S(AB):            -0.00053065 Eh
|J(AB,eff)|:            0.009 eV
   
  Fragment 1 LUMO   Fragment 2 SOMO 
--------------------------------------
E_mon(orb) frag1 frag2              -9.274    -9.609 eV
J(AB):               -0.006 eV
S(AB):             0.00029474 Eh
|J(AB,eff)|:            0.003 eV
   
  Fragment 1 LUMO   Fragment 2 LUMO 
--------------------------------------
E_mon(orb) frag1 frag2              -9.274    -9.274 eV
J(AB):                0.083 eV
S(AB):            -0.00351566 Eh
|J(AB,eff)|:            0.051 eV
   
  Fragment 1 LUMO   Fragment 2 LUMO+1
--------------------------------------
E_mon(orb) frag1 frag2              -9.274    -9.237 eV
J(AB):                0.002 eV
S(AB):            -0.00009136 Eh
|J(AB,eff)|:            0.001 eV
   
  Fragment 1 LUMO+1  Fragment 2 SOMO-3
--------------------------------------
E_mon(orb) frag1 frag2              -9.236    -9.756 eV
J(AB):                0.001 eV
S(AB):            -0.00013703 Eh
|J(AB,eff)|:            0.000 eV
   
  Fragment 1 LUMO+1  Fragment 2 SOMO-2
--------------------------------------
E_mon(orb) frag1 frag2              -9.236    -9.745 eV
J(AB):                0.005 eV
S(AB):            -0.00019035 Eh
|J(AB,eff)|:            0.003 eV
   
  Fragment 1 LUMO+1  Fragment 2 SOMO-1
--------------------------------------
E_mon(orb) frag1 frag2              -9.236    -9.700 eV
J(AB):               -0.005 eV
S(AB):             0.00022986 Eh
|J(AB,eff)|:            0.003 eV
   
  Fragment 1 LUMO+1  Fragment 2 SOMO 
--------------------------------------
E_mon(orb) frag1 frag2              -9.236    -9.609 eV
J(AB):               -0.024 eV
S(AB):             0.00086469 Eh
|J(AB,eff)|:            0.015 eV
   
  Fragment 1 LUMO+1  Fragment 2 LUMO 
--------------------------------------
E_mon(orb) frag1 frag2              -9.236    -9.274 eV
J(AB):               -0.003 eV
S(AB):             0.00012502 Eh
|J(AB,eff)|:            0.001 eV
   
  Fragment 1 LUMO+1  Fragment 2 LUMO+1
--------------------------------------
E_mon(orb) frag1 frag2              -9.236    -9.237 eV
J(AB):                0.085 eV
S(AB):            -0.00354479 Eh
|J(AB,eff)|:            0.052 eV
   
..............................................................................
:  total |J(AB,eff)| for hole transport (occ. MOs) :               0.063 eV  :
:  total |J(AB,eff)| for charge transport (unocc. MOs) :           0.073 eV  :
:  total |J(AB,eff)| for charge transfer (CT) :                    0.034 eV  :
..............................................................................
  
 Please remember, DIPRO is not available for restart!
   
normal termination of dipro
----------------------------------------------------------
 * finished run on 2025/02/24 at 10:20:48.393     
----------------------------------------------------------
 dipro:
 * wall-time:     0 d,  0 h,  0 min,  5.976 sec
 *  cpu-time:     0 d,  0 h,  0 min, 20.228 sec
 * ratio c/w:     3.385 speedup
Reorganization energy (electron): 0.030406439483314472 eV
Reorganization energy (hole): 0.03641457573088677 eV
Electron Transfer integral J: 0.073 eV
Hole Transfer integral J: 0.063 eV
