116
 energy: -22.928061455056 gnorm: 0.329736929581 xtb: 6.6.1 (8d0f1dd)
C           -3.31122850772930        0.79849766164622       -0.92477639677520
C           -2.44380812530352       -0.12270372891954       -0.27661132624697
C           -1.41337090092821        0.39579727573559        0.56335275196199
C           -0.89266158675590        1.65801491088749        0.27377586709581
C           -1.72665675402493        2.51431363229076       -0.49448366572522
C           -2.95444148494349        2.13954154133227       -1.01494489940871
C           -0.74098268209890       -0.43411532818871        1.49825021926784
C            0.56872586496315        0.03782116815119        1.86248088067890
C            1.03782416582094        1.29402317993033        1.50887470833621
N            0.31238977034758        2.07067427098208        0.65193736800696
C           -1.29695700510141       -1.39996043042223        2.41574187746061
C           -0.38243517664656       -2.18060797534842        3.13232615520648
N            0.91308504082021       -1.90366887689689        3.30325166013478
C            1.37712470144904       -0.74872102533751        2.81811050966982
C            2.52149331701875       -0.17739833758153        3.39379298866852
C            2.95849061756259        1.02681208890480        2.95105897606587
C            2.24288949469137        1.78498308775960        2.03503020483770
C           -2.74860936222260       -1.74497937691422        2.38401158947411
C           -3.09416315450955       -2.91614440870436        3.00571134491758
C           -2.16786021984049       -3.77788778654213        3.63251872101904
C           -0.85708937311598       -3.40495313382985        3.68547234358092
O           -3.71994433332149       -0.94984598373544        1.67726658385724
O           -2.55702603277562       -1.47241711578389       -0.57241635275616
C           -3.84297843593025        3.13357444054366       -1.60938954875544
C           -2.68769581069131       -5.03867041417370        4.30484659386931
H           -1.39666850744143        3.51251503834900       -0.76806311868865
H           -4.27662633836220        0.55105838579656       -1.33106614114542
H            2.66329581305412        2.73912661909249        1.72562431984580
H            3.05775395548473       -0.69369546277216        4.16536137542516
H           -0.24710966264510       -4.12034095424229        4.22946223699121
H           -4.11477991332403       -3.04712728052358        3.03244694615357
O           -4.21824883374556        4.03433712717988       -0.87713382485991
O           -4.44510595673734        2.90643496899600       -2.81853501752979
C           -5.44216520282800        3.83300025693726       -3.02488532025093
C            4.23586651889298        1.50004220933226        3.59165660008449
O            5.05927614697201        0.66079890002952        3.91714215179376
O            4.47001334453535        2.86385149488593        3.72605651435371
C            5.79457498613219        3.08584475587818        4.15829123132174
O           -3.82227255313510       -5.27347675879771        4.16636005494405
O           -1.85023202017753       -5.79767454267276        5.06656077253571
C           -2.55119635829503       -6.86252441382958        5.62930343183426
C           -5.07197156564436       -1.42399175670916        1.58830531863830
C           -1.33089900128490       -2.23622472573986       -0.99264499351172
H           -2.54510546830388       -7.76426885143998        4.99136022291012
H           -3.57194749219491       -6.44405511486021        5.74196173723541
H           -2.09133598235598       -7.02043774843818        6.64022264233588
H            5.72707967266424        3.46798026205549        5.10135971236643
H            6.34060091246885        3.78468702308830        3.50069950143490
H            6.17933064298187        2.03010500085905        4.19342358084693
H           -0.91862729772622       -2.57650129080332       -0.01361370304871
H           -0.49769766914251       -1.60651221708571       -1.34094446550576
H           -1.52632419730509       -2.94569707152159       -1.75361447637286
H           -5.11788846557077       -2.41810833635233        1.17520213188926
H           -5.67929807973498       -0.69619639428435        1.04301666067831
H           -5.57598832326623       -1.42383358739762        2.57928294206544
H           -6.13050215934830        3.76035386975488       -2.23272855695873
H           -5.86615610071888        3.45938329385866       -4.02668959924245
H           -5.13479557532099        4.87790991548477       -2.98314551356402
C           -1.38192942069774        3.73616555005018        2.91232598411686
C           -1.84821468128685        2.59982427735607        3.49755545445181
C           -1.05946531454833        2.05730632010638        4.60922730982276
C            0.19893954712228        2.69376791964407        4.86302140881997
C            0.50425395911860        3.94630308659851        4.28768785650746
C           -0.26031777722226        4.46998310053134        3.25072669343212
C           -1.20488993561782        0.74454293276906        5.14851520323437
C           -0.06287609782692        0.02744069315890        5.60930570802864
C            1.19208754369866        0.71421540266195        5.78882868583885
N            1.19428660993148        2.06344359410476        5.62744624321596
C           -2.41361422770794        0.07928500213936        5.25249410304426
C           -2.45851584031083       -1.32662100968547        5.60237876023992
N           -1.29466212405906       -1.98318595734370        5.89916817085159
C           -0.14475655767527       -1.32117560077092        5.98824682881008
C            0.97209270935794       -1.98958449505532        6.53157704134458
C            2.21982707914082       -1.36973967291181        6.68703967237737
C            2.30561929262884       -0.09745313075593        6.26436900324455
C           -3.73018485967715        0.71367583494582        5.25810242262992
C           -4.89964478833448       -0.06184623426677        5.21204641615509
C           -4.82617965800088       -1.39228978090841        5.46901303780036
C           -3.67144193418464       -1.98914944386360        5.67265433266067
O           -3.75568638935321        2.07705011038914        5.52067969627343
O           -2.94192434743730        1.91263938797883        3.01658762327703
C            0.21273512614467        5.50086066357994        2.34765104514621
C           -6.06660304520411       -2.17604633098929        5.80641622556876
H            1.41756699010566        4.38133362238595        4.66974005703471
H           -1.82880610647429        4.11982501512100        2.06992133318584
H            3.26888037378556        0.32655662585251        6.31721410015598
H            0.87146188387207       -3.08471526305024        6.57830423410869
H           -3.67716811065157       -3.05999292755990        5.83019634570050
H           -5.77379677507622        0.43595144608221        4.71017130754348
O            1.34459852619901        5.82615848916894        2.44941456579099
O           -0.74718748219123        6.07961784856304        1.59848183464284
C           -0.21473095568964        7.24015934882472        1.05753806029483
C            3.53228080814219       -2.00967610361154        7.02506769044485
O            3.64093082622715       -3.14437803815732        7.50071391725347
O            4.56565258381079       -1.22937033368332        6.69086985080897
C            5.72579357310716       -1.80692399125161        7.22246151275881
O           -7.04801223588612       -1.95726935745904        5.14194115322235
O           -6.01514389321278       -2.93743591896022        6.94765316328794
C           -7.21292732384718       -3.62681918543340        7.15115816329978
C           -4.95459780685163        2.65960679932188        5.86868674392943
C           -3.68284113682406        2.59129188358641        2.05479246020704
H           -7.43119628931628       -4.22607794725959        6.20622607140901
H           -8.06548455146707       -2.91765848248592        7.29781126410398
H           -7.07314693247270       -4.33087306029711        7.91223421050944
H            6.57332189837178       -1.29353136199234        6.78341268688262
H            5.74663761932316       -2.84282155125561        6.88089468184451
H            5.69426191474290       -1.72781984964892        8.29460302186842
H           -4.10481209541493        3.44288266176275        2.60483747673152
H           -4.49244774344916        1.87419893016926        1.82433103764650
H           -3.18901540870812        2.85154642679373        1.06781919454921
H           -5.55414326821421        2.76698137191684        4.93950725322359
H           -4.78658370641210        3.62090640967288        6.25983200635257
H           -5.43485580473958        1.97242995129449        6.65265772412460
H            0.89164886030839        7.38838561720231        1.13776105146914
H           -0.62894889903848        8.04195665205089        1.64837664327952
H           -0.59282546386754        7.45699159724320        0.03719083132488
116
 energy: -22.700901892055 gnorm: 0.508070610176 xtb: 6.6.1 (8d0f1dd)
C           -3.02668141593891        0.74404182616376       -1.41573451878977
C           -2.42585008680106       -0.07567088935247       -0.43267285230959
C           -1.55147393218389        0.52672990616177        0.54319865726733
C           -0.89160205340120        1.70609571370868        0.06618013238568
C           -1.50107912534015        2.68320750160957       -0.82597374239259
C           -2.51151312642891        2.06296653184218       -1.57082663120772
C           -0.94812669169745       -0.24260382717238        1.62806170785732
C            0.32813354746591        0.11196236643124        2.02395100779012
C            0.89995455117510        1.26118699149568        1.41229896450694
N            0.26863688046515        2.17726195525610        0.58692652655865
C           -1.56266514606914       -1.34923773371534        2.38197002159181
C           -0.81665983282022       -2.16483532590422        3.23281551653934
N            0.46049876412580       -1.83383906890770        3.41983049881093
C            1.00822231882571       -0.76199983026171        2.86675589234230
C            2.32685952372755       -0.41407423196525        3.20930237367102
C            2.84113411465943        0.80334415503060        2.77825654878920
C            2.08055054534190        1.67896772686642        1.98940542360628
C           -2.94656111601719       -1.67861092731993        2.22659558360041
C           -3.46985923049510       -2.84202542676875        2.82126401371257
C           -2.76807560125432       -3.54939603092426        3.84461412500352
C           -1.46613290808245       -3.05929913801050        4.06762904285655
O           -3.59911989944023       -0.83290020204018        1.40779199335756
O           -2.49607369583570       -1.49945442134446       -0.64802045545266
C           -3.06612079553610        3.09577795453497       -2.47715825795550
C           -3.22112951523159       -4.69429727848177        4.47272495103707
H           -1.05882547539705        3.66248104010518       -0.99179691057161
H           -3.70713927001103        0.28754194101973       -2.05664465770991
H            2.43135674661855        2.52644349788324        1.61938653227347
H            2.91136871929694       -1.06000805787064        3.93070052233261
H           -0.75383170821458       -3.54332159392402        4.80480466203738
H           -4.31838587158724       -3.26719889358725        2.28719286542247
O           -2.26282434027684        3.86579011686616       -2.86191469387610
O           -4.36458639783017        2.91350314204925       -2.70676029492746
C           -4.50841625229170        3.90717362548266       -3.86586883006268
C            4.16945465203263        0.94077490701182        3.40360947622181
O            4.66708586853199        0.06705556848754        4.14068274185449
O            4.74586205115280        2.05850474139020        2.92627532582447
C            6.27071687705189        2.11971894498738        2.99094910058782
O           -4.13349149154933       -5.38103644344483        3.92453077979466
O           -2.43298727357860       -5.02091916740583        5.56336038015496
C           -2.99727841157161       -6.08538759022795        6.30940577603998
C           -5.09447015491362       -0.95283862390903        1.41569830625032
C           -1.79886588225827       -1.95882133051579       -1.83508384341976
H           -2.84359793363321       -7.07489980020722        5.72655834950766
H           -4.00975317992555       -5.95496816614390        6.32446436206771
H           -2.58317877167355       -6.04491647707184        7.25639814967414
H            6.74712606874877        1.10943521651534        3.10281552667918
H            6.72010472043880        2.67066023083587        3.68396539766874
H            6.65312529976665        2.61721592598117        2.05067647908184
H           -1.68334713244993       -3.08342414407655       -1.82620395573386
H           -0.79904775587719       -1.45667656540688       -1.58361840238020
H           -1.94042313225215       -1.55392005396463       -2.82027523675008
H           -5.25207749832781       -1.92478924743362        0.93176724706841
H           -5.59991229058241       -0.07032946907538        1.16595401012283
H           -5.31273002769806       -1.04796095851102        2.49226394463717
H           -5.01124823900416        4.81044599988872       -3.51716593414740
H           -5.34939918463107        3.38787768417583       -4.53804962460651
H           -3.64657994628142        3.80617784690311       -4.47683868821801
C           -2.04778024255212        3.83913626340704        3.86706682603112
C           -2.17704059661147        2.47321512877087        4.11494233252876
C           -1.00330256384678        1.72334214847492        4.55603504753701
C            0.27703782377602        2.46455972714851        4.50780749057580
C            0.28724989689223        3.77137296123404        4.09768808215462
C           -0.82218928819159        4.42724416715299        3.76104176391497
C           -1.07851913201284        0.67294596251877        5.56877387401280
C            0.19269444723843        0.00029134584276        5.80817111002952
C            1.38404022712408        0.69554022806247        5.51684605319961
N            1.40358990299485        1.91121616838116        4.98239796866339
C           -2.26225245152133        0.00308959896756        6.19382433212010
C           -2.11348531107184       -1.33307793758520        6.62984519050529
N           -0.94005294017288       -1.88054609634669        7.04607874751426
C            0.18918403856521       -1.19873786561882        6.61094133486519
C            1.46015675689158       -1.53880604803007        7.08640914850053
C            2.63087625371818       -0.91566255130494        6.76545256020572
C            2.67531636459042        0.29909056735247        6.13804304127198
C           -3.55354406819546        0.68378004816144        6.23417320807701
C           -4.62606997891453       -0.13109235541782        5.85297044268882
C           -4.53096648665560       -1.54148751725719        5.86167774063992
C           -3.43873228205894       -2.15927923036626        6.61067010077174
O           -3.65772019619446        2.04139127010321        6.54766628312921
O           -3.19294834394402        1.54858245399402        3.88602462638880
C           -0.68444872659386        5.69759582283778        2.99266014761282
C           -5.72971730183559       -2.22865282467007        5.42462738782981
H            1.18189827407249        4.42891749442165        3.96376432473830
H           -2.80925970063622        4.33564061801425        3.33928207452014
H            3.60415388514205        0.77686759160827        5.93999148277244
H            1.65890129456047       -2.42879423032777        7.65751227507604
H           -3.44756041244358       -3.21083042563353        6.83632879259226
H           -5.44151434102573        0.23573150380467        5.36683499721430
O            0.13575005497257        6.52851154220772        3.36316284265679
O           -1.38187700038361        5.83531573911072        1.82279499628415
C           -1.36398125088099        7.20979276375207        1.28632590896355
C            3.92850851235163       -1.63359748485310        7.05859563315721
O            4.01817969002692       -2.89060878150773        6.97783018479144
O            4.96546539307711       -0.83551204436235        7.41078470694010
C            6.13793715862998       -1.55922664672570        7.49793308217987
O           -6.65563975836823       -1.68256138567466        4.73471090590065
O           -5.85464794587245       -3.52390050086539        5.72358425176461
C           -6.87144497474279       -3.98931622418431        4.88572496478549
C           -4.79508273294453        2.65215068873441        7.01909474331322
C           -4.01158496288556        1.75873384921183        2.68122307422581
H           -7.83673530218522       -4.06729082886043        5.55314496951608
H           -6.80094638641141       -5.05467651897236        4.50475183941657
H           -6.94716687230552       -3.26661807698643        4.04258994201929
H            6.98794710854926       -1.07845921732095        7.01721398878853
H            6.09969349631462       -2.57776504837326        7.27558664281567
H            6.22953577165772       -1.47694414852183        8.60812275084154
H           -4.31708574510889        2.75645606678645        2.34147150106332
H           -4.79950922093345        1.10739644609823        2.84480491987614
H           -3.56520714242825        1.12944682657611        1.85431971529000
H           -5.77478642619483        2.19521541579159        6.54477480843106
H           -4.77090356839416        3.75722939295661        6.95680249865075
H           -4.94393324531481        2.51094404438648        8.05030426229042
H           -0.21887600230424        7.23311638748755        1.49748163167346
H           -1.68670308535569        8.07022198323387        1.91054786332625
H           -1.38533032207154        7.43794008719707        0.19239618299973
116
 energy: -22.751953008891 gnorm: 0.486715819929 xtb: 6.6.1 (8d0f1dd)
C           -3.36537719623576        0.71352728957991       -1.34066591002062
C           -2.70261450558855       -0.18136259090335       -0.44032841141583
C           -1.74411433382665        0.32693233137267        0.52342433775577
C           -1.42707927481226        1.69881791300748        0.36647475774220
C           -2.05872113487914        2.47711673715315       -0.60675555093790
C           -3.01690580345989        2.05521822264406       -1.47620397749198
C           -1.25393095605335       -0.45534874522280        1.61722899536344
C           -0.04036054287821       -0.07593756097254        2.03568218244927
C            0.44719675845206        1.27874536957978        1.65217197359602
N           -0.38113176587882        2.14115262866833        1.19468331509503
C           -1.79529806729581       -1.61150395354843        2.17345614960831
C           -1.03485330836002       -2.45974571653104        3.03279275729366
N            0.11363105004168       -1.96931727428443        3.59735663157799
C            0.74131582683905       -0.95836102533593        2.85558526097995
C            2.11594372371053       -0.47790815649609        3.08484138292109
C            2.62700289695648        0.75445535536158        2.79789356393562
C            1.75758688370693        1.75581653235354        2.20065054047516
C           -3.19611968402206       -1.97032223060536        2.20874642946338
C           -3.71575650936904       -3.16863096198963        2.72578206508611
C           -2.78169736831411       -3.97053103350596        3.36344674886263
C           -1.46383456328445       -3.68656999637107        3.49134074008743
O           -4.08969611265440       -0.94509768650303        1.76244420270697
O           -2.66095475064665       -1.55967732961679       -0.70553850877269
C           -3.51811115747291        2.87488018891941       -2.57204289628475
C           -3.13177721177683       -5.39997172066705        3.78956891050612
H           -1.74245711340215        3.46413472548969       -0.80945513191952
H           -3.94091367151852        0.37736029077141       -2.12975446948004
H            2.17829427984753        2.67759570135484        1.96413052559183
H            2.73122320218366       -1.19191126508160        3.63438455932560
H           -0.76469048356642       -4.34737827204315        4.04564745079222
H           -4.77967452238548       -3.23684823268841        2.99473026283652
O           -3.00160209796319        3.96669573750456       -2.49842382976239
O           -4.32939977180628        2.62309381070910       -3.66977727512594
C           -4.41061461381137        3.73734698166419       -4.52717164019613
C            4.03193400358080        1.22177600110983        3.24236302806393
O            4.37056112982055        0.64604400686497        4.22639269449523
O            4.66004245920595        2.14971599559174        2.46878735511783
C            6.06374113595176        2.07857712154986        2.73503368907792
O           -4.28970946282072       -5.68957901959940        3.88967081343846
O           -2.06341976068436       -6.26740358267719        4.05596473224706
C           -2.48240156147607       -7.44553638516658        4.59749493929599
C           -5.42957541386289       -1.13426534460825        2.25910931195879
C           -3.82897470054353       -2.10336272978233       -1.04447807987206
H           -2.91788789567789       -7.99789387360576        3.85421932943449
H           -3.32061107513946       -7.11975774456790        5.21861062701568
H           -1.69743979898924       -7.84174379879333        5.26198273006922
H            6.59556168468269        2.25542430322232        1.73399526069929
H            6.44074008463374        1.19370108046730        3.19570937475777
H            6.39041631709229        3.00508957731516        3.17741570702973
H           -3.86361616345367       -3.16315574214945       -0.75352609182899
H           -4.19878248159033       -2.10473233380828       -2.06875254204650
H           -4.69021183043908       -1.72739846312045       -0.35514887719502
H           -5.85865925990009       -2.01797030908414        1.87319198096490
H           -6.00846307634956       -0.27307763694697        1.98591286751708
H           -5.47336373448523       -0.91273113168934        3.35567677448904
H           -3.40544004000604        3.71593408293287       -5.07680762839514
H           -4.09414871898915        4.72997252555496       -4.02523916923356
H           -5.46556688822542        3.73639381478070       -4.82844174748339
C           -1.31444660055942        4.08168120800046        3.26678996871671
C           -1.63131691227802        2.90428028885074        3.87787231433263
C           -0.70318365078129        2.22704717973594        4.85890579959430
C            0.70290211136055        2.76205383824444        4.89879966049207
C            0.95188165497154        3.97302945172357        4.39933051524764
C            0.02867208312281        4.57282283271710        3.53601816189291
C           -0.86690281176354        0.98303928326318        5.52064186568607
C            0.27707022276664        0.41876856476822        6.09437349006923
C            1.57797710272053        1.08934918455753        6.04702402281774
N            1.85095320404265        2.17846849613006        5.32255264359885
C           -2.15870471866400        0.30698231872379        5.58222344973772
C           -2.07598115489473       -1.05661717629331        5.98787569793415
N           -0.90523170034577       -1.62778415486792        6.38510949576242
C            0.18340127577724       -0.82514288347537        6.67098881042739
C            1.23883523060555       -1.40001269543938        7.36975744186792
C            2.40258683009428       -0.66771596881791        7.44463819553989
C            2.60955707095542        0.48670570897497        6.78409053235263
C           -3.40751899761484        0.87341450990971        5.51921058731387
C           -4.49505410735794       -0.10308914587064        5.51729692761419
C           -4.49073123432029       -1.44854109872702        5.75699182431334
C           -3.20567426484181       -1.88888325153307        5.98927932819786
O           -3.76025271349713        2.21586743131955        5.74072928262434
O           -2.78055895389604        2.05988061103408        3.66241308218016
C            0.42113425109042        5.90784349337715        3.01771844595327
C           -5.70710759147147       -2.42577847920788        5.42770749258023
H            1.88159786808629        4.49339842968592        4.65615592568730
H           -1.95608915212348        4.71017562779991        2.67873219227008
H            3.60023620957080        0.78869337312088        6.71113222271238
H            1.09011149853949       -2.48840394848679        7.60018867477450
H           -3.05753166067460       -2.93070050087153        6.07431831282054
H           -5.42946543265418        0.31978596423316        5.34092696716567
O            1.17121881505303        6.72800092549520        3.61333252855913
O           -0.11402180086015        6.35172225795926        1.81715158079813
C            0.20301772864355        7.68491722780886        1.51184352556251
C            3.67803697711286       -1.33161340406525        8.02573186401842
O            3.58546646230485       -2.32166178367857        8.68553231246404
O            4.76119185155834       -0.59979679420990        7.61845293978111
C            5.99332267096105       -1.01959481885607        8.28995800022216
O           -6.57034854556449       -2.15608335181659        4.69518662536575
O           -5.41976787517916       -3.73427666600481        5.89063609329306
C           -6.39514316983685       -4.76031047642714        5.46298894654230
C           -4.73964788866030        2.22642572543953        6.86528204358807
C           -3.54426407449683        2.69302628046180        2.70532734530313
H           -6.50545426627174       -4.83635806348371        4.35650471498031
H           -7.31159143638549       -4.34400421882938        5.76071985794548
H           -6.21889571483074       -5.82016769499861        5.83788918476151
H            6.51733513781731       -1.97926395480424        7.83540503375951
H            5.71872112914455       -1.09369753002495        9.35548336577214
H            6.88132551934403       -0.26755238793845        8.19375283412963
H           -4.38820674917445        3.13751482671573        3.17050227669706
H           -3.59333585478785        1.96086928848630        1.89838124392294
H           -2.99454827359112        3.43403867456759        2.23261061053583
H           -5.77130516226391        2.13740488642204        6.61511005584793
H           -4.69530350782047        3.08532677419504        7.66378847653952
H           -4.44713239138146        1.32347282619434        7.42351130027689
H            0.80994596391760        7.77068266515437        0.68904974215780
H            0.52328661361848        7.88622660330069        2.52690483221131
H           -0.77018174807835        8.23147019316354        1.35586823942011
116
 energy: -22.751243043210 gnorm: 0.476786565175 xtb: 6.6.1 (8d0f1dd)
C           -3.34008936943282        0.21735482795360       -1.84336373722055
C           -2.76131929857104       -0.57476134549333       -0.81181321146890
C           -1.87589151411901        0.04364834314302        0.21387587336003
C           -1.46314052740307        1.31192786208662        0.09478471145670
C           -2.13433033914392        2.17167361213191       -0.83567151579494
C           -3.04631812122926        1.56885433246876       -1.72656311954824
C           -1.32039521697581       -0.65093635313673        1.27824264530708
C           -0.10307557254690       -0.27027767662170        1.69517241295427
C            0.32839593975665        1.01524169626800        1.41474258979043
N           -0.36842761418591        1.86907319275362        0.66339624435372
C           -1.83356225076693       -1.80967095237549        1.99569691718930
C           -1.04038263908798       -2.82801037069384        2.52685157647922
N            0.25083893567257       -2.58358998545423        2.74887578693693
C            0.58948784614943       -1.31127229031069        2.38071563543908
C            1.85575570150182       -0.78478379793745        2.94817198934646
C            2.26195372966322        0.58732287750102        2.84961218011126
C            1.52585116672141        1.38821065797526        2.11286535838965
C           -3.21293622638234       -1.90241237634722        1.87984234229285
C           -3.80377350904949       -3.07117522051446        2.32788876754233
C           -2.97930924472342       -4.09274934167844        2.85758730934487
C           -1.59259975241332       -4.02107745402691        2.92256128100975
O           -4.00893600242630       -0.74968018930166        1.45655650170442
O           -2.84731008225759       -1.93387008272401       -0.99488990174405
C           -3.87288902666061        2.65884782482892       -2.35748389480420
C           -3.68413063973582       -5.40871532171546        3.19590663722014
H           -1.97297278492153        3.19350536991942       -1.01454142843365
H           -3.71650361950568       -0.18719630591235       -2.77552096688997
H            1.90515608116182        2.42646660604270        2.08832527174503
H            2.56499552325658       -1.44333538668667        3.40858963974268
H           -1.05036812020818       -4.74736647795982        3.50806629813631
H           -4.85331507910874       -3.05224645421514        2.30947542470687
O           -3.95542322414516        3.72184913356532       -1.71346085822387