      -----------------------------------------------------------      
     |                   =====================                   |     
     |                           x T B                           |     
     |                   =====================                   |     
     |                         S. Grimme                         |     
     |          Mulliken Center for Theoretical Chemistry        |     
     |                    University of Bonn                     |     
      -----------------------------------------------------------      

   * xtb version 6.6.1 (8d0f1dd) compiled by 'runner@Mac-1690902418499.local' on 2023-08-01

   xtb is free software: you can redistribute it and/or modify it under
   the terms of the GNU Lesser General Public License as published by
   the Free Software Foundation, either version 3 of the License, or
   (at your option) any later version.
   
   xtb is distributed in the hope that it will be useful,
   but WITHOUT ANY WARRANTY; without even the implied warranty of
   MERCHANTABILITY or FITNESS FOR A PARTICULAR PURPOSE.  See the
   GNU Lesser General Public License for more details.
   
   Cite this work as:
   * C. Bannwarth, E. Caldeweyher, S. Ehlert, A. Hansen, P. Pracht,
     J. Seibert, S. Spicher, S. Grimme, WIREs Comput. Mol. Sci., 2020, 11,
     e01493. DOI: 10.1002/wcms.1493
   
   for GFN2-xTB:
   * C. Bannwarth, S. Ehlert and S. Grimme., J. Chem. Theory Comput., 2019,
     15, 1652-1671. DOI: 10.1021/acs.jctc.8b01176
   for GFN1-xTB:
   * S. Grimme, C. Bannwarth, P. Shushkov, J. Chem. Theory Comput., 2017,
     13, 1989-2009. DOI: 10.1021/acs.jctc.7b00118
   for GFN0-xTB:
   * P. Pracht, E. Caldeweyher, S. Ehlert, S. Grimme, ChemRxiv, 2019, preprint.
     DOI: 10.26434/chemrxiv.8326202.v1
   for GFN-FF:
   * S. Spicher and S. Grimme, Angew. Chem. Int. Ed., 2020, 59, 15665-15673.
     DOI: 10.1002/anie.202004239
   
   for ALPB and GBSA implicit solvation:
   * S. Ehlert, M. Stahn, S. Spicher, S. Grimme, J. Chem. Theory Comput.,
     2021, 17, 4250-4261. DOI: 10.1021/acs.jctc.1c00471
   
   for DFT-D4:
   * E. Caldeweyher, C. Bannwarth and S. Grimme, J. Chem. Phys., 2017,
     147, 034112. DOI: 10.1063/1.4993215
   * E. Caldeweyher, S. Ehlert, A. Hansen, H. Neugebauer, S. Spicher,
     C. Bannwarth and S. Grimme, J. Chem. Phys., 2019, 150, 154122.
     DOI: 10.1063/1.5090222
   * E. Caldeweyher, J.-M. Mewes, S. Ehlert and S. Grimme, Phys. Chem. Chem. Phys.
     2020, 22, 8499-8512. DOI: 10.1039/D0CP00502A
   
   for sTDA-xTB:
   * S. Grimme and C. Bannwarth, J. Chem. Phys., 2016, 145, 054103.
     DOI: 10.1063/1.4959605
   
   in the mass-spec context:
   * V. Asgeirsson, C. Bauer and S. Grimme, Chem. Sci., 2017, 8, 4879.
     DOI: 10.1039/c7sc00601b
   * J. Koopman and S. Grimme, ACS Omega 2019, 4, 12, 15120-15133.
     DOI: 10.1021/acsomega.9b02011
   
   for metadynamics refer to:
   * S. Grimme, J. Chem. Theory Comput., 2019, 155, 2847-2862
     DOI: 10.1021/acs.jctc.9b00143
   
   for SPH calculations refer to:
   * S. Spicher and S. Grimme, J. Chem. Theory Comput., 2021, 17, 1701-1714
     DOI: 10.1021/acs.jctc.0c01306
   
   with help from (in alphabetical order)
   P. Atkinson, C. Bannwarth, F. Bohle, G. Brandenburg, E. Caldeweyher
   M. Checinski, S. Dohm, S. Ehlert, S. Ehrlich, I. Gerasimov, C. Hölzer
   A. Katbashev, J. Koopman, C. Lavigne, S. Lehtola, F. März, M. Müller,
   F. Musil, H. Neugebauer, J. Pisarek, C. Plett, P. Pracht, F. Pultar,
   J. Seibert, P. Shushkov, S. Spicher, M. Stahn, M. Steiner, T. Strunk,
   J. Stückrath, T. Rose, and J. Unsleber
   
 * started run on 2024/11/14 at 13:49:03.690     

           -------------------------------------------------
          |                Calculation Setup                |
           -------------------------------------------------

          program call               : xtb opt_anion_Verdazyl5.mol --gfn2 --sp --chrg -1 --uhf 0
          coordinate file            : opt_anion_Verdazyl5.mol
          omp threads                :                     8

   ID    Z sym.   atoms
    1    6 C      1-18, 29, 32, 37-50
    2    1 H      19-28, 51-61
    3    7 N      30, 31, 33, 34
    4    8 O      35
    5   16 S      36
########################################################################
[WARNING] Please study the warnings concerning your input carefully
-1- prog_main: Charge in sdf/mol input was overwritten
########################################################################

           -------------------------------------------------
          |                 G F N 2 - x T B                 |
           -------------------------------------------------

        Reference                      10.1021/acs.jctc.8b01176
      * Hamiltonian:
        H0-scaling (s, p, d)           1.850000    2.230000    2.230000
        zeta-weighting                 0.500000
      * Dispersion:
        s8                             2.700000
        a1                             0.520000
        a2                             5.000000
        s9                             5.000000
      * Repulsion:
        kExp                           1.500000    1.000000
        rExp                           1.000000
      * Coulomb:
        alpha                          2.000000
        third order                    shell-resolved
        anisotropic                    true
        a3                             3.000000
        a5                             4.000000
        cn-shift                       1.200000
        cn-exp                         4.000000
        max-rad                        5.000000

q/qsh data taken from xtbrestart
CAMM data taken from xtbrestart

          ...................................................
          :                      SETUP                      :
          :.................................................:
          :  # basis functions                 187          :
          :  # atomic orbitals                 186          :
          :  # shells                          102          :
          :  # electrons                       190          :
          :  max. iterations                   250          :
          :  Hamiltonian                  GFN2-xTB          :
          :  restarted?                       true          :
          :  GBSA solvation                  false          :
          :  PC potential                    false          :
          :  electronic temp.          300.0000000     K    :
          :  accuracy                    1.0000000          :
          :  -> integral cutoff          0.2500000E+02      :
          :  -> integral neglect         0.1000000E-07      :
          :  -> SCF convergence          0.1000000E-05 Eh   :
          :  -> wf. convergence          0.1000000E-03 e    :
          :  Broyden damping             0.4000000          :
          ...................................................

 iter      E             dE          RMSdq      gap      omega  full diag
   1   -104.4552708 -0.104455E+03  0.120E+00    1.76       0.0  T
   2   -104.4859724 -0.307015E-01  0.758E-01    0.14       1.0  T
   3   -104.4881668 -0.219439E-02  0.469E-01    0.46       1.0  T
   4   -103.9779684  0.510198E+00  0.194E+00    0.17       1.0  T
   5   -104.4829476 -0.504979E+00  0.353E-01    0.08       1.0  T
   6   -104.4961246 -0.131770E-01  0.943E-02    0.17       1.0  T
   7   -104.4954680  0.656536E-03  0.102E-01    0.23       1.0  T
   8   -104.4957450 -0.276971E-03  0.878E-02    0.22       1.0  T
   9   -104.4959861 -0.241064E-03  0.756E-02    0.21       1.0  T
  10   -104.4961426 -0.156556E-03  0.665E-02    0.20       1.0  T
  11   -104.4962366 -0.940020E-04  0.606E-02    0.19       1.0  T
  12   -104.4963787 -0.142034E-03  0.501E-02    0.18       1.0  T
  13   -104.4964857 -0.107008E-03  0.406E-02    0.18       1.0  T
  14   -104.4966408 -0.155130E-03  0.205E-02    0.17       1.0  T
  15   -104.4966922 -0.514237E-04  0.391E-03    0.16       3.3  T
  16   -104.4966942 -0.192996E-05  0.475E-04    0.16      26.9  T
  17   -104.4966940  0.202888E-06  0.133E-03    0.15       9.6  T
  18   -104.4966942 -0.224800E-06  0.351E-05    0.16     364.3  T
  19   -104.4966942  0.540683E-08  0.207E-04    0.16      62.0  T

   *** convergence criteria satisfied after 19 iterations ***

         #    Occupation            Energy/Eh            Energy/eV
      -------------------------------------------------------------
         1        2.0000           -0.6221338             -16.9291
       ...           ...                  ...                  ...
        89        2.0000           -0.2852952              -7.7633
        90        2.0000           -0.2826214              -7.6905
        91        2.0000           -0.2814516              -7.6587
        92        2.0000           -0.2770624              -7.5393
        93        2.0000           -0.2618991              -7.1266
        94        2.0000           -0.2343151              -6.3760
        95        1.9052           -0.1954154              -5.3175 (HOMO)
        96        0.0948           -0.1897145              -5.1624 (LUMO)
        97        0.0000           -0.1805647              -4.9134
        98                         -0.1523893              -4.1467
        99                         -0.1405226              -3.8238
       100                         -0.1291508              -3.5144
       ...                                ...                  ...
       186                          0.8110923              22.0709
      -------------------------------------------------------------
                  HL-Gap            0.0057010 Eh            0.1551 eV
             Fermi-level           -0.1925650 Eh           -5.2400 eV

 SCC (total)                   0 d,  0 h,  0 min,  0.435 sec
 SCC setup                      ...        0 min,  0.000 sec (  0.035%)
 Dispersion                     ...        0 min,  0.000 sec (  0.101%)
 classical contributions        ...        0 min,  0.000 sec (  0.041%)
 integral evaluation            ...        0 min,  0.002 sec (  0.530%)
 iterations                     ...        0 min,  0.415 sec ( 95.592%)
 molecular gradient             ...        0 min,  0.011 sec (  2.540%)
 printout                       ...        0 min,  0.005 sec (  1.157%)

         :::::::::::::::::::::::::::::::::::::::::::::::::::::
         ::                     SUMMARY                     ::
         :::::::::::::::::::::::::::::::::::::::::::::::::::::
         :: total energy            -102.774638501782 Eh    ::
         :: gradient norm              0.059060824114 Eh/a0 ::
         :: HOMO-LUMO gap              0.155131578276 eV    ::
         ::.................................................::
         :: SCC energy              -104.496694171117 Eh    ::
         :: -> isotropic ES            0.131867558262 Eh    ::
         :: -> anisotropic ES          0.012765527740 Eh    ::
         :: -> anisotropic XC          0.057344496454 Eh    ::
         :: -> dispersion             -0.089806448978 Eh    ::
         :: repulsion energy           1.722522260530 Eh    ::
         :: add. restraining           0.000000000000 Eh    ::
         :: total charge              -0.999998972610 e     ::
         :::::::::::::::::::::::::::::::::::::::::::::::::::::

           -------------------------------------------------
          |                Property Printout                |
           -------------------------------------------------

    * Orbital Energies and Occupations

         #    Occupation            Energy/Eh            Energy/eV
      -------------------------------------------------------------
         1        2.0000           -0.6221338             -16.9291
       ...           ...                  ...                  ...
        83        2.0000           -0.3132446              -8.5238
        84        2.0000           -0.3059740              -8.3260
        85        2.0000           -0.2967843              -8.0759
        86        2.0000           -0.2956886              -8.0461
        87        2.0000           -0.2944942              -8.0136
        88        2.0000           -0.2904430              -7.9034
        89        2.0000           -0.2852952              -7.7633
        90        2.0000           -0.2826214              -7.6905
        91        2.0000           -0.2814516              -7.6587
        92        2.0000           -0.2770624              -7.5393
        93        2.0000           -0.2618991              -7.1266
        94        2.0000           -0.2343151              -6.3760
        95        1.9052           -0.1954154              -5.3175 (HOMO)
        96        0.0948           -0.1897145              -5.1624 (LUMO)
        97        0.0000           -0.1805647              -4.9134
        98                         -0.1523893              -4.1467
        99                         -0.1405226              -3.8238
       100                         -0.1291508              -3.5144
       101                         -0.1161891              -3.1617
       102                         -0.1119233              -3.0456
       103                         -0.1106492              -3.0109
       104                         -0.1062278              -2.8906
       105                         -0.0989430              -2.6924
       106                         -0.0958431              -2.6080
       ...                                ...                  ...
       186                          0.8110923              22.0709
      -------------------------------------------------------------
                  HL-Gap            0.0057010 Eh            0.1551 eV
             Fermi-level           -0.1925650 Eh           -5.2400 eV

     #   Z          covCN         q      C6AA      α(0)
     1   6 C        2.976    -0.003    28.084     8.693
     2   6 C        2.984    -0.001    28.046     8.687
     3   6 C        2.978     0.010    27.782     8.646
     4   6 C        2.983     0.005    27.898     8.664
     5   6 C        2.986     0.003    27.957     8.673
     6   6 C        2.985     0.008    27.825     8.653
     7   6 C        2.915    -0.046    29.135     8.851
     8   6 C        2.915    -0.040    29.000     8.831
     9   6 C        2.917    -0.044    29.086     8.844
    10   6 C        2.914    -0.042    29.038     8.836
    11   6 C        2.992     0.016    27.643     8.625
    12   6 C        2.930    -0.031    28.775     8.797
    13   6 C        2.920    -0.049    29.224     8.865
    14   6 C        2.921    -0.040    28.984     8.829
    15   6 C        3.134    -0.001    27.843     8.637
    16   6 C        2.915    -0.027    28.688     8.783
    17   6 C        2.910    -0.039    28.965     8.825
    18   6 C        2.914    -0.033    28.826     8.804
    19   1 H        0.925     0.014     2.832     2.632
    20   1 H        0.925     0.015     2.806     2.620
    21   1 H        0.925     0.016     2.802     2.618
    22   1 H        0.925     0.016     2.797     2.615
    23   1 H        0.926     0.038     2.472     2.459
    24   1 H        0.925     0.016     2.801     2.617
    25   1 H        0.925     0.017     2.783     2.609
    26   1 H        0.925     0.028     2.609     2.526
    27   1 H        0.925     0.023     2.694     2.567
    28   1 H        0.925     0.020     2.731     2.584
    29   6 C        2.886     0.164    24.462     8.109
    30   7 N        1.933    -0.343    29.743     8.087
    31   7 N        2.838    -0.008    21.412     6.873
    32   6 C        2.700     0.308    21.767     7.636
    33   7 N        2.839    -0.010    21.451     6.879
    34   7 N        1.922    -0.352    29.989     8.120
    35   8 O        0.858    -0.492    23.601     6.513
    36  16 S        2.280    -0.056   143.371    20.153
    37   6 C        3.008     0.031    27.297     8.570
    38   6 C        3.062    -0.059    29.401     8.892
    39   6 C        2.920     0.070    26.444     8.433
    40   6 C        2.918    -0.057    29.407     8.893
    41   6 C        2.919    -0.036    28.907     8.817
    42   6 C        2.916    -0.054    29.335     8.882
    43   6 C        2.918    -0.036    28.904     8.816
    44   6 C        2.925    -0.052    29.298     8.877
    45   6 C        2.922     0.069    26.464     8.436
    46   6 C        2.925    -0.051    29.264     8.871
    47   6 C        2.919    -0.036    28.888     8.814
    48   6 C        2.916    -0.052    29.298     8.876
    49   6 C        2.920    -0.037    28.918     8.818
    50   6 C        2.918    -0.059    29.468     8.902
    51   1 H        0.926     0.057     2.230     2.335
    52   1 H        0.925     0.010     2.883     2.655
    53   1 H        0.925     0.002     3.029     2.722
    54   1 H        0.925     0.008     2.923     2.674
    55   1 H        0.926     0.058     2.228     2.334
    56   1 H        0.926     0.054     2.275     2.359
    57   1 H        0.925     0.008     2.922     2.673
    58   1 H        0.925     0.001     3.039     2.726
    59   1 H        0.925     0.007     2.940     2.681
    60   1 H        0.926     0.051     2.309     2.376
    61   1 H        0.926     0.044     2.394     2.419

 Mol. C6AA /au·bohr⁶  :      63418.830717
 Mol. C8AA /au·bohr⁸  :    1665173.156620
 Mol. α(0) /au        :        406.607975


Wiberg/Mayer (AO) data.
largest (>0.10) Wiberg bond orders for each atom

 ---------------------------------------------------------------------------
     #   Z sym  total        # sym  WBO       # sym  WBO       # sym  WBO
 ---------------------------------------------------------------------------
     1   6 C    3.956 --     4 C    1.287     3 C    1.223     2 C    1.190
     2   6 C    3.982 --    11 C    1.307     5 C    1.251     1 C    1.190
     3   6 C    3.986 --    12 C    1.298     6 C    1.253     1 C    1.223
     4   6 C    3.977 --     1 C    1.287     7 C    1.276     8 C    1.230
     5   6 C    3.979 --     9 C    1.268    13 C    1.263     2 C    1.251
     6   6 C    3.981 --    14 C    1.328     3 C    1.253    10 C    1.220
     7   6 C    3.956 --     9 C    1.548     4 C    1.276    19 H    0.968
     8   6 C    3.985 --    10 C    1.619     4 C    1.230    20 H    0.967
     9   6 C    3.955 --     7 C    1.548     5 C    1.268    21 H    0.968
    10   6 C    3.973 --     8 C    1.619     6 C    1.220    22 H    0.968
    11   6 C    3.938 --     2 C    1.307    15 C    1.282    36 S    1.116
    12   6 C    3.974 --    16 C    1.511     3 C    1.298    23 H    0.965
                            14 C    0.110
    13   6 C    3.971 --    17 C    1.560     5 C    1.263    24 H    0.968
    14   6 C    3.974 --    18 C    1.495     6 C    1.328    25 H    0.969
                            12 C    0.110
    15   6 C    3.975 --    11 C    1.282    17 C    1.274    38 C    1.235
    16   6 C    3.987 --    12 C    1.511    18 C    1.365    26 H    0.970
    17   6 C    3.971 --    13 C    1.560    15 C    1.274    27 H    0.968
    18   6 C    3.966 --    14 C    1.495    16 C    1.365    28 H    0.972
    19   1 H    0.999 --     7 C    0.968
    20   1 H    0.999 --     8 C    0.967
    21   1 H    0.998 --     9 C    0.968
    22   1 H    0.998 --    10 C    0.968
    23   1 H    0.998 --    12 C    0.965
    24   1 H    0.998 --    13 C    0.968
    25   1 H    0.999 --    14 C    0.969
    26   1 H    0.999 --    16 C    0.970
    27   1 H    0.998 --    17 C    0.968
    28   1 H    0.999 --    18 C    0.972
    29   6 C    3.975 --    30 N    1.404    34 N    1.393    37 C    1.066
    30   7 N    2.808 --    29 C    1.404    31 N    1.004    34 N    0.202
    31   7 N    3.565 --    32 C    1.136    45 C    1.108    30 N    1.004
                            35 O    0.116
    32   6 C    3.958 --    35 O    1.573    31 N    1.136    33 N    1.117
    33   7 N    3.556 --    39 C    1.119    32 C    1.117    34 N    1.001
                            35 O    0.112
    34   7 N    2.783 --    29 C    1.393    33 N    1.001    30 N    0.202
    35   8 O    1.941 --    32 C    1.573    31 N    0.116    33 N    0.112
    36  16 S    2.567 --    11 C    1.116    37 C    1.110
    37   6 C    3.930 --    38 C    1.571    36 S    1.110    29 C    1.066
    38   6 C    3.971 --    37 C    1.571    15 C    1.235    61 H    0.961
    39   6 C    3.959 --    40 C    1.336    44 C    1.323    33 N    1.119
    40   6 C    3.976 --    41 C    1.470    39 C    1.336    56 H    0.962
Note: The following floating-point exceptions are signalling: IEEE_UNDERFLOW_FLAG
normal termination of xtb
    41   6 C    3.989 --    40 C    1.470    42 C    1.417    57 H    0.972
    42   6 C    3.963 --    41 C    1.417    43 C    1.411    58 H    0.973
    43   6 C    3.990 --    44 C    1.480    42 C    1.411    59 H    0.971
    44   6 C    3.976 --    43 C    1.480    39 C    1.323    60 H    0.963
    45   6 C    3.959 --    50 C    1.343    46 C    1.327    31 N    1.108
    46   6 C    3.976 --    47 C    1.479    45 C    1.327    51 H    0.962
    47   6 C    3.991 --    46 C    1.479    48 C    1.412    52 H    0.971
    48   6 C    3.965 --    49 C    1.422    47 C    1.412    53 H    0.973
    49   6 C    3.989 --    50 C    1.465    48 C    1.422    54 H    0.972
    50   6 C    3.976 --    49 C    1.465    45 C    1.343    55 H    0.960
    51   1 H    0.997 --    46 C    0.962
    52   1 H    0.999 --    47 C    0.971
    53   1 H    1.000 --    48 C    0.973
    54   1 H    0.999 --    49 C    0.972
    55   1 H    0.997 --    50 C    0.960
    56   1 H    0.997 --    40 C    0.962
    57   1 H    0.999 --    41 C    0.972
    58   1 H    1.000 --    42 C    0.973
    59   1 H    0.999 --    43 C    0.971
    60   1 H    0.997 --    44 C    0.963
    61   1 H    0.997 --    38 C    0.961
 ---------------------------------------------------------------------------

Topologies differ in bond orders
Writing corrected topology to xtbtopo.mol

molecular dipole:
                 x           y           z       tot (Debye)
 q only:        5.332       0.914      -2.278
   full:        5.135       0.671      -2.227      14.327
molecular quadrupole (traceless):
                xx          xy          yy          xz          yz          zz
 q only:      -53.843     -26.704      10.475      25.010       2.155      43.368
  q+dip:      -46.510     -27.842      15.530      29.023       5.150      30.980
   full:      -50.775     -26.955       9.152      26.967       2.588      41.623


           -------------------------------------------------
          | TOTAL ENERGY             -102.774638501782 Eh   |
          | GRADIENT NORM               0.059060824114 Eh/α |
          | HOMO-LUMO GAP               0.155131578276 eV   |
           -------------------------------------------------
########################################################################
[WARNING] Runtime exception occurred
-2- restart_readRestart: Multiplicity missmatch in restart file.
-1- restart_readRestart: Number of electron missmatch in restart file.
########################################################################

------------------------------------------------------------------------
 * finished run on 2024/11/14 at 13:49:04.145     
------------------------------------------------------------------------
 total:
 * wall-time:     0 d,  0 h,  0 min,  0.454 sec
 *  cpu-time:     0 d,  0 h,  0 min,  1.424 sec
 * ratio c/w:     3.136 speedup
 SCF:
 * wall-time:     0 d,  0 h,  0 min,  0.435 sec
 *  cpu-time:     0 d,  0 h,  0 min,  1.409 sec
 * ratio c/w:     3.242 speedup

