      -----------------------------------------------------------      
     |                   =====================                   |     
     |                           x T B                           |     
     |                   =====================                   |     
     |                         S. Grimme                         |     
     |          Mulliken Center for Theoretical Chemistry        |     
     |                    University of Bonn                     |     
      -----------------------------------------------------------      

   * xtb version 6.6.1 (8d0f1dd) compiled by 'runner@Mac-1690902418499.local' on 2023-08-01

   xtb is free software: you can redistribute it and/or modify it under
   the terms of the GNU Lesser General Public License as published by
   the Free Software Foundation, either version 3 of the License, or
   (at your option) any later version.
   
   xtb is distributed in the hope that it will be useful,
   but WITHOUT ANY WARRANTY; without even the implied warranty of
   MERCHANTABILITY or FITNESS FOR A PARTICULAR PURPOSE.  See the
   GNU Lesser General Public License for more details.
   
   Cite this work as:
   * C. Bannwarth, E. Caldeweyher, S. Ehlert, A. Hansen, P. Pracht,
     J. Seibert, S. Spicher, S. Grimme, WIREs Comput. Mol. Sci., 2020, 11,
     e01493. DOI: 10.1002/wcms.1493
   
   for GFN2-xTB:
   * C. Bannwarth, S. Ehlert and S. Grimme., J. Chem. Theory Comput., 2019,
     15, 1652-1671. DOI: 10.1021/acs.jctc.8b01176
   for GFN1-xTB:
   * S. Grimme, C. Bannwarth, P. Shushkov, J. Chem. Theory Comput., 2017,
     13, 1989-2009. DOI: 10.1021/acs.jctc.7b00118
   for GFN0-xTB:
   * P. Pracht, E. Caldeweyher, S. Ehlert, S. Grimme, ChemRxiv, 2019, preprint.
     DOI: 10.26434/chemrxiv.8326202.v1
   for GFN-FF:
   * S. Spicher and S. Grimme, Angew. Chem. Int. Ed., 2020, 59, 15665-15673.
     DOI: 10.1002/anie.202004239
   
   for ALPB and GBSA implicit solvation:
   * S. Ehlert, M. Stahn, S. Spicher, S. Grimme, J. Chem. Theory Comput.,
     2021, 17, 4250-4261. DOI: 10.1021/acs.jctc.1c00471
   
   for DFT-D4:
   * E. Caldeweyher, C. Bannwarth and S. Grimme, J. Chem. Phys., 2017,
     147, 034112. DOI: 10.1063/1.4993215
   * E. Caldeweyher, S. Ehlert, A. Hansen, H. Neugebauer, S. Spicher,
     C. Bannwarth and S. Grimme, J. Chem. Phys., 2019, 150, 154122.
     DOI: 10.1063/1.5090222
   * E. Caldeweyher, J.-M. Mewes, S. Ehlert and S. Grimme, Phys. Chem. Chem. Phys.
     2020, 22, 8499-8512. DOI: 10.1039/D0CP00502A
   
   for sTDA-xTB:
   * S. Grimme and C. Bannwarth, J. Chem. Phys., 2016, 145, 054103.
     DOI: 10.1063/1.4959605
   
   in the mass-spec context:
   * V. Asgeirsson, C. Bauer and S. Grimme, Chem. Sci., 2017, 8, 4879.
     DOI: 10.1039/c7sc00601b
   * J. Koopman and S. Grimme, ACS Omega 2019, 4, 12, 15120-15133.
     DOI: 10.1021/acsomega.9b02011
   
   for metadynamics refer to:
   * S. Grimme, J. Chem. Theory Comput., 2019, 155, 2847-2862
     DOI: 10.1021/acs.jctc.9b00143
   
   for SPH calculations refer to:
   * S. Spicher and S. Grimme, J. Chem. Theory Comput., 2021, 17, 1701-1714
     DOI: 10.1021/acs.jctc.0c01306
   
   with help from (in alphabetical order)
   P. Atkinson, C. Bannwarth, F. Bohle, G. Brandenburg, E. Caldeweyher
   M. Checinski, S. Dohm, S. Ehlert, S. Ehrlich, I. Gerasimov, C. Hölzer
   A. Katbashev, J. Koopman, C. Lavigne, S. Lehtola, F. März, M. Müller,
   F. Musil, H. Neugebauer, J. Pisarek, C. Plett, P. Pracht, F. Pultar,
   J. Seibert, P. Shushkov, S. Spicher, M. Stahn, M. Steiner, T. Strunk,
   J. Stückrath, T. Rose, and J. Unsleber
   
 * started run on 2024/11/14 at 13:49:04.623     

           -------------------------------------------------
          |                Calculation Setup                |
           -------------------------------------------------

          program call               : xtb opt_radical_Verdazyl5.mol --gfn2 --sp --chrg -1 --uhf 0
          coordinate file            : opt_radical_Verdazyl5.mol
          omp threads                :                     8

   ID    Z sym.   atoms
    1    6 C      1-18, 29, 32, 37-50
    2    1 H      19-28, 51-61
    3    7 N      30, 31, 33, 34
    4    8 O      35
    5   16 S      36

           -------------------------------------------------
          |                 G F N 2 - x T B                 |
           -------------------------------------------------

        Reference                      10.1021/acs.jctc.8b01176
      * Hamiltonian:
        H0-scaling (s, p, d)           1.850000    2.230000    2.230000
        zeta-weighting                 0.500000
      * Dispersion:
        s8                             2.700000
        a1                             0.520000
        a2                             5.000000
        s9                             5.000000
      * Repulsion:
        kExp                           1.500000    1.000000
        rExp                           1.000000
      * Coulomb:
        alpha                          2.000000
        third order                    shell-resolved
        anisotropic                    true
        a3                             3.000000
        a5                             4.000000
        cn-shift                       1.200000
        cn-exp                         4.000000
        max-rad                        5.000000

q/qsh data taken from xtbrestart
CAMM data taken from xtbrestart

          ...................................................
          :                      SETUP                      :
          :.................................................:
          :  # basis functions                 187          :
          :  # atomic orbitals                 186          :
          :  # shells                          102          :
          :  # electrons                       190          :
          :  max. iterations                   250          :
          :  Hamiltonian                  GFN2-xTB          :
          :  restarted?                       true          :
          :  GBSA solvation                  false          :
          :  PC potential                    false          :
          :  electronic temp.          300.0000000     K    :
          :  accuracy                    1.0000000          :
          :  -> integral cutoff          0.2500000E+02      :
          :  -> integral neglect         0.1000000E-07      :
          :  -> SCF convergence          0.1000000E-05 Eh   :
          :  -> wf. convergence          0.1000000E-03 e    :
          :  Broyden damping             0.4000000          :
          ...................................................

 iter      E             dE          RMSdq      gap      omega  full diag
   1   -104.4828501 -0.104483E+03  0.123E+00    1.49       0.0  T
   2   -104.0192640  0.463586E+00  0.196E+00    0.13       1.0  T
   3   -104.4919219 -0.472658E+00  0.830E-01    1.44       1.0  T
   4   -104.5087631 -0.168412E-01  0.516E-01    1.15       1.0  T
   5   -104.5150799 -0.631682E-02  0.376E-01    0.88       1.0  T
   6   -104.5204972 -0.541731E-02  0.281E-01    0.57       1.0  T
   7   -104.5227941 -0.229686E-02  0.212E-01    0.35       1.0  T
   8   -104.0952709  0.427523E+00  0.175E+00    0.12       1.0  T
   9   -104.5250257 -0.429755E+00  0.142E-01    0.22       1.0  T
  10   -104.5255507 -0.524971E-03  0.118E-01    0.20       1.0  T
  11   -104.5254249  0.125838E-03  0.122E-01    0.20       1.0  T
  12   -104.5259117 -0.486875E-03  0.105E-01    0.19       1.0  T
  13   -104.5267228 -0.811113E-03  0.707E-02    0.17       1.0  T
  14   -104.5269936 -0.270751E-03  0.547E-02    0.16       1.0  T
  15   -104.5271579 -0.164292E-03  0.423E-02    0.15       1.0  T
  16   -104.5273893 -0.231443E-03  0.994E-03    0.14       1.3  T
  17   -104.5273975 -0.814003E-05  0.640E-03    0.13       2.0  T
  18   -104.5274026 -0.517238E-05  0.176E-03    0.13       7.3  T
  19   -104.5274029 -0.263285E-06  0.110E-03    0.14      11.6  T
  20   -104.5274031 -0.160856E-06  0.260E-04    0.13      49.2  T
  21   -104.5274031 -0.786501E-08  0.105E-04    0.13     122.4  T

   *** convergence criteria satisfied after 21 iterations ***

         #    Occupation            Energy/Eh            Energy/eV
      -------------------------------------------------------------
         1        2.0000           -0.6196186             -16.8607
       ...           ...                  ...                  ...
        89        2.0000           -0.2891617              -7.8685
        90        2.0000           -0.2836406              -7.7183
        91        2.0000           -0.2815888              -7.6624
        92        2.0000           -0.2754107              -7.4943
        93        2.0000           -0.2603604              -7.0848
        94        2.0000           -0.2296324              -6.2486
        95        1.8623           -0.1853933              -5.0448 (HOMO)
        96        0.1366           -0.1804365              -4.9099 (LUMO)
        97        0.0012           -0.1758357              -4.7847
        98                         -0.1483256              -4.0361
        99                         -0.1346111              -3.6630
       100                         -0.1277144              -3.4753
       ...                                ...                  ...
       186                          0.8166692              22.2227
      -------------------------------------------------------------
                  HL-Gap            0.0049568 Eh            0.1349 eV
             Fermi-level           -0.1829192 Eh           -4.9775 eV

 SCC (total)                   0 d,  0 h,  0 min,  0.696 sec
 SCC setup                      ...        0 min,  0.000 sec (  0.023%)
 Dispersion                     ...        0 min,  0.000 sec (  0.061%)
 classical contributions        ...        0 min,  0.000 sec (  0.016%)
 integral evaluation            ...        0 min,  0.002 sec (  0.340%)
 iterations                     ...        0 min,  0.681 sec ( 97.743%)
 molecular gradient             ...        0 min,  0.012 sec (  1.769%)
 printout                       ...        0 min,  0.000 sec (  0.047%)

         :::::::::::::::::::::::::::::::::::::::::::::::::::::
         ::                     SUMMARY                     ::
         :::::::::::::::::::::::::::::::::::::::::::::::::::::
         :: total energy            -102.772137997986 Eh    ::
         :: gradient norm              0.086659525659 Eh/a0 ::
         :: HOMO-LUMO gap              0.134881417658 eV    ::
         ::.................................................::
         :: SCC energy              -104.527403072039 Eh    ::
         :: -> isotropic ES            0.128401502730 Eh    ::
         :: -> anisotropic ES          0.014454169865 Eh    ::
         :: -> anisotropic XC          0.057652218652 Eh    ::
         :: -> dispersion             -0.090183752373 Eh    ::
         :: repulsion energy           1.755525029376 Eh    ::
         :: add. restraining           0.000000000000 Eh    ::
         :: total charge              -0.999999685242 e     ::
         :::::::::::::::::::::::::::::::::::::::::::::::::::::

           -------------------------------------------------
          |                Property Printout                |
           -------------------------------------------------

    * Orbital Energies and Occupations

         #    Occupation            Energy/Eh            Energy/eV
      -------------------------------------------------------------
         1        2.0000           -0.6196186             -16.8607
       ...           ...                  ...                  ...
        83        2.0000           -0.3158958              -8.5960
        84        2.0000           -0.3046701              -8.2905
        85        2.0000           -0.3033663              -8.2550
        86        2.0000           -0.2995145              -8.1502
        87        2.0000           -0.2950188              -8.0279
        88        2.0000           -0.2924724              -7.9586
        89        2.0000           -0.2891617              -7.8685
        90        2.0000           -0.2836406              -7.7183
        91        2.0000           -0.2815888              -7.6624
        92        2.0000           -0.2754107              -7.4943
        93        2.0000           -0.2603604              -7.0848
        94        2.0000           -0.2296324              -6.2486
        95        1.8623           -0.1853933              -5.0448 (HOMO)
        96        0.1366           -0.1804365              -4.9099 (LUMO)
        97        0.0012           -0.1758357              -4.7847
        98                         -0.1483256              -4.0361
        99                         -0.1346111              -3.6630
       100                         -0.1277144              -3.4753
       101                         -0.1195106              -3.2520
       102                         -0.1137695              -3.0958
       103                         -0.1128908              -3.0719
       104                         -0.1023996              -2.7864
       105                         -0.1012991              -2.7565
       106                         -0.0900800              -2.4512
       ...                                ...                  ...
       186                          0.8166692              22.2227
      -------------------------------------------------------------
                  HL-Gap            0.0049568 Eh            0.1349 eV
             Fermi-level           -0.1829192 Eh           -4.9775 eV

     #   Z          covCN         q      C6AA      α(0)
     1   6 C        2.980    -0.004    28.113     8.697
     2   6 C        2.992    -0.002    28.063     8.690
     3   6 C        2.984     0.009    27.802     8.649
     4   6 C        2.988     0.003    27.961     8.674
     5   6 C        2.991     0.001    28.008     8.681
     6   6 C        2.989     0.008    27.828     8.653
     7   6 C        2.917    -0.046    29.132     8.851
     8   6 C        2.917    -0.042    29.051     8.839
     9   6 C        2.917    -0.044    29.088     8.844
    10   6 C        2.915    -0.044    29.088     8.844
    11   6 C        2.999     0.016    27.650     8.626
    12   6 C        2.933    -0.031    28.769     8.796
    13   6 C        2.921    -0.050    29.244     8.868
    14   6 C        2.922    -0.041    29.028     8.835
    15   6 C        3.157    -0.004    27.821     8.624
    16   6 C        2.918    -0.030    28.746     8.792
    17   6 C        2.911    -0.041    29.023     8.834
    18   6 C        2.916    -0.033    28.822     8.804
    19   1 H        0.926     0.013     2.839     2.635
    20   1 H        0.926     0.014     2.819     2.625
    21   1 H        0.926     0.014     2.821     2.627
    22   1 H        0.926     0.015     2.812     2.622
    23   1 H        0.926     0.035     2.516     2.480
    24   1 H        0.926     0.014     2.819     2.626
    25   1 H        0.926     0.016     2.796     2.615
    26   1 H        0.926     0.026     2.650     2.546
    27   1 H        0.926     0.021     2.720     2.579
    28   1 H        0.926     0.018     2.756     2.596
    29   6 C        2.920     0.156    24.628     8.138
    30   7 N        1.945    -0.333    29.471     8.050
    31   7 N        2.844    -0.004    21.328     6.859
    32   6 C        2.701     0.305    21.817     7.645
    33   7 N        2.852    -0.005    21.358     6.864
    34   7 N        1.926    -0.343    29.761     8.089
    35   8 O        0.858    -0.477    23.276     6.468
    36  16 S        2.323    -0.052   143.230    20.143
    37   6 C        3.012     0.028    27.351     8.579
    38   6 C        3.068    -0.062    29.466     8.901
    39   6 C        2.930     0.067    26.498     8.442
    40   6 C        2.919    -0.047    29.156     8.855
    41   6 C        2.921    -0.036    28.898     8.815
    42   6 C        2.919    -0.051    29.261     8.870
    43   6 C        2.920    -0.037    28.913     8.818
    44   6 C        2.923    -0.045    29.123     8.850
    45   6 C        2.928     0.064    26.562     8.452
    46   6 C        2.924    -0.047    29.176     8.858
    47   6 C        2.920    -0.036    28.895     8.815
    48   6 C        2.918    -0.052    29.290     8.875
    49   6 C        2.921    -0.038    28.934     8.821
    50   6 C        2.918    -0.054    29.348     8.884
    51   1 H        0.926     0.053     2.277     2.360
    52   1 H        0.926     0.012     2.851     2.640
    53   1 H        0.926     0.003     3.007     2.712
    54   1 H        0.926     0.009     2.898     2.662
    55   1 H        0.926     0.050     2.324     2.384
    56   1 H        0.926     0.044     2.398     2.422
    57   1 H        0.926     0.012     2.855     2.642
    58   1 H        0.926     0.005     2.975     2.697
    59   1 H        0.926     0.011     2.872     2.650
    60   1 H        0.926     0.046     2.370     2.407
    61   1 H        0.926     0.041     2.439     2.442

 Mol. C6AA /au·bohr⁶  :      63433.953388
 Mol. C8AA /au·bohr⁸  :    1665219.932465
 Mol. α(0) /au        :        406.662409


Wiberg/Mayer (AO) data.
largest (>0.10) Wiberg bond orders for each atom

 ---------------------------------------------------------------------------
     #   Z sym  total        # sym  WBO       # sym  WBO       # sym  WBO
 ---------------------------------------------------------------------------
     1   6 C    3.941 --     4 C    1.311     2 C    1.204     3 C    1.188
     2   6 C    3.984 --     5 C    1.274    11 C    1.271     1 C    1.204
     3   6 C    3.988 --    12 C    1.308     6 C    1.274     1 C    1.188
     4   6 C    3.969 --     1 C    1.311     7 C    1.244     8 C    1.231
     5   6 C    3.977 --     2 C    1.274    13 C    1.263     9 C    1.242
     6   6 C    3.984 --    14 C    1.308     3 C    1.274    10 C    1.220
     7   6 C    3.963 --     9 C    1.589     4 C    1.244    19 H    0.968
     8   6 C    3.980 --    10 C    1.612     4 C    1.231    20 H    0.968
     9   6 C    3.957 --     7 C    1.589     5 C    1.242    21 H    0.968
    10   6 C    3.958 --     8 C    1.612     6 C    1.220    22 H    0.968
    11   6 C    3.929 --    15 C    1.307     2 C    1.271    36 S    1.125
    12   6 C    3.966 --    16 C    1.508     3 C    1.308    23 H    0.965
                            14 C    0.103
    13   6 C    3.969 --    17 C    1.566     5 C    1.263    24 H    0.968
    14   6 C    3.963 --    18 C    1.512     6 C    1.308    25 H    0.969
                            12 C    0.103
    15   6 C    3.978 --    11 C    1.307    17 C    1.262    38 C    1.224
    16   6 C    3.981 --    12 C    1.508    18 C    1.355    26 H    0.971
    17   6 C    3.963 --    13 C    1.566    15 C    1.262    27 H    0.969
    18   6 C    3.969 --    14 C    1.512    16 C    1.355    28 H    0.972
    19   1 H    0.999 --     7 C    0.968
    20   1 H    0.999 --     8 C    0.968
    21   1 H    0.998 --     9 C    0.968
    22   1 H    0.998 --    10 C    0.968
    23   1 H    0.998 --    12 C    0.965
    24   1 H    0.998 --    13 C    0.968
    25   1 H    0.999 --    14 C    0.969
    26   1 H    0.999 --    16 C    0.971
    27   1 H    0.999 --    17 C    0.969
    28   1 H    0.999 --    18 C    0.972
    29   6 C    3.974 --    30 N    1.383    34 N    1.378    37 C    1.074
    30   7 N    2.819 --    29 C    1.383    31 N    1.042    34 N    0.180
    31   7 N    3.550 --    32 C    1.104    45 C    1.084    30 N    1.042
                            35 O    0.116
    32   6 C    3.957 --    35 O    1.608    33 N    1.105    31 N    1.104
    33   7 N    3.540 --    32 C    1.105    39 C    1.077    34 N    1.040
                            35 O    0.120
    34   7 N    2.790 --    29 C    1.378    33 N    1.040    30 N    0.180
    35   8 O    1.962 --    32 C    1.608    33 N    0.120    31 N    0.116
    36  16 S    2.589 --    11 C    1.125    37 C    1.113
    37   6 C    3.937 --    38 C    1.574    36 S    1.113    29 C    1.074
    38   6 C    3.969 --    37 C    1.574    15 C    1.224    61 H    0.963
    39   6 C    3.959 --    40 C    1.351    44 C    1.344    33 N    1.077
    40   6 C    3.977 --    41 C    1.462    39 C    1.351    56 H    0.967
                            43 C    0.101
    41   6 C    3.988 --    40 C    1.462    42 C    1.420    57 H    0.972
Note: The following floating-point exceptions are signalling: IEEE_UNDERFLOW_FLAG
normal termination of xtb
                            44 C    0.101
    42   6 C    3.961 --    41 C    1.420    43 C    1.415    58 H    0.973
    43   6 C    3.989 --    44 C    1.470    42 C    1.415    59 H    0.972
                            40 C    0.101
    44   6 C    3.977 --    43 C    1.470    39 C    1.344    60 H    0.966
                            41 C    0.101
    45   6 C    3.958 --    50 C    1.348    46 C    1.336    31 N    1.084
    46   6 C    3.974 --    47 C    1.473    45 C    1.336    51 H    0.964
                            49 C    0.100
    47   6 C    3.990 --    46 C    1.473    48 C    1.414    52 H    0.972
    48   6 C    3.959 --    49 C    1.420    47 C    1.414    53 H    0.973
    49   6 C    3.988 --    50 C    1.462    48 C    1.420    54 H    0.972
                            46 C    0.100
    50   6 C    3.976 --    49 C    1.462    45 C    1.348    55 H    0.964
    51   1 H    0.997 --    46 C    0.964
    52   1 H    0.999 --    47 C    0.972
    53   1 H    1.000 --    48 C    0.973
    54   1 H    0.999 --    49 C    0.972
    55   1 H    0.998 --    50 C    0.964
    56   1 H    0.998 --    40 C    0.967
    57   1 H    0.999 --    41 C    0.972
    58   1 H    1.000 --    42 C    0.973
    59   1 H    0.999 --    43 C    0.972
    60   1 H    0.998 --    44 C    0.966
    61   1 H    0.998 --    38 C    0.963
 ---------------------------------------------------------------------------

Topologies differ in bond orders
Writing corrected topology to xtbtopo.mol

molecular dipole:
                 x           y           z       tot (Debye)
 q only:        4.745       0.583      -2.113
   full:        4.542       0.336      -2.044      12.687
molecular quadrupole (traceless):
                xx          xy          yy          xz          yz          zz
 q only:      -51.225     -24.328       9.973      23.502       1.700      41.252
  q+dip:      -44.260     -26.155      14.212      29.589       4.902      30.048
   full:      -48.207     -24.995       8.310      26.248       2.104      39.897


           -------------------------------------------------
          | TOTAL ENERGY             -102.772137997986 Eh   |
          | GRADIENT NORM               0.086659525659 Eh/α |
          | HOMO-LUMO GAP               0.134881417658 eV   |
           -------------------------------------------------
########################################################################
[WARNING] Runtime exception occurred
-2- restart_readRestart: Multiplicity missmatch in restart file.
-1- restart_readRestart: Number of electron missmatch in restart file.
########################################################################

------------------------------------------------------------------------
 * finished run on 2024/11/14 at 13:49:05.328     
------------------------------------------------------------------------
 total:
 * wall-time:     0 d,  0 h,  0 min,  0.704 sec
 *  cpu-time:     0 d,  0 h,  0 min,  2.464 sec
 * ratio c/w:     3.499 speedup
 SCF:
 * wall-time:     0 d,  0 h,  0 min,  0.696 sec
 *  cpu-time:     0 d,  0 h,  0 min,  2.450 sec
 * ratio c/w:     3.519 speedup

