      -----------------------------------------------------------      
     |                   =====================                   |     
     |                           x T B                           |     
     |                   =====================                   |     
     |                         S. Grimme                         |     
     |          Mulliken Center for Theoretical Chemistry        |     
     |                    University of Bonn                     |     
      -----------------------------------------------------------      

   * xtb version 6.6.1 (8d0f1dd) compiled by 'runner@Mac-1690902418499.local' on 2023-08-01

   xtb is free software: you can redistribute it and/or modify it under
   the terms of the GNU Lesser General Public License as published by
   the Free Software Foundation, either version 3 of the License, or
   (at your option) any later version.
   
   xtb is distributed in the hope that it will be useful,
   but WITHOUT ANY WARRANTY; without even the implied warranty of
   MERCHANTABILITY or FITNESS FOR A PARTICULAR PURPOSE.  See the
   GNU Lesser General Public License for more details.
   
   Cite this work as:
   * C. Bannwarth, E. Caldeweyher, S. Ehlert, A. Hansen, P. Pracht,
     J. Seibert, S. Spicher, S. Grimme, WIREs Comput. Mol. Sci., 2020, 11,
     e01493. DOI: 10.1002/wcms.1493
   
   for GFN2-xTB:
   * C. Bannwarth, S. Ehlert and S. Grimme., J. Chem. Theory Comput., 2019,
     15, 1652-1671. DOI: 10.1021/acs.jctc.8b01176
   for GFN1-xTB:
   * S. Grimme, C. Bannwarth, P. Shushkov, J. Chem. Theory Comput., 2017,
     13, 1989-2009. DOI: 10.1021/acs.jctc.7b00118
   for GFN0-xTB:
   * P. Pracht, E. Caldeweyher, S. Ehlert, S. Grimme, ChemRxiv, 2019, preprint.
     DOI: 10.26434/chemrxiv.8326202.v1
   for GFN-FF:
   * S. Spicher and S. Grimme, Angew. Chem. Int. Ed., 2020, 59, 15665-15673.
     DOI: 10.1002/anie.202004239
   
   for ALPB and GBSA implicit solvation:
   * S. Ehlert, M. Stahn, S. Spicher, S. Grimme, J. Chem. Theory Comput.,
     2021, 17, 4250-4261. DOI: 10.1021/acs.jctc.1c00471
   
   for DFT-D4:
   * E. Caldeweyher, C. Bannwarth and S. Grimme, J. Chem. Phys., 2017,
     147, 034112. DOI: 10.1063/1.4993215
   * E. Caldeweyher, S. Ehlert, A. Hansen, H. Neugebauer, S. Spicher,
     C. Bannwarth and S. Grimme, J. Chem. Phys., 2019, 150, 154122.
     DOI: 10.1063/1.5090222
   * E. Caldeweyher, J.-M. Mewes, S. Ehlert and S. Grimme, Phys. Chem. Chem. Phys.
     2020, 22, 8499-8512. DOI: 10.1039/D0CP00502A
   
   for sTDA-xTB:
   * S. Grimme and C. Bannwarth, J. Chem. Phys., 2016, 145, 054103.
     DOI: 10.1063/1.4959605
   
   in the mass-spec context:
   * V. Asgeirsson, C. Bauer and S. Grimme, Chem. Sci., 2017, 8, 4879.
     DOI: 10.1039/c7sc00601b
   * J. Koopman and S. Grimme, ACS Omega 2019, 4, 12, 15120-15133.
     DOI: 10.1021/acsomega.9b02011
   
   for metadynamics refer to:
   * S. Grimme, J. Chem. Theory Comput., 2019, 155, 2847-2862
     DOI: 10.1021/acs.jctc.9b00143
   
   for SPH calculations refer to:
   * S. Spicher and S. Grimme, J. Chem. Theory Comput., 2021, 17, 1701-1714
     DOI: 10.1021/acs.jctc.0c01306
   
   with help from (in alphabetical order)
   P. Atkinson, C. Bannwarth, F. Bohle, G. Brandenburg, E. Caldeweyher
   M. Checinski, S. Dohm, S. Ehlert, S. Ehrlich, I. Gerasimov, C. Hölzer
   A. Katbashev, J. Koopman, C. Lavigne, S. Lehtola, F. März, M. Müller,
   F. Musil, H. Neugebauer, J. Pisarek, C. Plett, P. Pracht, F. Pultar,
   J. Seibert, P. Shushkov, S. Spicher, M. Stahn, M. Steiner, T. Strunk,
   J. Stückrath, T. Rose, and J. Unsleber
   
 * started run on 2024/11/14 at 13:46:17.687     

           -------------------------------------------------
          |                Calculation Setup                |
           -------------------------------------------------

          program call               : xtb Verdazyl5.mol --opt --gfn2 --chrg 2 --uhf 0 --tight
          coordinate file            : Verdazyl5.mol
          omp threads                :                     8

   ID    Z sym.   atoms
    1    6 C      1-18, 29, 32, 37-50
    2    1 H      19-28, 51-61
    3    7 N      30, 31, 33, 34
    4    8 O      35
    5   16 S      36
########################################################################
[WARNING] Please study the warnings concerning your input carefully
-1- prog_main_parseArguments: Unknown option '--tight' provided
########################################################################

           -------------------------------------------------
          |                 G F N 2 - x T B                 |
           -------------------------------------------------

        Reference                      10.1021/acs.jctc.8b01176
      * Hamiltonian:
        H0-scaling (s, p, d)           1.850000    2.230000    2.230000
        zeta-weighting                 0.500000
      * Dispersion:
        s8                             2.700000
        a1                             0.520000
        a2                             5.000000
        s9                             5.000000
      * Repulsion:
        kExp                           1.500000    1.000000
        rExp                           1.000000
      * Coulomb:
        alpha                          2.000000
        third order                    shell-resolved
        anisotropic                    true
        a3                             3.000000
        a5                             4.000000
        cn-shift                       1.200000
        cn-exp                         4.000000
        max-rad                        5.000000

q/qsh data taken from xtbrestart
CAMM data taken from xtbrestart

          ...................................................
          :                      SETUP                      :
          :.................................................:
          :  # basis functions                 187          :
          :  # atomic orbitals                 186          :
          :  # shells                          102          :
          :  # electrons                       187          :
          :  max. iterations                   250          :
          :  Hamiltonian                  GFN2-xTB          :
          :  restarted?                       true          :
          :  GBSA solvation                  false          :
          :  PC potential                    false          :
          :  electronic temp.          300.0000000     K    :
          :  accuracy                    1.0000000          :
          :  -> integral cutoff          0.2500000E+02      :
          :  -> integral neglect         0.1000000E-07      :
          :  -> SCF convergence          0.1000000E-05 Eh   :
          :  -> wf. convergence          0.1000000E-03 e    :
          :  Broyden damping             0.4000000          :
          ...................................................

 iter      E             dE          RMSdq      gap      omega  full diag
   1   -101.2541024 -0.101254E+03  0.371E+00    0.84       0.0  T
   2   -100.4581089  0.795994E+00  0.357E+00    0.25       1.0  T
   3   -100.8601682 -0.402059E+00  0.259E+00    0.04       1.0  T
   4   -101.1067343 -0.246566E+00  0.202E+00    0.05       1.0  T
   5   -101.3439488 -0.237214E+00  0.188E+00    0.95       1.0  T
   6   -101.4163004 -0.723517E-01  0.135E+00    0.87       1.0  T
   7   -101.5925093 -0.176209E+00  0.912E-01    0.62       1.0  T
   8   -101.4267069  0.165802E+00  0.119E+00    0.41       1.0  T
   9   -101.6194257 -0.192719E+00  0.615E-01    0.37       1.0  T
  10   -101.6280289 -0.860328E-02  0.537E-01    0.27       1.0  T
  11   -101.6462198 -0.181909E-01  0.274E-01    0.24       1.0  T
  12   -101.6489997 -0.277985E-02  0.188E-01    0.20       1.0  T
  13   -101.6504778 -0.147815E-02  0.133E-01    0.18       1.0  T
  14   -101.6510172 -0.539314E-03  0.872E-02    0.13       1.0  T
  15   -101.6510422 -0.250845E-04  0.692E-02    0.13       1.0  T
  16   -101.6513678 -0.325518E-03  0.595E-02    0.15       1.0  T
  17   -101.6514058 -0.380217E-04  0.487E-02    0.15       1.0  T
  18   -101.6515355 -0.129737E-03  0.368E-02    0.15       1.0  T
  19   -101.6515976 -0.620564E-04  0.295E-02    0.16       1.0  T
  20   -101.6515959  0.168524E-05  0.299E-02    0.16       1.0  T
  21   -101.6516623 -0.664450E-04  0.145E-02    0.16       1.0  T
  22   -101.6516739 -0.116114E-04  0.395E-03    0.16       3.2  T
  23   -101.6516748 -0.849852E-06  0.314E-03    0.16       4.1  T
  24   -101.6516750 -0.219784E-06  0.221E-03    0.16       5.8  T
  25   -101.6516753 -0.256376E-06  0.106E-03    0.16      12.0  T
  26   -101.6516753 -0.669132E-07  0.431E-04    0.16      29.7  T
  27   -101.6516753 -0.975780E-08  0.170E-04    0.16      75.5  T

   *** convergence criteria satisfied after 27 iterations ***

         #    Occupation            Energy/Eh            Energy/eV
      -------------------------------------------------------------
         1        2.0000           -0.9514875             -25.8913
       ...           ...                  ...                  ...
        88        2.0000           -0.5842323             -15.8978
        89        2.0000           -0.5788487             -15.7513
        90        1.9999           -0.5761633             -15.6782
        91        1.9994           -0.5746394             -15.6367
        92        1.9993           -0.5746048             -15.6358
        93        1.5523           -0.5678873             -15.4530
        94        1.3928           -0.5673345             -15.4380 (HOMO)
        95        0.0563           -0.5614755             -15.2785 (LUMO)
        96                         -0.5037932             -13.7089
        97                         -0.4897872             -13.3278
        98                         -0.4890865             -13.3087
        99                         -0.4784234             -13.0186
       ...                                ...                  ...
       186                          0.6039203              16.4335
      -------------------------------------------------------------
                  HL-Gap            0.0058590 Eh            0.1594 eV
             Fermi-level           -0.5658963 Eh          -15.3988 eV

 SCC (total)                   0 d,  0 h,  0 min,  0.699 sec
 SCC setup                      ...        0 min,  0.000 sec (  0.023%)
 Dispersion                     ...        0 min,  0.001 sec (  0.072%)
 classical contributions        ...        0 min,  0.000 sec (  0.025%)
 integral evaluation            ...        0 min,  0.002 sec (  0.311%)
 iterations                     ...        0 min,  0.684 sec ( 97.842%)
 molecular gradient             ...        0 min,  0.010 sec (  1.421%)
 printout                       ...        0 min,  0.002 sec (  0.305%)

         :::::::::::::::::::::::::::::::::::::::::::::::::::::
         ::                     SUMMARY                     ::
         :::::::::::::::::::::::::::::::::::::::::::::::::::::
         :: total energy            -100.690750705815 Eh    ::
         :: gradient norm              0.599764517478 Eh/a0 ::
         :: HOMO-LUMO gap              0.159431590462 eV    ::
         ::.................................................::
         :: SCC energy              -101.651675345166 Eh    ::
         :: -> isotropic ES            0.224387074985 Eh    ::
         :: -> anisotropic ES         -0.046109214252 Eh    ::
         :: -> anisotropic XC          0.104367218774 Eh    ::
         :: -> dispersion             -0.073958003587 Eh    ::
         :: repulsion energy           0.961386196144 Eh    ::
         :: add. restraining           0.000000000000 Eh    ::
         :: total charge               2.000003117612 e     ::
         :::::::::::::::::::::::::::::::::::::::::::::::::::::

      ----------------------------------------------------------- 
     |                   =====================                   |
     |                        A N C O P T                        |
     |                   =====================                   |
     |               Approximate Normal Coordinate               |
     |                Rational Function Optimizer                |
      ----------------------------------------------------------- 

          ...................................................
          :                      SETUP                      :
          :.................................................:
          :   optimization level            normal          :
          :   max. optcycles                   200          :
          :   ANC micro-cycles                  20          :
          :   degrees of freedom               177          :
          :.................................................:
          :   RF solver                   davidson          :
          :   write xtbopt.log                true          :
          :   linear?                        false          :
          :   energy convergence         0.5000000E-05 Eh   :
          :   grad. convergence          0.1000000E-02 Eh/α :
          :   maxmium RF displ.          1.0000000          :
          :   Hlow (freq-cutoff)         0.1000000E-01      :
          :   Hmax (freq-cutoff)         5.0000000          :
          :   S6 in model hess.         20.0000000          :
          ...................................................

generating ANC from model Hessian ...
Using Lindh-Hessian (1995)
 Shifting diagonal of input Hessian by    1.0016055352710504E-002
 Lowest  eigenvalues of input Hessian
    0.010000    0.010015    0.000000    0.000000    0.000000    0.000000
    0.000000    0.000000    0.010097    0.010114    0.010137    0.010151
    0.010213    0.010427    0.010535    0.010727    0.010852    0.010878
 Highest eigenvalues
    1.399541    1.419695    1.458515    1.464616    1.622768    1.769865


........................................................................
.............................. CYCLE    1 ..............................
........................................................................

 iter      E             dE          RMSdq      gap      omega  full diag
   1   -101.6516753 -0.101652E+03  0.462E-05    0.16       0.0  T
   2   -101.6516753  0.919144E-09  0.987E-05    0.16     129.7  T
   3   -101.6516753 -0.105057E-08  0.346E-05    0.16     370.1  T
     SCC iter.                  ...        0 min,  0.085 sec
     gradient                   ...        0 min,  0.009 sec
 * total energy  :  -100.6907507 Eh     change       -0.1858012E-08 Eh
   gradient norm :     0.5997634 Eh/α   predicted     0.0000000E+00 (-100.00%)
   displ. norm   :     0.6990308 α      lambda       -0.3566795E+00
   maximum displ.:     0.3840924 α      in ANC's #103, #93, #118, ...

........................................................................
.............................. CYCLE    2 ..............................
........................................................................

 iter      E             dE          RMSdq      gap      omega  full diag
   1   -102.0047754 -0.102005E+03  0.598E-01    0.45       0.0  T
   2   -101.5541035  0.450672E+00  0.177E+00    0.08       1.0  T
   3   -101.8143269 -0.260223E+00  0.102E+00    0.48       1.0  T
   4   -101.9992723 -0.184945E+00  0.460E-01    0.37       1.0  T
   5   -102.0037104 -0.443812E-02  0.393E-01    0.29       1.0  T
   6   -101.9997721  0.393838E-02  0.404E-01    0.23       1.0  T
   7   -102.0101964 -0.104243E-01  0.217E-01    0.28       1.0  T
   8   -102.0125343 -0.233787E-02  0.167E-01    0.24       1.0  T
   9   -102.0130007 -0.466458E-03  0.144E-01    0.24       1.0  T
  10   -102.0136148 -0.614057E-03  0.115E-01    0.22       1.0  T
  11   -102.0146259 -0.101113E-02  0.470E-02    0.19       1.0  T
  12   -102.0147257 -0.997390E-04  0.257E-02    0.18       1.0  T
  13   -102.0147443 -0.186147E-04  0.162E-02    0.17       1.0  T
  14   -102.0147477 -0.338144E-05  0.108E-02    0.17       1.2  T
  15   -102.0147559 -0.821890E-05  0.898E-03    0.18       1.4  T
  16   -102.0147582 -0.231675E-05  0.759E-03    0.18       1.7  T
  17   -102.0147600 -0.179122E-05  0.683E-03    0.18       1.9  T
  18   -102.0147624 -0.240468E-05  0.517E-03    0.18       2.5  T
  19   -102.0147644 -0.206246E-05  0.324E-03    0.18       4.0  T
  20   -102.0147653 -0.849473E-06  0.200E-03    0.18       6.4  T
  21   -102.0147657 -0.401790E-06  0.887E-04    0.18      14.4  T
  22   -102.0147658 -0.632089E-07  0.151E-04    0.18      84.8  T
     SCC iter.                  ...        0 min,  0.599 sec
     gradient                   ...        0 min,  0.009 sec
 * total energy  :  -100.9926097 Eh     change       -0.3018590E+00 Eh
   gradient norm :     0.3839639 Eh/α   predicted    -0.2654973E+00 ( -12.05%)
   displ. norm   :     0.7770768 α      lambda       -0.2722785E+00
   maximum displ.:     0.4005491 α      in ANC's #103, #93, #118, ...

........................................................................
.............................. CYCLE    3 ..............................
........................................................................

 iter      E             dE          RMSdq      gap      omega  full diag
   1   -102.2902107 -0.102290E+03  0.105E+00    0.65       0.0  T
   2   -101.1691099  0.112110E+01  0.269E+00    0.10       1.0  T
   3   -102.3961663 -0.122706E+01  0.618E-01    0.15       1.0  T
   4   -102.3918739  0.429241E-02  0.497E-01    0.14       1.0  T
   5   -102.4029875 -0.111136E-01  0.382E-01    0.25       1.0  T
   6   -102.4074359 -0.444837E-02  0.244E-01    0.44       1.0  T
   7   -102.4097365 -0.230062E-02  0.150E-01    0.52       1.0  T
   8   -102.4104832 -0.746678E-03  0.107E-01    0.51       1.0  T
   9   -102.4110980 -0.614849E-03  0.605E-02    0.50       1.0  T
  10   -102.4113000 -0.201997E-03  0.470E-02    0.46       1.0  T
  11   -102.4113800 -0.800248E-04  0.378E-02    0.44       1.0  T
  12   -102.4114216 -0.416077E-04  0.295E-02    0.42       1.0  T
  13   -102.4114619 -0.402398E-04  0.218E-02    0.39       1.0  T
  14   -102.4114984 -0.364930E-04  0.105E-02    0.35       1.2  T
  15   -102.4115044 -0.603540E-05  0.554E-03    0.34       2.3  T
  16   -102.4115067 -0.226090E-05  0.174E-03    0.33       7.3  T
  17   -102.4115069 -0.184440E-06  0.986E-04    0.32      13.0  T
  18   -102.4115069 -0.328116E-07  0.322E-04    0.33      39.8  T
     SCC iter.                  ...        0 min,  0.437 sec
     gradient                   ...        0 min,  0.010 sec
 * total energy  :  -101.1985930 Eh     change       -0.2059833E+00 Eh
   gradient norm :     0.2178614 Eh/α   predicted    -0.2183467E+00 (   6.00%)
   displ. norm   :     0.7371111 α      lambda       -0.1400600E+00
   maximum displ.:     0.3020596 α      in ANC's #103, #93, #43, ...

........................................................................
.............................. CYCLE    4 ..............................
........................................................................

 iter      E             dE          RMSdq      gap      omega  full diag
   1   -102.6153548 -0.102615E+03  0.945E-01    0.88       0.0  T
   2   -100.8174883  0.179787E+01  0.297E+00    0.11       1.0  T
   3   -102.6994604 -0.188197E+01  0.619E-01    0.54       1.0  T
   4   -102.7074625 -0.800217E-02  0.415E-01    0.59       1.0  T
   5   -102.7094125 -0.194996E-02  0.394E-01    0.70       1.0  T
   6   -102.7140137 -0.460122E-02  0.195E-01    0.79       1.0  T
   7   -102.7142969 -0.283140E-03  0.150E-01    0.81       1.0  T
   8   -102.7176619 -0.336500E-02  0.989E-02    0.73       1.0  T
   9   -102.7181325 -0.470613E-03  0.559E-02    0.72       1.0  T
  10   -102.7181452 -0.127417E-04  0.463E-02    0.72       1.0  T
  11   -102.7181759 -0.306258E-04  0.311E-02    0.72       1.0  T
  12   -102.7181872 -0.113391E-04  0.210E-02    0.71       1.0  T
  13   -102.7181978 -0.106391E-04  0.147E-02    0.71       1.0  T
  14   -102.7182030 -0.513176E-05  0.785E-03    0.70       1.6  T
  15   -102.7182055 -0.253098E-05  0.320E-03    0.70       4.0  T
  16   -102.7182057 -0.252300E-06  0.114E-03    0.70      11.2  T
  17   -102.7182058 -0.929843E-07  0.602E-04    0.70      21.3  T
  18   -102.7182059 -0.101342E-07  0.225E-04    0.70      57.0  T
     SCC iter.                  ...        0 min,  0.640 sec
     gradient                   ...        0 min,  0.009 sec
 * total energy  :  -101.3033714 Eh     change       -0.1047784E+00 Eh
   gradient norm :     0.1276108 Eh/α   predicted    -0.1080799E+00 (   3.15%)
   displ. norm   :     0.7280292 α      lambda       -0.7116448E-01
   maximum displ.:     0.2908696 α      in ANC's #43, #24, #93, ...

........................................................................
.............................. CYCLE    5 ..............................
........................................................................

 iter      E             dE          RMSdq      gap      omega  full diag
   1   -102.8484071 -0.102848E+03  0.780E-01    0.85       0.0  T
   2   -101.4405359  0.140787E+01  0.272E+00    0.01       1.0  T
   3   -102.9136533 -0.147312E+01  0.413E-01    0.54       1.0  T
   4   -102.9147222 -0.106888E-02  0.294E-01    0.65       1.0  T
   5   -102.9158600 -0.113776E-02  0.339E-01    0.79       1.0  T
   6   -102.9062748  0.958514E-02  0.286E-01    0.87       1.0  T
   7   -102.9213044 -0.150296E-01  0.116E-01    0.80       1.0  T
   8   -102.9216665 -0.362103E-03  0.715E-02    0.80       1.0  T
   9   -102.9215745  0.920526E-04  0.563E-02    0.81       1.0  T
  10   -102.9217395 -0.165013E-03  0.468E-02    0.79       1.0  T
  11   -102.9217391  0.402313E-06  0.369E-02    0.79       1.0  T
  12   -102.9217862 -0.471336E-04  0.278E-02    0.78       1.0  T
  13   -102.9217931 -0.691184E-05  0.207E-02    0.77       1.0  T
  14   -102.9218040 -0.108276E-04  0.846E-03    0.77       1.5  T
  15   -102.9218065 -0.257200E-05  0.376E-03    0.76       3.4  T
  16   -102.9218076 -0.104156E-05  0.254E-03    0.76       5.0  T
  17   -102.9218077 -0.102591E-06  0.388E-04    0.76      33.0  T
  18   -102.9218077 -0.932515E-08  0.299E-04    0.76      42.9  T
     SCC iter.                  ...        0 min,  0.358 sec
     gradient                   ...        0 min,  0.011 sec
 * total energy  :  -101.3583391 Eh     change       -0.5496770E-01 Eh
   gradient norm :     0.0721869 Eh/α   predicted    -0.5444185E-01 (  -0.96%)
   displ. norm   :     0.7572263 α      lambda       -0.4167894E-01
   maximum displ.:     0.3735784 α      in ANC's #24, #43, #21, ...

........................................................................
.............................. CYCLE    6 ..............................
........................................................................

 iter      E             dE          RMSdq      gap      omega  full diag
   1   -103.0349795 -0.103035E+03  0.317E-01    0.63       0.0  T
   2   -102.9415537  0.934258E-01  0.738E-01    0.79       1.0  T
   3   -103.0347978 -0.932441E-01  0.205E-01    0.59       1.0  T
   4   -103.0266980  0.809976E-02  0.308E-01    0.74       1.0  T
   5   -103.0362345 -0.953652E-02  0.111E-01    0.69       1.0  T
   6   -103.0369035 -0.668928E-03  0.596E-02    0.67       1.0  T
   7   -103.0372925 -0.388999E-03  0.188E-02    0.69       1.0  T
   8   -103.0373258 -0.333292E-04  0.912E-03    0.69       1.4  T
   9   -103.0373299 -0.406648E-05  0.629E-03    0.69       2.0  T
  10   -103.0373315 -0.168105E-05  0.373E-03    0.69       3.4  T
  11   -103.0373320 -0.418982E-06  0.162E-03    0.69       7.9  T
  12   -103.0373323 -0.343367E-06  0.623E-04    0.69      20.5  T
  13   -103.0373323 -0.138493E-07  0.438E-04    0.69      29.2  T
     SCC iter.                  ...        0 min,  0.338 sec
     gradient                   ...        0 min,  0.017 sec
 * total energy  :  -101.3904264 Eh     change       -0.3208720E-01 Eh
   gradient norm :     0.0428710 Eh/α   predicted    -0.3278864E-01 (   2.19%)
   displ. norm   :     0.8042454 α      lambda       -0.2752522E-01
   maximum displ.:     0.4735786 α      in ANC's #24, #21, #43, ...

........................................................................
.............................. CYCLE    7 ..............................
........................................................................

 iter      E             dE          RMSdq      gap      omega  full diag
   1   -103.1026625 -0.103103E+03  0.272E-01    0.67       0.0  T
   2   -103.0310236  0.716389E-01  0.617E-01    0.78       1.0  T
   3   -103.1005653 -0.695417E-01  0.182E-01    0.48       1.0  T
   4   -103.1012716 -0.706325E-03  0.160E-01    0.61       1.0  T
   5   -103.1013958 -0.124229E-03  0.137E-01    0.59       1.0  T
   6   -103.1022133 -0.817526E-03  0.920E-02    0.61       1.0  T
   7   -103.1032443 -0.103096E-02  0.610E-02    0.67       1.0  T
   8   -103.1037483 -0.503994E-03  0.208E-02    0.69       1.0  T
   9   -103.1037766 -0.282974E-04  0.146E-02    0.69       1.0  T
  10   -103.1037662  0.103722E-04  0.127E-02    0.69       1.0  T
  11   -103.1037873 -0.211041E-04  0.671E-03    0.70       1.9  T
  12   -103.1037940 -0.671460E-05  0.174E-03    0.70       7.3  T
  13   -103.1037934  0.604350E-06  0.204E-03    0.70       6.3  T
  14   -103.1037943 -0.828117E-06  0.274E-04    0.70      46.8  T
  15   -103.1037943  0.486068E-08  0.304E-04    0.70      42.1  T
     SCC iter.                  ...        0 min,  0.712 sec
     gradient                   ...        0 min,  0.012 sec
 * total energy  :  -101.4122069 Eh     change       -0.2178058E-01 Eh
   gradient norm :     0.0464472 Eh/α   predicted    -0.2266446E-01 (   4.06%)
   displ. norm   :     0.8379264 α      lambda       -0.2410560E-01
   maximum displ.:     0.5306849 α      in ANC's #24, #21, #43, ...

........................................................................
.............................. CYCLE    8 ..............................
........................................................................

 iter      E             dE          RMSdq      gap      omega  full diag
   1   -103.1349223 -0.103135E+03  0.253E-01    0.66       0.0  T
   2   -103.0697815  0.651408E-01  0.577E-01    0.79       1.0  T
   3   -103.1328600 -0.630785E-01  0.191E-01    0.43       1.0  T
   4   -103.1346713 -0.181131E-02  0.131E-01    0.55       1.0  T
   5   -103.1341689  0.502455E-03  0.124E-01    0.57       1.0  T
   6   -103.1348326 -0.663747E-03  0.979E-02    0.59       1.0  T
   7   -103.1353612 -0.528618E-03  0.761E-02    0.63       1.0  T
   8   -103.1357232 -0.361984E-03  0.601E-02    0.66       1.0  T
   9   -103.1361890 -0.465750E-03  0.304E-02    0.69       1.0  T
  10   -103.1362826 -0.936372E-04  0.142E-02    0.70       1.0  T
  11   -103.1362851 -0.249066E-05  0.126E-02    0.71       1.0  T
  12   -103.1363037 -0.185717E-04  0.761E-03    0.70       1.7  T
  13   -103.1363114 -0.773502E-05  0.416E-03    0.70       3.1  T
  14   -103.1363147 -0.329381E-05  0.491E-04    0.70      26.1  T
  15   -103.1363146  0.668043E-07  0.672E-04    0.70      19.1  T
  16   -103.1363146 -0.332716E-07  0.511E-04    0.70      25.1  T
     SCC iter.                  ...        0 min,  0.625 sec
     gradient                   ...        0 min,  0.014 sec
 * total energy  :  -101.4320700 Eh     change       -0.1986309E-01 Eh
   gradient norm :     0.0572749 Eh/α   predicted    -0.2051532E-01 (   3.28%)
   displ. norm   :     0.8537390 α      lambda       -0.2563296E-01
   maximum displ.:     0.5514634 α      in ANC's #24, #21, #18, ...

........................................................................
.............................. CYCLE    9 ..............................
........................................................................

 iter      E             dE          RMSdq      gap      omega  full diag
   1   -103.1460800 -0.103146E+03  0.309E-01    0.61       0.0  T
   2   -103.1441232  0.195675E-02  0.211E-01    0.73       1.0  T
   3   -103.1444608 -0.337510E-03  0.207E-01    0.41       1.0  T
   4   -103.1470999 -0.263910E-02  0.104E-01    0.60       1.0  T
   5   -103.1472944 -0.194525E-03  0.754E-02    0.69       1.0  T
   6   -103.1477638 -0.469455E-03  0.330E-02    0.69       1.0  T
   7   -103.1478564 -0.925247E-04  0.125E-02    0.68       1.0  T
   8   -103.1478510  0.540310E-05  0.987E-03    0.68       1.3  T
   9   -103.1478608 -0.981627E-05  0.523E-03    0.68       2.4  T
  10   -103.1478633 -0.253489E-05  0.182E-03    0.68       7.0  T
  11   -103.1478631  0.195504E-06  0.159E-03    0.68       8.1  T
  12   -103.1478634 -0.243030E-06  0.105E-03    0.68      12.2  T
  13   -103.1478635 -0.140825E-06  0.235E-04    0.68      54.4  T
  14   -103.1478635 -0.158494E-08  0.135E-04    0.68      95.1  T
     SCC iter.                  ...        0 min,  0.536 sec
     gradient                   ...        0 min,  0.019 sec
 * total energy  :  -101.4559403 Eh     change       -0.2387024E-01 Eh
   gradient norm :     0.0703795 Eh/α   predicted    -0.2215805E-01 (  -7.17%)
   displ. norm   :     0.8456984 α      lambda       -0.3442744E-01
   maximum displ.:     0.5098894 α      in ANC's #24, #21, #18, ...

........................................................................
.............................. CYCLE   10 ..............................
........................................................................

 iter      E             dE          RMSdq      gap      omega  full diag
   1   -103.1303974 -0.103130E+03  0.569E-01    0.53       0.0  T
   2   -103.1323439 -0.194648E-02  0.327E-01    0.63       1.0  T
   3   -103.1310964  0.124749E-02  0.259E-01    0.50       1.0  T
   4   -103.1319882 -0.891826E-03  0.179E-01    0.66       1.0  T
   5   -103.1336495 -0.166131E-02  0.112E-01    0.59       1.0  T
   6   -103.1348951 -0.124554E-02  0.199E-02    0.60       1.0  T
   7   -103.1349012 -0.614496E-05  0.146E-02    0.60       1.0  T
   8   -103.1349121 -0.109050E-04  0.860E-03    0.60       1.5  T
   9   -103.1349149 -0.282138E-05  0.366E-03    0.60       3.5  T
  10   -103.1349154 -0.444232E-06  0.237E-03    0.60       5.4  T
  11   -103.1349156 -0.274107E-06  0.708E-04    0.60      18.1  T
  12   -103.1349157 -0.197949E-07  0.336E-04    0.60      38.1  T
     SCC iter.                  ...        0 min,  0.322 sec
     gradient                   ...        0 min,  0.009 sec
 * total energy  :  -101.4885769 Eh     change       -0.3263668E-01 Eh
   gradient norm :     0.0811711 Eh/α   predicted    -0.2952504E-01 (  -9.53%)
   displ. norm   :     0.8360345 α      lambda       -0.3777507E-01
   maximum displ.:     0.4582936 α      in ANC's #24, #21, #18, ...

........................................................................
.............................. CYCLE   11 ..............................
........................................................................

 iter      E             dE          RMSdq      gap      omega  full diag
   1   -103.1189254 -0.103119E+03  0.738E-01    0.63       0.0  T
   2   -103.1069182  0.120072E-01  0.634E-01    0.71       1.0  T
   3   -103.1336669 -0.267486E-01  0.314E-01    0.45       1.0  T
   4   -103.1345900 -0.923144E-03  0.240E-01    0.58       1.0  T
   5   -103.1373329 -0.274285E-02  0.143E-01    0.55       1.0  T
   6   -103.1392557 -0.192281E-02  0.335E-02    0.57       1.0  T
   7   -103.1393135 -0.578363E-04  0.180E-02    0.57       1.0  T
   8   -103.1393268 -0.132991E-04  0.884E-03    0.56       1.4  T
   9   -103.1393287 -0.188706E-05  0.641E-03    0.57       2.0  T
  10   -103.1393307 -0.205635E-05  0.219E-03    0.57       5.9  T
  11   -103.1393308 -0.752090E-07  0.120E-03    0.57      10.7  T
  12   -103.1393309 -0.111008E-06  0.382E-04    0.57      33.5  T
  13   -103.1393309 -0.825816E-08  0.202E-04    0.57      63.3  T
     SCC iter.                  ...        0 min,  0.262 sec
     gradient                   ...        0 min,  0.013 sec
 * total energy  :  -101.5059477 Eh     change       -0.1737077E-01 Eh
   gradient norm :     0.1578617 Eh/α   predicted    -0.3208904E-01 (  84.73%)
   displ. norm   :     0.4436612 α      lambda       -0.3760407E-01
   maximum displ.:     0.2407822 α      in ANC's #24, #21, #18, ...

........................................................................
.............................. CYCLE   12 ..............................
........................................................................

 iter      E             dE          RMSdq      gap      omega  full diag
   1   -103.1797898 -0.103180E+03  0.320E-01    0.56       0.0  T
   2   -103.1780353  0.175454E-02  0.275E-01    0.51       1.0  T
   3   -103.1820084 -0.397310E-02  0.139E-01    0.59       1.0  T
   4   -103.1820316 -0.231909E-04  0.105E-01    0.53       1.0  T
   5   -103.1824531 -0.421503E-03  0.711E-02    0.56       1.0  T
   6   -103.1829718 -0.518724E-03  0.140E-02    0.56       1.0  T
   7   -103.1829846 -0.127970E-04  0.444E-03    0.56       2.9  T
   8   -103.1829846  0.266431E-07  0.331E-03    0.56       3.9  T
   9   -103.1829850 -0.406041E-06  0.185E-03    0.56       6.9  T
  10   -103.1829851 -0.183404E-06  0.540E-04    0.56      23.7  T
  11   -103.1829851 -0.913219E-08  0.277E-04    0.56      46.2  T
     SCC iter.                  ...        0 min,  0.217 sec
     gradient                   ...        0 min,  0.010 sec
 * total energy  :  -101.5307638 Eh     change       -0.2481604E-01 Eh
   gradient norm :     0.0702763 Eh/α   predicted    -0.2250290E-01 (  -9.32%)
   displ. norm   :     0.7114619 α      lambda       -0.2773159E-01
   maximum displ.:     0.3320183 α      in ANC's #24, #18, #21, ...

........................................................................
.............................. CYCLE   13 ..............................
........................................................................

 iter      E             dE          RMSdq      gap      omega  full diag
   1   -103.2238226 -0.103224E+03  0.305E-01    0.59       0.0  T
   2   -103.2226716  0.115109E-02  0.265E-01    0.60       1.0  T
   3   -103.2266945 -0.402294E-02  0.119E-01    0.56       1.0  T
   4   -103.2269813 -0.286797E-03  0.688E-02    0.57       1.0  T
   5   -103.2270795 -0.982174E-04  0.391E-02    0.56       1.0  T
   6   -103.2271607 -0.811830E-04  0.158E-02    0.56       1.0  T
   7   -103.2271752 -0.145231E-04  0.950E-03    0.56       1.3  T
   8   -103.2271814 -0.620801E-05  0.523E-03    0.56       2.4  T
   9   -103.2271829 -0.151667E-05  0.188E-03    0.56       6.8  T
  10   -103.2271831 -0.133195E-06  0.593E-04    0.56      21.6  T
  11   -103.2271831 -0.116585E-07  0.305E-04    0.56      42.0  T
     SCC iter.                  ...        0 min,  0.362 sec
     gradient                   ...        0 min,  0.010 sec
 * total energy  :  -101.5520754 Eh     change       -0.2131169E-01 Eh
   gradient norm :     0.0420772 Eh/α   predicted    -0.2088435E-01 (  -2.01%)
   displ. norm   :     0.8560559 α      lambda       -0.1890512E-01
   maximum displ.:     0.4652813 α      in ANC's #24, #18, #21, ...

........................................................................
.............................. CYCLE   14 ..............................
........................................................................

 iter      E             dE          RMSdq      gap      omega  full diag
   1   -103.2631609 -0.103263E+03  0.255E-01    0.58       0.0  T
   2   -103.2633471 -0.186249E-03  0.158E-01    0.58       1.0  T
   3   -103.2626410  0.706169E-03  0.122E-01    0.61       1.0  T
   4   -103.2632362 -0.595190E-03  0.620E-02    0.59       1.0  T
   5   -103.2634303 -0.194141E-03  0.364E-02    0.58       1.0  T
   6   -103.2635691 -0.138796E-03  0.115E-02    0.59       1.1  T
   7   -103.2635771 -0.800095E-05  0.406E-03    0.59       3.2  T
   8   -103.2635772 -0.517151E-07  0.250E-03    0.59       5.1  T
   9   -103.2635775 -0.298539E-06  0.914E-04    0.59      14.0  T
  10   -103.2635775 -0.205338E-07  0.588E-04    0.59      21.8  T
     SCC iter.                  ...        0 min,  0.313 sec
     gradient                   ...        0 min,  0.010 sec
 * total energy  :  -101.5645825 Eh     change       -0.1250708E-01 Eh
   gradient norm :     0.0450218 Eh/α   predicted    -0.1637971E-01 (  30.96%)
   displ. norm   :     0.7058595 α      lambda       -0.1392930E-01
   maximum displ.:     0.3840109 α      in ANC's #18, #6, #20, ...

........................................................................
.............................. CYCLE   15 ..............................
........................................................................

 iter      E             dE          RMSdq      gap      omega  full diag
   1   -103.3039850 -0.103304E+03  0.262E-01    0.60       0.0  T
   2   -103.3030422  0.942823E-03  0.201E-01    0.59       1.0  T
   3   -103.3032042 -0.161952E-03  0.167E-01    0.56       1.0  T
   4   -103.3032954 -0.911817E-04  0.126E-01    0.59       1.0  T
   5   -103.3048621 -0.156679E-02  0.305E-02    0.57       1.0  T
   6   -103.3049150 -0.528725E-04  0.114E-02    0.57       1.1  T
   7   -103.3049169 -0.186663E-05  0.845E-03    0.57       1.5  T
   8   -103.3049193 -0.243808E-05  0.376E-03    0.57       3.4  T
   9   -103.3049204 -0.105421E-05  0.168E-03    0.57       7.6  T
  10   -103.3049205 -0.112429E-06  0.693E-04    0.57      18.5  T
  11   -103.3049205 -0.672337E-08  0.380E-04    0.57      33.7  T
     SCC iter.                  ...        0 min,  0.209 sec
     gradient                   ...        0 min,  0.010 sec
 * total energy  :  -101.5710716 Eh     change       -0.6489026E-02 Eh
   gradient norm :     0.0504672 Eh/α   predicted    -0.1043470E-01 (  60.81%)
   displ. norm   :     0.6198383 α      lambda       -0.1021287E-01
   maximum displ.:     0.2558990 α      in ANC's #24, #6, #18, ...

........................................................................
.............................. CYCLE   16 ..............................
........................................................................

 iter      E             dE          RMSdq      gap      omega  full diag
   1   -103.3035827 -0.103304E+03  0.212E-01    0.59       0.0  T
   2   -103.3037219 -0.139211E-03  0.124E-01    0.61       1.0  T
   3   -103.3031295  0.592422E-03  0.108E-01    0.57       1.0  T
   4   -103.3035790 -0.449466E-03  0.577E-02    0.62       1.0  T
   5   -103.3037503 -0.171380E-03  0.363E-02    0.60       1.0  T
   6   -103.3038826 -0.132299E-03  0.985E-03    0.60       1.3  T
   7   -103.3038885 -0.589897E-05  0.423E-03    0.60       3.0  T
   8   -103.3038889 -0.375603E-06  0.219E-03    0.60       5.8  T
   9   -103.3038892 -0.237391E-06  0.106E-03    0.60      12.1  T
  10   -103.3038892 -0.212870E-07  0.611E-04    0.60      21.0  T
  11   -103.3038892 -0.116110E-07  0.315E-04    0.60      40.7  T
     SCC iter.                  ...        0 min,  0.295 sec
     gradient                   ...        0 min,  0.009 sec
 * total energy  :  -101.5770907 Eh     change       -0.6019179E-02 Eh
   gradient norm :     0.0321782 Eh/α   predicted    -0.7068324E-02 (  17.43%)
   displ. norm   :     0.5751492 α      lambda       -0.6506040E-02
   maximum displ.:     0.2613104 α      in ANC's #6, #18, #12, ...

........................................................................
.............................. CYCLE   17 ..............................
........................................................................

 iter      E             dE          RMSdq      gap      omega  full diag
   1   -103.2956848 -0.103296E+03  0.202E-01    0.61       0.0  T
   2   -103.2956486  0.361726E-04  0.133E-01    0.58       1.0  T
   3   -103.2953543  0.294363E-03  0.107E-01    0.62       1.0  T
   4   -103.2958300 -0.475714E-03  0.516E-02    0.60       1.0  T
   5   -103.2959572 -0.127216E-03  0.299E-02    0.59       1.0  T
   6   -103.2960447 -0.874571E-04  0.956E-03    0.60       1.3  T
   7   -103.2960503 -0.564007E-05  0.410E-03    0.60       3.1  T
   8   -103.2960507 -0.367414E-06  0.254E-03    0.60       5.0  T
   9   -103.2960510 -0.342788E-06  0.844E-04    0.60      15.2  T
  10   -103.2960510 -0.331990E-07  0.425E-04    0.60      30.2  T
     SCC iter.                  ...        0 min,  0.189 sec
     gradient                   ...        0 min,  0.011 sec
 * total energy  :  -101.5796873 Eh     change       -0.2596541E-02 Eh
   gradient norm :     0.0462688 Eh/α   predicted    -0.4329110E-02 (  66.73%)
   displ. norm   :     0.4589899 α      lambda       -0.5244299E-02
   maximum displ.:     0.2029465 α      in ANC's #6, #4, #5, ...

........................................................................
.............................. CYCLE   18 ..............................
........................................................................

 iter      E             dE          RMSdq      gap      omega  full diag
   1   -103.3081044 -0.103308E+03  0.169E-01    0.63       0.0  T
   2   -103.3082606 -0.156204E-03  0.999E-02    0.60       1.0  T
   3   -103.3080206  0.240056E-03  0.865E-02    0.63       1.0  T
   4   -103.3082864 -0.265847E-03  0.333E-02    0.61       1.0  T
   5   -103.3083183 -0.318767E-04  0.170E-02    0.61       1.0  T
   6   -103.3083316 -0.132809E-04  0.852E-03    0.62       1.5  T
   7   -103.3083358 -0.424664E-05  0.541E-03    0.61       2.4  T
   8   -103.3083383 -0.246604E-05  0.199E-03    0.61       6.4  T
   9   -103.3083385 -0.244140E-06  0.850E-04    0.61      15.1  T
  10   -103.3083386 -0.452755E-07  0.313E-04    0.61      40.9  T
     SCC iter.                  ...        0 min,  0.200 sec
     gradient                   ...        0 min,  0.013 sec
 * total energy  :  -101.5811292 Eh     change       -0.1441926E-02 Eh
   gradient norm :     0.0319981 Eh/α   predicted    -0.3174571E-02 ( 120.16%)
   displ. norm   :     0.3650754 α      lambda       -0.5044760E-02
   maximum displ.:     0.1354695 α      in ANC's #6, #18, #17, ...

........................................................................
.............................. CYCLE   19 ..............................
........................................................................

 iter      E             dE          RMSdq      gap      omega  full diag
   1   -103.3174784 -0.103317E+03  0.169E-01    0.63       0.0  T
   2   -103.3172173  0.261059E-03  0.125E-01    0.62       1.0  T
   3   -103.3173103 -0.930284E-04  0.947E-02    0.62       1.0  T
   4   -103.3173445 -0.341710E-04  0.693E-02    0.61       1.0  T
   5   -103.3177819 -0.437364E-03  0.343E-02    0.63       1.0  T
   6   -103.3178943 -0.112454E-03  0.681E-03    0.62       1.9  T
   7   -103.3178966 -0.229895E-05  0.297E-03    0.62       4.3  T
   8   -103.3178967 -0.851553E-07  0.217E-03    0.62       5.9  T
   9   -103.3178968 -0.116704E-06  0.886E-04    0.62      14.5  T
  10   -103.3178969 -0.385223E-07  0.351E-04    0.62      36.5  T
     SCC iter.                  ...        0 min,  0.182 sec
     gradient                   ...        0 min,  0.009 sec
 * total energy  :  -101.5823839 Eh     change       -0.1254654E-02 Eh
   gradient norm :     0.0326141 Eh/α   predicted    -0.2858563E-02 ( 127.84%)
   displ. norm   :     0.2667586 α      lambda       -0.3552224E-02
   maximum displ.:     0.0891975 α      in ANC's #6, #7, #53, ...

........................................................................
.............................. CYCLE   20 ..............................
........................................................................

 iter      E             dE          RMSdq      gap      omega  full diag
   1   -103.3238137 -0.103324E+03  0.141E-01    0.62       0.0  T
   2   -103.3237313  0.823995E-04  0.922E-02    0.61       1.0  T
   3   -103.3233226  0.408701E-03  0.934E-02    0.64       1.0  T
   4   -103.3236749 -0.352333E-03  0.492E-02    0.61       1.0  T
   5   -103.3239174 -0.242502E-03  0.148E-02    0.62       1.0  T
   6   -103.3239392 -0.217710E-04  0.451E-03    0.62       2.8  T
   7   -103.3239401 -0.966846E-06  0.255E-03    0.62       5.0  T
   8   -103.3239402 -0.801682E-07  0.175E-03    0.62       7.3  T
   9   -103.3239403 -0.136153E-06  0.591E-04    0.62      21.7  T
  10   -103.3239404 -0.148864E-07  0.257E-04    0.62      49.9  T
     SCC iter.                  ...        0 min,  0.183 sec
     gradient                   ...        0 min,  0.011 sec
 * total energy  :  -101.5829234 Eh     change       -0.5395685E-03 Eh
   gradient norm :     0.0243317 Eh/α   predicted    -0.1902503E-02 ( 252.60%)
   displ. norm   :     0.2651635 α      lambda       -0.3329007E-02
   maximum displ.:     0.1024353 α      in ANC's #6, #7, #30, ...
 * RMSD in coord.:     1.1951175 α      energy gain  -0.8921727E+00 Eh

generating ANC from model Hessian ...
Using Lindh-Hessian (1995)
 Shifting diagonal of input Hessian by    9.8951073198137191E-003
 Lowest  eigenvalues of input Hessian
    0.000000    0.000000    0.000000    0.000000    0.000000    0.000000
    0.010000    0.010127    0.010275    0.010673    0.010713    0.011050
    0.011140    0.011374    0.011811    0.012700    0.013739    0.014335
 Highest eigenvalues
    2.086801    2.105568    2.116186    2.141893    2.301949    2.537202


........................................................................
.............................. CYCLE   21 ..............................
........................................................................

 iter      E             dE          RMSdq      gap      omega  full diag
   1   -103.3191401 -0.103319E+03  0.144E-01    0.63       0.0  T
   2   -103.3190475  0.926884E-04  0.102E-01    0.61       1.0  T
   3   -103.3190003  0.471366E-04  0.823E-02    0.64       1.0  T
   4   -103.3192072 -0.206934E-03  0.464E-02    0.61       1.0  T
   5   -103.3193001 -0.928429E-04  0.300E-02    0.62       1.0  T
   6   -103.3194011 -0.100985E-03  0.596E-03    0.62       2.1  T
   7   -103.3194039 -0.283488E-05  0.271E-03    0.62       4.7  T
   8   -103.3194041 -0.180019E-06  0.152E-03    0.62       8.4  T
   9   -103.3194041 -0.513783E-07  0.833E-04    0.62      15.4  T
  10   -103.3194042 -0.341276E-07  0.289E-04    0.62      44.3  T
     SCC iter.                  ...        0 min,  0.188 sec
     gradient                   ...        0 min,  0.010 sec
 * total energy  :  -101.5837377 Eh     change       -0.8142824E-03 Eh
   gradient norm :     0.0280162 Eh/α   predicted     0.0000000E+00 (-100.00%)
   displ. norm   :     0.1456777 α      lambda       -0.1132243E-02
   maximum displ.:     0.0653182 α      in ANC's #6, #5, #2, ...

........................................................................
.............................. CYCLE   22 ..............................
........................................................................

 iter      E             dE          RMSdq      gap      omega  full diag
   1   -103.3225696 -0.103323E+03  0.613E-02    0.62       0.0  T
   2   -103.3225803 -0.106393E-04  0.403E-02    0.61       1.0  T
   3   -103.3224988  0.814329E-04  0.348E-02    0.62       1.0  T
   4   -103.3225323 -0.334260E-04  0.248E-02    0.61       1.0  T
   5   -103.3225894 -0.570874E-04  0.116E-02    0.62       1.1  T
   6   -103.3226023 -0.129683E-04  0.243E-03    0.62       5.3  T
   7   -103.3226026 -0.244605E-06  0.150E-03    0.62       8.6  T
   8   -103.3226026 -0.773435E-07  0.591E-04    0.62      21.7  T
   9   -103.3226027 -0.635909E-08  0.310E-04    0.62      41.3  T
     SCC iter.                  ...        0 min,  0.207 sec
     gradient                   ...        0 min,  0.010 sec
 * total energy  :  -101.5845218 Eh     change       -0.7840598E-03 Eh
   gradient norm :     0.0120944 Eh/α   predicted    -0.5782289E-03 ( -26.25%)
   displ. norm   :     0.2309708 α      lambda       -0.6073287E-03
   maximum displ.:     0.1155910 α      in ANC's #6, #5, #2, ...

........................................................................
.............................. CYCLE   23 ..............................
........................................................................

 iter      E             dE          RMSdq      gap      omega  full diag
   1   -103.3243562 -0.103324E+03  0.720E-02    0.62       0.0  T
   2   -103.3243594 -0.320991E-05  0.448E-02    0.62       1.0  T
   3   -103.3242560  0.103445E-03  0.393E-02    0.62       1.0  T
   4   -103.3243512 -0.952287E-04  0.168E-02    0.62       1.0  T
   5   -103.3243671 -0.158976E-04  0.119E-02    0.62       1.1  T
   6   -103.3243821 -0.149481E-04  0.235E-03    0.62       5.5  T
   7   -103.3243824 -0.280705E-06  0.123E-03    0.62      10.4  T
   8   -103.3243824 -0.493430E-07  0.560E-04    0.62      22.9  T
   9   -103.3243824 -0.825710E-08  0.259E-04    0.62      49.5  T
     SCC iter.                  ...        0 min,  0.278 sec
     gradient                   ...        0 min,  0.010 sec
 * total energy  :  -101.5849371 Eh     change       -0.4153423E-03 Eh
   gradient norm :     0.0055421 Eh/α   predicted    -0.3200174E-03 ( -22.95%)
   displ. norm   :     0.2691289 α      lambda       -0.3483349E-03
   maximum displ.:     0.1367473 α      in ANC's #6, #5, #2, ...

........................................................................
.............................. CYCLE   24 ..............................
........................................................................

 iter      E             dE          RMSdq      gap      omega  full diag
   1   -103.3244534 -0.103324E+03  0.774E-02    0.62       0.0  T
   2   -103.3244552 -0.177937E-05  0.454E-02    0.62       1.0  T
   3   -103.3244109  0.443058E-04  0.262E-02    0.61       1.0  T
   4   -103.3244551 -0.442551E-04  0.756E-03    0.62       1.7  T
   5   -103.3244588 -0.367963E-05  0.251E-03    0.62       5.1  T
   6   -103.3244591 -0.311174E-06  0.119E-03    0.62      10.8  T
   7   -103.3244591 -0.196259E-08  0.985E-04    0.62      13.0  T
   8   -103.3244592 -0.708372E-07  0.506E-04    0.62      25.3  T
     SCC iter.                  ...        0 min,  0.149 sec
     gradient                   ...        0 min,  0.010 sec
 * total energy  :  -101.5852111 Eh     change       -0.2740237E-03 Eh
   gradient norm :     0.0089724 Eh/α   predicted    -0.1867837E-03 ( -31.84%)
   displ. norm   :     0.3629358 α      lambda       -0.3890771E-03
   maximum displ.:     0.1750097 α      in ANC's #6, #5, #2, ...

........................................................................
.............................. CYCLE   25 ..............................
........................................................................

 iter      E             dE          RMSdq      gap      omega  full diag
   1   -103.3238162 -0.103324E+03  0.104E-01    0.61       0.0  T
   2   -103.3238167 -0.511476E-06  0.610E-02    0.61       1.0  T
   3   -103.3237445  0.721624E-04  0.274E-02    0.61       1.0  T
   4   -103.3238114 -0.669169E-04  0.922E-03    0.61       1.4  T
   5   -103.3238191 -0.769695E-05  0.422E-03    0.61       3.0  T
   6   -103.3238208 -0.169413E-05  0.142E-03    0.61       9.0  T
   7   -103.3238209 -0.100576E-06  0.549E-04    0.61      23.3  T
   8   -103.3238209 -0.150632E-07  0.269E-04    0.61      47.6  T
     SCC iter.                  ...        0 min,  0.182 sec
     gradient                   ...        0 min,  0.018 sec
 * total energy  :  -101.5855234 Eh     change       -0.3122287E-03 Eh
   gradient norm :     0.0101261 Eh/α   predicted    -0.2201946E-03 ( -29.48%)
   displ. norm   :     0.4169743 α      lambda       -0.3738880E-03
   maximum displ.:     0.1962380 α      in ANC's #6, #5, #2, ...

........................................................................
.............................. CYCLE   26 ..............................
........................................................................

 iter      E             dE          RMSdq      gap      omega  full diag
   1   -103.3234309 -0.103323E+03  0.119E-01    0.61       0.0  T
   2   -103.3234255  0.545022E-05  0.707E-02    0.61       1.0  T
   3   -103.3231634  0.262132E-03  0.527E-02    0.62       1.0  T
   4   -103.3234348 -0.271464E-03  0.854E-03    0.61       1.5  T
   5   -103.3234391 -0.426355E-05  0.541E-03    0.61       2.4  T
   6   -103.3234420 -0.288283E-05  0.198E-03    0.61       6.5  T
   7   -103.3234422 -0.198488E-06  0.111E-03    0.61      11.5  T
   8   -103.3234422 -0.418377E-07  0.405E-04    0.61      31.6  T
   9   -103.3234422 -0.880398E-08  0.191E-04    0.61      66.9  T
     SCC iter.                  ...        0 min,  0.246 sec
     gradient                   ...        0 min,  0.012 sec
 * total energy  :  -101.5858078 Eh     change       -0.2844460E-03 Eh
   gradient norm :     0.0079432 Eh/α   predicted    -0.2194479E-03 ( -22.85%)
   displ. norm   :     0.3647057 α      lambda       -0.2421864E-03
   maximum displ.:     0.1785929 α      in ANC's #5, #2, #6, ...

........................................................................
.............................. CYCLE   27 ..............................
........................................................................

 iter      E             dE          RMSdq      gap      omega  full diag
   1   -103.3244325 -0.103324E+03  0.104E-01    0.61       0.0  T
   2   -103.3244269  0.552809E-05  0.614E-02    0.61       1.0  T
   3   -103.3242041  0.222812E-03  0.514E-02    0.62       1.0  T
   4   -103.3244301 -0.225949E-03  0.113E-02    0.62       1.1  T
   5   -103.3244410 -0.109584E-04  0.517E-03    0.61       2.5  T
   6   -103.3244436 -0.254903E-05  0.194E-03    0.61       6.6  T
   7   -103.3244438 -0.201469E-06  0.948E-04    0.61      13.5  T
   8   -103.3244438 -0.273894E-07  0.407E-04    0.61      31.5  T
     SCC iter.                  ...        0 min,  0.178 sec
     gradient                   ...        0 min,  0.009 sec
 * total energy  :  -101.5859828 Eh     change       -0.1749596E-03 Eh
   gradient norm :     0.0043972 Eh/α   predicted    -0.1372024E-03 ( -21.58%)
   displ. norm   :     0.2476071 α      lambda       -0.1155105E-03
   maximum displ.:     0.1300805 α      in ANC's #2, #5, #6, ...

........................................................................
.............................. CYCLE   28 ..............................
........................................................................

 iter      E             dE          RMSdq      gap      omega  full diag
   1   -103.3263397 -0.103326E+03  0.690E-02    0.62       0.0  T
   2   -103.3263375  0.225041E-05  0.408E-02    0.61       1.0  T
   3   -103.3262198  0.117671E-03  0.360E-02    0.62       1.0  T
   4   -103.3263223 -0.102473E-03  0.137E-02    0.62       1.0  T
   5   -103.3263442 -0.219130E-04  0.274E-03    0.61       4.7  T
   6   -103.3263447 -0.555175E-06  0.105E-03    0.62      12.2  T
   7   -103.3263448 -0.399476E-07  0.590E-04    0.62      21.7  T
   8   -103.3263448 -0.866164E-08  0.292E-04    0.62      43.9  T
     SCC iter.                  ...        0 min,  0.209 sec
     gradient                   ...        0 min,  0.011 sec
 * total energy  :  -101.5860664 Eh     change       -0.8363769E-04 Eh
   gradient norm :     0.0023769 Eh/α   predicted    -0.6129631E-04 ( -26.71%)
   displ. norm   :     0.1670846 α      lambda       -0.5987325E-04
   maximum displ.:     0.0978598 α      in ANC's #2, #5, #6, ...

........................................................................
.............................. CYCLE   29 ..............................
........................................................................

 iter      E             dE          RMSdq      gap      omega  full diag
   1   -103.3277327 -0.103328E+03  0.448E-02    0.62       0.0  T
   2   -103.3277298  0.286070E-05  0.270E-02    0.62       1.0  T
   3   -103.3275990  0.130786E-03  0.349E-02    0.61       1.0  T
   4   -103.3277273 -0.128228E-03  0.805E-03    0.62       1.6  T
   5   -103.3277344 -0.717973E-05  0.104E-03    0.62      12.4  T
   6   -103.3277345 -0.635877E-07  0.479E-04    0.62      26.7  T
   7   -103.3277345 -0.506380E-08  0.328E-04    0.62      39.0  T
     SCC iter.                  ...        0 min,  0.163 sec
     gradient                   ...        0 min,  0.022 sec
 * total energy  :  -101.5861134 Eh     change       -0.4700310E-04 Eh
   gradient norm :     0.0023728 Eh/α   predicted    -0.3077272E-04 ( -34.53%)
   displ. norm   :     0.1495226 α      lambda       -0.5316462E-04
   maximum displ.:     0.0926734 α      in ANC's #2, #5, #10, ...

........................................................................
.............................. CYCLE   30 ..............................
........................................................................

 iter      E             dE          RMSdq      gap      omega  full diag
   1   -103.3286279 -0.103329E+03  0.385E-02    0.62       0.0  T
   2   -103.3286221  0.579978E-05  0.240E-02    0.62       1.0  T
   3   -103.3284480  0.174124E-03  0.404E-02    0.61       1.0  T
   4   -103.3286279 -0.179893E-03  0.406E-03    0.62       3.2  T
   5   -103.3286294 -0.154095E-05  0.773E-04    0.62      16.6  T
   6   -103.3286295 -0.250544E-07  0.561E-04    0.62      22.8  T
   7   -103.3286295 -0.120807E-07  0.274E-04    0.62      46.8  T
     SCC iter.                  ...        0 min,  0.116 sec
     gradient                   ...        0 min,  0.009 sec
 * total energy  :  -101.5861577 Eh     change       -0.4427341E-04 Eh
   gradient norm :     0.0026622 Eh/α   predicted    -0.2717716E-04 ( -38.62%)
   displ. norm   :     0.1874908 α      lambda       -0.6507363E-04
   maximum displ.:     0.1148751 α      in ANC's #2, #5, #10, ...

........................................................................
.............................. CYCLE   31 ..............................
........................................................................

 iter      E             dE          RMSdq      gap      omega  full diag
   1   -103.3287661 -0.103329E+03  0.475E-02    0.62       0.0  T
   2   -103.3287550  0.110741E-04  0.297E-02    0.62       1.0  T
   3   -103.3284663  0.288764E-03  0.518E-02    0.60       1.0  T
   4   -103.3287673 -0.301015E-03  0.436E-03    0.62       2.9  T
   5   -103.3287687 -0.137799E-05  0.100E-03    0.62      12.8  T
   6   -103.3287687 -0.524788E-07  0.700E-04    0.62      18.3  T
   7   -103.3287687 -0.212992E-07  0.326E-04    0.62      39.3  T
     SCC iter.                  ...        0 min,  0.119 sec
     gradient                   ...        0 min,  0.011 sec
 * total energy  :  -101.5862115 Eh     change       -0.5385982E-04 Eh
   gradient norm :     0.0026556 Eh/α   predicted    -0.3368122E-04 ( -37.47%)
   displ. norm   :     0.2314923 α      lambda       -0.7038478E-04
   maximum displ.:     0.1401279 α      in ANC's #2, #5, #10, ...

........................................................................
.............................. CYCLE   32 ..............................
........................................................................

 iter      E             dE          RMSdq      gap      omega  full diag
   1   -103.3280580 -0.103328E+03  0.579E-02    0.61       0.0  T
   2   -103.3280456  0.123354E-04  0.355E-02    0.62       1.0  T
   3   -103.3276565  0.389135E-03  0.591E-02    0.60       1.0  T
   4   -103.3280585 -0.402006E-03  0.614E-03    0.61       2.1  T
   5   -103.3280615 -0.299230E-05  0.144E-03    0.62       8.9  T
   6   -103.3280616 -0.101220E-06  0.937E-04    0.62      13.7  T
   7   -103.3280616 -0.221004E-07  0.496E-04    0.62      25.8  T
     SCC iter.                  ...        0 min,  0.140 sec
     gradient                   ...        0 min,  0.010 sec
 * total energy  :  -101.5862683 Eh     change       -0.5672695E-04 Eh
   gradient norm :     0.0023130 Eh/α   predicted    -0.3707946E-04 ( -34.64%)
   displ. norm   :     0.2376655 α      lambda       -0.6193050E-04
   maximum displ.:     0.1444064 α      in ANC's #2, #5, #10, ...

........................................................................
.............................. CYCLE   33 ..............................
........................................................................

 iter      E             dE          RMSdq      gap      omega  full diag
   1   -103.3271336 -0.103327E+03  0.583E-02    0.61       0.0  T
   2   -103.3271266  0.693992E-05  0.350E-02    0.62       1.0  T
   3   -103.3268434  0.283231E-03  0.500E-02    0.60       1.0  T
   4   -103.3271311 -0.287730E-03  0.807E-03    0.61       1.6  T
   5   -103.3271366 -0.551520E-05  0.213E-03    0.61       6.0  T
   6   -103.3271369 -0.226922E-06  0.107E-03    0.61      12.0  T
   7   -103.3271369 -0.238388E-07  0.542E-04    0.61      23.6  T
   8   -103.3271369 -0.164965E-07  0.155E-04    0.61      82.6  T
     SCC iter.                  ...        0 min,  0.130 sec
     gradient                   ...        0 min,  0.009 sec
 * total energy  :  -101.5863190 Eh     change       -0.5075154E-04 Eh
   gradient norm :     0.0020115 Eh/α   predicted    -0.3271752E-04 ( -35.53%)
   displ. norm   :     0.2386780 α      lambda       -0.6037251E-04
   maximum displ.:     0.1467994 α      in ANC's #2, #5, #4, ...

........................................................................
.............................. CYCLE   34 ..............................
........................................................................

 iter      E             dE          RMSdq      gap      omega  full diag
   1   -103.3264283 -0.103326E+03  0.570E-02    0.61       0.0  T
   2   -103.3264255  0.278024E-05  0.339E-02    0.61       1.0  T
   3   -103.3262959  0.129583E-03  0.368E-02    0.60       1.0  T
   4   -103.3264231 -0.127117E-03  0.901E-03    0.61       1.4  T
   5   -103.3264307 -0.764951E-05  0.253E-03    0.61       5.1  T
   6   -103.3264312 -0.482142E-06  0.102E-03    0.61      12.5  T
   7   -103.3264312 -0.293081E-07  0.506E-04    0.61      25.3  T
   8   -103.3264312 -0.145951E-07  0.159E-04    0.61      80.6  T
     SCC iter.                  ...        0 min,  0.132 sec
     gradient                   ...        0 min,  0.010 sec
 * total energy  :  -101.5863711 Eh     change       -0.5204776E-04 Eh
   gradient norm :     0.0020815 Eh/α   predicted    -0.3190939E-04 ( -38.69%)
   displ. norm   :     0.2752357 α      lambda       -0.7569983E-04
   maximum displ.:     0.1703255 α      in ANC's #2, #5, #4, ...

........................................................................
.............................. CYCLE   35 ..............................
........................................................................

 iter      E             dE          RMSdq      gap      omega  full diag
   1   -103.3260458 -0.103326E+03  0.638E-02    0.61       0.0  T
   2   -103.3260434  0.242171E-05  0.379E-02    0.61       1.0  T
   3   -103.3259491  0.942811E-04  0.379E-02    0.61       1.0  T
   4   -103.3260469 -0.977799E-04  0.564E-03    0.61       2.3  T
   5   -103.3260488 -0.191042E-05  0.275E-03    0.61       4.7  T
   6   -103.3260494 -0.572660E-06  0.143E-03    0.61       8.9  T
   7   -103.3260495 -0.174163E-06  0.570E-04    0.61      22.5  T
   8   -103.3260496 -0.194459E-07  0.192E-04    0.61      66.6  T
     SCC iter.                  ...        0 min,  0.126 sec
     gradient                   ...        0 min,  0.010 sec
 * total energy  :  -101.5864380 Eh     change       -0.6689474E-04 Eh
   gradient norm :     0.0025771 Eh/α   predicted    -0.4071830E-04 ( -39.13%)
   displ. norm   :     0.3615906 α      lambda       -0.1039218E-03
   maximum displ.:     0.2232742 α      in ANC's #2, #5, #4, ...

........................................................................
.............................. CYCLE   36 ..............................
........................................................................

 iter      E             dE          RMSdq      gap      omega  full diag
   1   -103.3258088 -0.103326E+03  0.819E-02    0.61       0.0  T
   2   -103.3258046  0.418604E-05  0.487E-02    0.61       1.0  T
   3   -103.3256578  0.146865E-03  0.492E-02    0.61       1.0  T
   4   -103.3258129 -0.155190E-03  0.524E-03    0.61       2.4  T
   5   -103.3258145 -0.152106E-05  0.213E-03    0.61       6.0  T
   6   -103.3258144  0.566955E-07  0.180E-03    0.61       7.1  T
   7   -103.3258147 -0.298523E-06  0.850E-04    0.61      15.1  T
   8   -103.3258148 -0.630541E-07  0.254E-04    0.61      50.5  T
     SCC iter.                  ...        0 min,  0.139 sec
     gradient                   ...        0 min,  0.010 sec
 * total energy  :  -101.5865286 Eh     change       -0.9060553E-04 Eh
   gradient norm :     0.0032576 Eh/α   predicted    -0.5875691E-04 ( -35.15%)
   displ. norm   :     0.4475691 α      lambda       -0.1216933E-03
   maximum displ.:     0.2762913 α      in ANC's #2, #4, #5, ...

........................................................................
.............................. CYCLE   37 ..............................
........................................................................

 iter      E             dE          RMSdq      gap      omega  full diag
   1   -103.3256019 -0.103326E+03  0.996E-02    0.61       0.0  T
   2   -103.3255965  0.538843E-05  0.590E-02    0.60       1.0  T
   3   -103.3253721  0.224366E-03  0.552E-02    0.61       1.0  T
   4   -103.3256002 -0.228012E-03  0.100E-02    0.61       1.3  T
   5   -103.3256081 -0.796781E-05  0.366E-03    0.60       3.5  T
   6   -103.3256091 -0.101699E-05  0.189E-03    0.60       6.8  T
   7   -103.3256094 -0.275519E-06  0.770E-04    0.60      16.6  T
   8   -103.3256094 -0.303901E-07  0.271E-04    0.60      47.3  T
     SCC iter.                  ...        0 min,  0.128 sec
     gradient                   ...        0 min,  0.011 sec
 * total energy  :  -101.5866309 Eh     change       -0.1023629E-03 Eh
   gradient norm :     0.0035903 Eh/α   predicted    -0.7303918E-04 ( -28.65%)
   displ. norm   :     0.4708976 α      lambda       -0.1157697E-03
   maximum displ.:     0.2926756 α      in ANC's #2, #4, #5, ...

........................................................................
.............................. CYCLE   38 ..............................
........................................................................

 iter      E             dE          RMSdq      gap      omega  full diag
   1   -103.3257896 -0.103326E+03  0.103E-01    0.61       0.0  T
   2   -103.3257822  0.744947E-05  0.609E-02    0.60       1.0  T
   3   -103.3254040  0.378132E-03  0.596E-02    0.60       1.0  T
   4   -103.3257710 -0.366938E-03  0.162E-02    0.61       1.0  T
   5   -103.3257962 -0.252135E-04  0.310E-03    0.60       4.1  T
   6   -103.3257966 -0.476079E-06  0.160E-03    0.60       8.0  T
   7   -103.3257968 -0.109961E-06  0.805E-04    0.60      15.9  T
   8   -103.3257968 -0.308820E-07  0.264E-04    0.60      48.5  T
     SCC iter.                  ...        0 min,  0.129 sec
     gradient                   ...        0 min,  0.011 sec
 * total energy  :  -101.5867240 Eh     change       -0.9307497E-04 Eh
   gradient norm :     0.0032056 Eh/α   predicted    -0.7072519E-04 ( -24.01%)
   displ. norm   :     0.4471259 α      lambda       -0.9375581E-04
   maximum displ.:     0.2817939 α      in ANC's #2, #4, #5, ...

........................................................................
.............................. CYCLE   39 ..............................
........................................................................

 iter      E             dE          RMSdq      gap      omega  full diag
   1   -103.3264590 -0.103326E+03  0.961E-02    0.60       0.0  T
   2   -103.3264447  0.143153E-04  0.572E-02    0.60       1.0  T
   3   -103.3257631  0.681604E-03  0.753E-02    0.59       1.0  T
   4   -103.3264522 -0.689117E-03  0.125E-02    0.61       1.0  T
   5   -103.3264655 -0.133066E-04  0.274E-03    0.60       4.7  T
   6   -103.3264658 -0.298834E-06  0.132E-03    0.60       9.7  T
   7   -103.3264659 -0.424222E-07  0.787E-04    0.60      16.3  T
   8   -103.3264659 -0.300988E-07  0.273E-04    0.60      46.9  T
     SCC iter.                  ...        0 min,  0.292 sec
     gradient                   ...        0 min,  0.010 sec
 * total energy  :  -101.5867955 Eh     change       -0.7153826E-04 Eh
   gradient norm :     0.0023377 Eh/α   predicted    -0.5625195E-04 ( -21.37%)
   displ. norm   :     0.3872698 α      lambda       -0.6161016E-04
   maximum displ.:     0.2485041 α      in ANC's #2, #4, #5, ...

........................................................................
.............................. CYCLE   40 ..............................
........................................................................

 iter      E             dE          RMSdq      gap      omega  full diag
   1   -103.3269322 -0.103327E+03  0.825E-02    0.60       0.0  T
   2   -103.3269082  0.240190E-04  0.503E-02    0.61       1.0  T
   3   -103.3260832  0.824977E-03  0.843E-02    0.59       1.0  T
   4   -103.3269347 -0.851560E-03  0.686E-03    0.61       1.9  T
   5   -103.3269387 -0.400671E-05  0.230E-03    0.60       5.6  T
   6   -103.3269390 -0.246130E-06  0.110E-03    0.60      11.7  T
   7   -103.3269390 -0.225010E-07  0.621E-04    0.60      20.6  T
   8   -103.3269390 -0.179414E-07  0.282E-04    0.60      45.4  T
     SCC iter.                  ...        0 min,  0.130 sec
     gradient                   ...        0 min,  0.011 sec
 * total energy  :  -101.5868410 Eh     change       -0.4550516E-04 Eh
   gradient norm :     0.0019164 Eh/α   predicted    -0.3542952E-04 ( -22.14%)
   displ. norm   :     0.4674945 α      lambda       -0.3974728E-04
   maximum displ.:     0.3044675 α      in ANC's #2, #5, #4, ...

........................................................................
.............................. CYCLE   41 ..............................
........................................................................

 iter      E             dE          RMSdq      gap      omega  full diag
   1   -103.3276597 -0.103328E+03  0.998E-02    0.60       0.0  T
   2   -103.3276009  0.588874E-04  0.625E-02    0.61       1.0  T
   3   -103.3262479  0.135296E-02  0.111E-01    0.58       1.0  T
   4   -103.3276690 -0.142109E-02  0.783E-03    0.61       1.6  T
   5   -103.3276733 -0.433499E-05  0.219E-03    0.61       5.9  T
   6   -103.3276734 -0.948333E-07  0.160E-03    0.61       8.0  T
   7   -103.3276735 -0.972574E-07  0.765E-04    0.61      16.7  T
   8   -103.3276735 -0.158384E-07  0.432E-04    0.61      29.7  T
     SCC iter.                  ...        0 min,  0.144 sec
     gradient                   ...        0 min,  0.010 sec
 * total energy  :  -101.5868769 Eh     change       -0.3582717E-04 Eh
   gradient norm :     0.0021218 Eh/α   predicted    -0.2180487E-04 ( -39.14%)
   displ. norm   :     0.1311623 α      lambda       -0.1621689E-04
   maximum displ.:     0.0819671 α      in ANC's #2, #5, #4, ...

........................................................................
.............................. CYCLE   42 ..............................
........................................................................

 iter      E             dE          RMSdq      gap      omega  full diag
   1   -103.3273908 -0.103327E+03  0.297E-02    0.60       0.0  T
   2   -103.3273844  0.639079E-05  0.189E-02    0.61       1.0  T
   3   -103.3272699  0.114431E-03  0.331E-02    0.60       1.0  T
   4   -103.3273910 -0.121071E-03  0.412E-03    0.61       3.1  T
   5   -103.3273924 -0.144053E-05  0.872E-04    0.61      14.7  T
   6   -103.3273925 -0.305863E-07  0.549E-04    0.61      23.3  T
   7   -103.3273925 -0.794672E-08  0.314E-04    0.61      40.7  T
     SCC iter.                  ...        0 min,  0.141 sec
     gradient                   ...        0 min,  0.009 sec
 * total energy  :  -101.5868906 Eh     change       -0.1376134E-04 Eh
   gradient norm :     0.0017195 Eh/α   predicted    -0.8250635E-05 ( -40.04%)
   displ. norm   :     0.3425142 α      lambda       -0.4109253E-04
   maximum displ.:     0.1910244 α      in ANC's #2, #5, #4, ...
 * RMSD in coord.:     0.6811632 α      energy gain  -0.3967213E-02 Eh

generating ANC from model Hessian ...
Using Lindh-Hessian (1995)
 Shifting diagonal of input Hessian by    9.8933878576005878E-003
 Lowest  eigenvalues of input Hessian
    0.000000    0.000000    0.000000    0.000000    0.000000    0.000000
    0.010000    0.010105    0.010259    0.010694    0.010721    0.011002
    0.011138    0.011348    0.011948    0.012783    0.013726    0.014432
 Highest eigenvalues
    2.090348    2.107768    2.135851    2.139639    2.309660    2.568587


........................................................................
.............................. CYCLE   43 ..............................
........................................................................

 iter      E             dE          RMSdq      gap      omega  full diag
   1   -103.3309016 -0.103331E+03  0.833E-02    0.60       0.0  T
   2   -103.3308610  0.406622E-04  0.523E-02    0.61       1.0  T
   3   -103.3301507  0.710249E-03  0.843E-02    0.58       1.0  T
   4   -103.3308938 -0.743091E-03  0.158E-02    0.60       1.0  T
   5   -103.3309156 -0.217558E-04  0.305E-03    0.60       4.2  T
   6   -103.3309162 -0.575675E-06  0.169E-03    0.60       7.6  T
   7   -103.3309163 -0.117886E-06  0.742E-04    0.60      17.2  T
   8   -103.3309163 -0.164900E-07  0.481E-04    0.60      26.6  T
     SCC iter.                  ...        0 min,  0.128 sec
     gradient                   ...        0 min,  0.014 sec
 * total energy  :  -101.5868936 Eh     change       -0.2946028E-05 Eh
   gradient norm :     0.0033467 Eh/α   predicted     0.0000000E+00 (-100.00%)
   displ. norm   :     0.0271162 α      lambda       -0.3206905E-04
   maximum displ.:     0.0131060 α      in ANC's #4, #12, #11, ...

........................................................................
.............................. CYCLE   44 ..............................
........................................................................

 iter      E             dE          RMSdq      gap      omega  full diag
   1   -103.3285302 -0.103329E+03  0.100E-02    0.60       0.0  T
   2   -103.3285303 -0.830845E-07  0.582E-03    0.60       2.2  T
   3   -103.3285295  0.784625E-06  0.403E-03    0.60       3.2  T
   4   -103.3285304 -0.843965E-06  0.110E-03    0.60      11.6  T
   5   -103.3285304 -0.600999E-07  0.438E-04    0.60      29.2  T
   6   -103.3285304 -0.109300E-07  0.253E-04    0.60      50.7  T
     SCC iter.                  ...        0 min,  0.099 sec
     gradient                   ...        0 min,  0.010 sec
 * total energy  :  -101.5869165 Eh     change       -0.2291881E-04 Eh
   gradient norm :     0.0012348 Eh/α   predicted    -0.1698043E-04 ( -25.91%)
   displ. norm   :     0.0513850 α      lambda       -0.1222390E-04
   maximum displ.:     0.0306438 α      in ANC's #4, #12, #11, ...

........................................................................
.............................. CYCLE   45 ..............................
........................................................................

 iter      E             dE          RMSdq      gap      omega  full diag
   1   -103.3269012 -0.103327E+03  0.144E-02    0.60       0.0  T
   2   -103.3269008  0.389684E-06  0.870E-03    0.60       1.5  T
   3   -103.3268902  0.106326E-04  0.114E-02    0.61       1.1  T
   4   -103.3268996 -0.937967E-05  0.418E-03    0.60       3.1  T
   5   -103.3269016 -0.207445E-05  0.763E-04    0.60      16.8  T
   6   -103.3269017 -0.300137E-07  0.347E-04    0.60      36.9  T
   7   -103.3269017 -0.345611E-08  0.176E-04    0.60      72.6  T
     SCC iter.                  ...        0 min,  0.113 sec
     gradient                   ...        0 min,  0.009 sec
 * total energy  :  -101.5869261 Eh     change       -0.9559724E-05 Eh
   gradient norm :     0.0011079 Eh/α   predicted    -0.6120128E-05 ( -35.98%)
   displ. norm   :     0.0305740 α      lambda       -0.4451924E-05
   maximum displ.:     0.0202222 α      in ANC's #4, #2, #12, ...

........................................................................
.............................. CYCLE   46 ..............................
........................................................................

 iter      E             dE          RMSdq      gap      omega  full diag
   1   -103.3274893 -0.103327E+03  0.796E-03    0.60       0.0  T
   2   -103.3274887  0.528583E-06  0.510E-03    0.60       2.5  T
   3   -103.3274826  0.619084E-05  0.834E-03    0.61       1.5  T
   4   -103.3274891 -0.656627E-05  0.170E-03    0.60       7.5  T
   5   -103.3274894 -0.307043E-06  0.258E-04    0.60      49.6  T
   6   -103.3274894 -0.256109E-08  0.136E-04    0.60      94.4  T
     SCC iter.                  ...        0 min,  0.105 sec
     gradient                   ...        0 min,  0.009 sec
 * total energy  :  -101.5869315 Eh     change       -0.5415875E-05 Eh
   gradient norm :     0.0006982 Eh/α   predicted    -0.2245821E-05 ( -58.53%)
   displ. norm   :     0.0474353 α      lambda       -0.4614923E-05
   maximum displ.:     0.0318244 α      in ANC's #4, #2, #6, ...

........................................................................
.............................. CYCLE   47 ..............................
........................................................................

 iter      E             dE          RMSdq      gap      omega  full diag
   1   -103.3282245 -0.103328E+03  0.118E-02    0.60       0.0  T
   2   -103.3282235  0.102958E-05  0.751E-03    0.60       1.7  T
   3   -103.3282106  0.129548E-04  0.122E-02    0.61       1.0  T
   4   -103.3282241 -0.135738E-04  0.252E-03    0.60       5.1  T
   5   -103.3282249 -0.723248E-06  0.457E-04    0.60      28.0  T
   6   -103.3282249 -0.861343E-08  0.264E-04    0.60      48.4  T
     SCC iter.                  ...        0 min,  0.101 sec
     gradient                   ...        0 min,  0.010 sec
 * total energy  :  -101.5869363 Eh     change       -0.4859617E-05 Eh
   gradient norm :     0.0003659 Eh/α   predicted    -0.2313839E-05 ( -52.39%)
   displ. norm   :     0.0395349 α      lambda       -0.2228423E-05
   maximum displ.:     0.0269804 α      in ANC's #4, #2, #9, ...

   *** GEOMETRY OPTIMIZATION CONVERGED AFTER 47 ITERATIONS ***

------------------------------------------------------------------------
 total energy gain   :        -0.8961856 Eh     -562.3650 kcal/mol
 total RMSD          :         1.4729175 a0        0.7794 Å
 total power (kW/mol):       -50.0624477 (step) -191.8426 (real)
------------------------------------------------------------------------

 ANCopt (total)                0 d,  0 h,  0 min, 12.265 sec
 optimizer setup                ...        0 min,  0.000 sec (  0.000%)
 model hessian                  ...        0 min,  0.019 sec (  0.156%)
 ANC generation                 ...        0 min,  0.025 sec (  0.206%)
 coordinate transformation      ...        0 min,  0.001 sec (  0.006%)
 single point calculation       ...        0 min, 12.204 sec ( 99.506%)
 optimization log               ...        0 min,  0.006 sec (  0.053%)
 hessian update                 ...        0 min,  0.003 sec (  0.020%)
 rational function              ...        0 min,  0.005 sec (  0.041%)

================
 final structure:
================
 xtb: 6.6.1 (8d0f1dd)
          11142413463D

 61 68  0     0  0            999 V2000
    3.2010    2.3114    0.4128 C   0  0  0  0  0  0  0  0  0  0  0  0
[...]
 Dispersion                     ...        0 min,  0.000 sec (  0.617%)
 classical contributions        ...        0 min,  0.000 sec (  0.156%)
 integral evaluation            ...        0 min,  0.002 sec (  3.399%)
 iterations                     ...        0 min,  0.049 sec ( 74.766%)
 molecular gradient             ...        0 min,  0.011 sec ( 16.305%)
 printout                       ...        0 min,  0.003 sec (  4.514%)

         :::::::::::::::::::::::::::::::::::::::::::::::::::::
         ::                     SUMMARY                     ::
         :::::::::::::::::::::::::::::::::::::::::::::::::::::
         :: total energy            -101.586936336865 Eh    ::
         :: gradient norm              0.000365128670 Eh/a0 ::
         :: HOMO-LUMO gap              0.603545758722 eV    ::
         ::.................................................::
         :: SCC energy              -103.328224861918 Eh    ::
         :: -> isotropic ES            0.226779693957 Eh    ::
         :: -> anisotropic ES         -0.026207650273 Eh    ::
         :: -> anisotropic XC          0.069093444837 Eh    ::
         :: -> dispersion             -0.083325869759 Eh    ::
         :: repulsion energy           1.741568773711 Eh    ::
         :: add. restraining           0.000000000000 Eh    ::
         :: total charge               2.000000000053 e     ::
         :::::::::::::::::::::::::::::::::::::::::::::::::::::

           -------------------------------------------------
          |                Property Printout                |
           -------------------------------------------------

    * Orbital Energies and Occupations

         #    Occupation            Energy/Eh            Energy/eV
      -------------------------------------------------------------
         1        2.0000           -0.9652009             -26.2645
       ...           ...                  ...                  ...
        82        2.0000           -0.6226580             -16.9434
        83        2.0000           -0.6219563             -16.9243
        84        2.0000           -0.6200835             -16.8733
        85        2.0000           -0.6191057             -16.8467
        86        2.0000           -0.6178023             -16.8113
        87        2.0000           -0.6145961             -16.7240
        88        2.0000           -0.6095946             -16.5879
        89        2.0000           -0.6080157             -16.5449
        90        2.0000           -0.6033575             -16.4182
        91        2.0000           -0.6005878             -16.3428
        92        2.0000           -0.5973753             -16.2554
        93        1.8287           -0.5860344             -15.9468
        94        1.1713           -0.5830391             -15.8653 (HOMO)
        95        0.0000           -0.5608592             -15.2618 (LUMO)
        96                         -0.5034262             -13.6989
        97                         -0.4850969             -13.2002
        98                         -0.4679650             -12.7340
        99                         -0.4545356             -12.3685
       100                         -0.4421708             -12.0321
       101                         -0.4286219             -11.6634
       102                         -0.4251074             -11.5678
       103                         -0.4249371             -11.5631
       104                         -0.4231652             -11.5149
       105                         -0.4179830             -11.3739
       ...                                ...                  ...
       186                          0.5026494              13.6778
      -------------------------------------------------------------
                  HL-Gap            0.0221799 Eh            0.6035 eV
             Fermi-level           -0.5782330 Eh          -15.7345 eV

     #   Z          covCN         q      C6AA      α(0)
     1   6 C        2.976     0.032    27.290     8.569
     2   6 C        2.986     0.016    27.639     8.624
     3   6 C        2.979     0.019    27.569     8.613
     4   6 C        2.984     0.041    27.069     8.534
     5   6 C        2.986     0.035    27.204     8.556
     6   6 C        2.985     0.030    27.331     8.576
     7   6 C        2.914    -0.016    28.421     8.742
     8   6 C        2.915    -0.013    28.347     8.731
     9   6 C        2.917    -0.012    28.321     8.727
    10   6 C        2.915    -0.001    28.050     8.685
    11   6 C        2.991     0.030    27.327     8.575
    12   6 C        2.921    -0.015    28.376     8.735
    13   6 C        2.920    -0.016    28.408     8.740
    14   6 C        2.921    -0.007    28.185     8.706
    15   6 C        3.151     0.018    27.333     8.551
    16   6 C        2.915    -0.009    28.244     8.715
    17   6 C        2.910    -0.007    28.203     8.708
    18   6 C        2.913    -0.008    28.229     8.712
    19   1 H        0.926     0.089     1.888     2.149
    20   1 H        0.926     0.090     1.877     2.142
    21   1 H        0.926     0.089     1.887     2.148
    22   1 H        0.926     0.091     1.871     2.139
    23   1 H        0.926     0.062     2.173     2.305
    24   1 H        0.926     0.091     1.870     2.139
    25   1 H        0.926     0.085     1.932     2.174
    26   1 H        0.926     0.076     2.022     2.224
    27   1 H        0.926     0.089     1.887     2.148
    28   1 H        0.926     0.082     1.954     2.186
    29   6 C        2.912     0.160    24.538     8.123
    30   7 N        1.937    -0.168    25.431     7.478
    31   7 N        2.850     0.104    19.442     6.549
    32   6 C        2.705     0.296    21.975     7.673
    33   7 N        2.852     0.110    19.353     6.534
    34   7 N        1.938    -0.164    25.325     7.462
    35   8 O        0.858    -0.342    20.558     6.079
    36  16 S        2.280     0.072   138.157    19.783
    37   6 C        3.003     0.013    27.711     8.635
    38   6 C        3.062    -0.032    28.745     8.792
    39   6 C        2.935     0.063    26.581     8.455
    40   6 C        2.915    -0.016    28.418     8.742
    41   6 C        2.918    -0.008    28.225     8.712
    42   6 C        2.918     0.006    27.889     8.660
    43   6 C        2.917    -0.009    28.250     8.716
    44   6 C        2.921    -0.018    28.469     8.750
    45   6 C        2.934     0.063    26.592     8.457
    46   6 C        2.921    -0.021    28.539     8.761
    47   6 C        2.917    -0.012    28.307     8.725
    48   6 C        2.918     0.003    27.952     8.670
    49   6 C        2.918    -0.009    28.246     8.715
    50   6 C        2.916    -0.018    28.462     8.748
    51   1 H        0.926     0.076     2.023     2.224
    52   1 H        0.926     0.081     1.971     2.196
    53   1 H        0.926     0.092     1.862     2.134
    54   1 H        0.926     0.092     1.862     2.134
    55   1 H        0.926     0.091     1.865     2.135
    56   1 H        0.926     0.090     1.880     2.144
    57   1 H        0.926     0.093     1.850     2.127
    58   1 H        0.926     0.095     1.831     2.116
    59   1 H        0.926     0.088     1.897     2.154
    60   1 H        0.926     0.079     1.990     2.206
    61   1 H        0.926     0.092     1.862     2.134

 Mol. C6AA /au·bohr⁶  :      58954.786563
 Mol. C8AA /au·bohr⁸  :    1569572.320320
 Mol. α(0) /au        :        392.475389


Wiberg/Mayer (AO) data.
largest (>0.10) Wiberg bond orders for each atom

 ---------------------------------------------------------------------------
     #   Z sym  total        # sym  WBO       # sym  WBO       # sym  WBO
 ---------------------------------------------------------------------------
     1   6 C    3.930 --     2 C    1.249     4 C    1.230     3 C    1.179
     2   6 C    3.960 --    11 C    1.254     1 C    1.249     5 C    1.228
     3   6 C    3.968 --    12 C    1.340     6 C    1.241     1 C    1.179
     4   6 C    3.962 --     8 C    1.291     7 C    1.242     1 C    1.230
     5   6 C    3.952 --    13 C    1.304     2 C    1.228     9 C    1.227
     6   6 C    3.971 --    14 C    1.305    10 C    1.247     3 C    1.241
     7   6 C    3.928 --     9 C    1.577     4 C    1.242    19 H    0.959
     8   6 C    3.926 --    10 C    1.508     4 C    1.291    20 H    0.959
     9   6 C    3.929 --     7 C    1.577     5 C    1.227    21 H    0.959
    10   6 C    3.898 --     8 C    1.508     6 C    1.247    22 H    0.960
    11   6 C    3.921 --    15 C    1.276     2 C    1.254    36 S    1.172
    12   6 C    3.952 --    16 C    1.437     3 C    1.340    23 H    0.962
    13   6 C    3.926 --    17 C    1.497     5 C    1.304    24 H    0.959
    14   6 C    3.911 --    18 C    1.452     6 C    1.305    25 H    0.961
    15   6 C    3.966 --    17 C    1.281    11 C    1.276    38 C    1.238
    16   6 C    3.951 --    12 C    1.437    18 C    1.396    26 H    0.965
    17   6 C    3.913 --    13 C    1.497    15 C    1.281    27 H    0.960
    18   6 C    3.949 --    14 C    1.452    16 C    1.396    28 H    0.965
    19   1 H    0.991 --     7 C    0.959
    20   1 H    0.990 --     8 C    0.959
    21   1 H    0.990 --     9 C    0.959
    22   1 H    0.990 --    10 C    0.960
    23   1 H    0.995 --    12 C    0.962
    24   1 H    0.990 --    13 C    0.959
    25   1 H    0.991 --    14 C    0.961
    26   1 H    0.993 --    16 C    0.965
    27   1 H    0.991 --    17 C    0.960
    28   1 H    0.992 --    18 C    0.965
    29   6 C    3.964 --    30 N    1.350    34 N    1.332    37 C    1.106
    30   7 N    3.013 --    29 C    1.350    31 N    1.273
    31   7 N    3.709 --    30 N    1.273    45 C    1.060    32 C    1.040
                            35 O    0.126
    32   6 C    3.957 --    35 O    1.736    31 N    1.040    33 N    1.031
    33   7 N    3.717 --    34 N    1.289    39 C    1.064    32 C    1.031
                            35 O    0.122
    34   7 N    3.015 --    29 C    1.332    33 N    1.289
    35   8 O    2.095 --    32 C    1.736    31 N    0.126    33 N    0.122
    36  16 S    2.622 --    11 C    1.172    37 C    1.111
    37   6 C    3.925 --    38 C    1.537    36 S    1.111    29 C    1.106
    38   6 C    3.943 --    37 C    1.537    15 C    1.238    61 H    0.955
    39   6 C    3.927 --    40 C    1.323    44 C    1.310    33 N    1.064
    40   6 C    3.973 --    41 C    1.475    39 C    1.323    56 H    0.959
    41   6 C    3.975 --    40 C    1.475    42 C    1.406    57 H    0.961
    42   6 C    3.918 --    41 C    1.406    43 C    1.390    58 H    0.964
    43   6 C    3.975 --    44 C    1.491    42 C    1.390    59 H    0.962
    44   6 C    3.971 --    43 C    1.491    39 C    1.310    60 H    0.959
    45   6 C    3.929 --    50 C    1.328    46 C    1.315    31 N    1.060
    46   6 C    3.971 --    47 C    1.490    45 C    1.315    51 H    0.960
    47   6 C    3.977 --    46 C    1.490    48 C    1.393    52 H    0.964
    48   6 C    3.921 --    49 C    1.410    47 C    1.393    53 H    0.964
    49   6 C    3.976 --    50 C    1.471    48 C    1.410    54 H    0.962
    50   6 C    3.972 --    49 C    1.471    45 C    1.328    55 H    0.959
    51   1 H    0.994 --    46 C    0.960
    52   1 H    0.992 --    47 C    0.964
    53   1 H    0.991 --    48 C    0.964
    54   1 H    0.990 --    49 C    0.962
    55   1 H    0.991 --    50 C    0.959
    56   1 H    0.992 --    40 C    0.959
    57   1 H    0.989 --    41 C    0.961
    58   1 H    0.991 --    42 C    0.964
    59   1 H    0.990 --    43 C    0.962
    60   1 H    0.993 --    44 C    0.959
    61   1 H    0.991 --    38 C    0.955
 ---------------------------------------------------------------------------

Topologies differ in bond orders
Writing corrected topology to xtbtopo.mol

molecular dipole:
                 x           y           z       tot (Debye)
 q only:       -2.449       2.115       2.355
   full:       -2.480       1.905       2.363       9.963
molecular quadrupole (traceless):
                xx          xy          yy          xz          yz          zz
 q only:       77.227      51.109      43.252      -7.886       8.179    -120.479
  q+dip:       81.456      50.684      46.372      -1.624      10.459    -127.829
   full:       76.637      51.968      38.985      -6.087       6.858    -115.622

           -------------------------------------------------
          |                Geometry Summary                 |
           -------------------------------------------------

      molecular mass/u    :      533.6227815
   center of mass at/Å    :       -0.8799853       0.4433364       0.6992554
  moments of inertia/u·Å² :        0.3797793E+04   0.9407967E+04   0.1271091E+05
rotational constants/cm⁻¹ :        0.4438798E-02   0.1791846E-02   0.1326234E-02

 * 67 selected distances

     #   Z          #   Z                                           value/Å
     1   6 C        2   6 C                                       1.4257260
     1   6 C        4   6 C                                       1.4273559
     2   6 C        5   6 C                                       1.4303222
     3   6 C        6   6 C                                       1.4229960
     4   6 C        7   6 C                                       1.4165841
     4   6 C        8   6 C                                       1.4093634
     5   6 C        9   6 C                                       1.4206236
     7   6 C        9   6 C                                       1.3602716
     6   6 C       10   6 C                                       1.4164024
     8   6 C       10   6 C                                       1.3703053
     2   6 C       11   6 C                                       1.4192688
     3   6 C       12   6 C                                       1.4017101
     5   6 C       13   6 C                                       1.4078192
     6   6 C       14   6 C                                       1.4060855
    11   6 C       15   6 C                                       1.4148061
    12   6 C       16   6 C                                       1.3838771
    13   6 C       17   6 C                                       1.3722209
    15   6 C       17   6 C                                       1.4040181
    14   6 C       18   6 C                                       1.3808829
    16   6 C       18   6 C                                       1.3913391
     7   6 C       19   1 H                                       1.0787726
     8   6 C       20   1 H                                       1.0793633
     9   6 C       21   1 H                                       1.0788796
    10   6 C       22   1 H                                       1.0796418
    12   6 C       23   1 H                                       1.0795082
    13   6 C       24   1 H                                       1.0790923
    14   6 C       25   1 H                                       1.0795824
    16   6 C       26   1 H                                       1.0789128
    17   6 C       27   1 H                                       1.0784236
    18   6 C       28   1 H                                       1.0785723
    29   6 C       30   7 N                                       1.3252774
    30   7 N       31   7 N                                       1.3060294
    31   7 N       32   6 C                                       1.4126807
    32   6 C       33   7 N                                       1.4165170
    29   6 C       34   7 N                                       1.3288845
    33   7 N       34   7 N                                       1.3022089
    32   6 C       35   8 O                                       1.1941063
    11   6 C       36  16 S                                       1.7366747
    29   6 C       37   6 C                                       1.4399420
    36  16 S       37   6 C                                       1.7447814 (max)
    15   6 C       38   6 C                                       1.4151019
    37   6 C       38   6 C                                       1.3649573
    33   7 N       39   6 C                                       1.4026776
    39   6 C       40   6 C                                       1.4002588
    40   6 C       41   6 C                                       1.3802663
    41   6 C       42   6 C                                       1.3895216
    42   6 C       43   6 C                                       1.3919711
    39   6 C       44   6 C                                       1.4030795
    43   6 C       44   6 C                                       1.3764485
    31   7 N       45   6 C                                       1.4040917
    45   6 C       46   6 C                                       1.4024632
    46   6 C       47   6 C                                       1.3767908
    47   6 C       48   6 C                                       1.3915510
    48   6 C       49   6 C                                       1.3886611
    45   6 C       50   6 C                                       1.3996749
    49   6 C       50   6 C                                       1.3807317
    46   6 C       51   1 H                                       1.0788460
    47   6 C       52   1 H                                       1.0784780
    48   6 C       53   1 H                                       1.0787413
    49   6 C       54   1 H                                       1.0784290
    50   6 C       55   1 H                                       1.0765159
    40   6 C       56   1 H                                       1.0767675
    41   6 C       57   1 H                                       1.0785314
    42   6 C       58   1 H                                       1.0788113
    43   6 C       59   1 H                                       1.0785674
    44   6 C       60   1 H                                       1.0787253
    38   6 C       61   1 H                                       1.0743857 (min)

 * 6 distinct bonds (by element types)

   Z      Z             #   av. dist./Å        max./Å        min./Å
   1 H    6 C          21     1.0784546     1.0796418     1.0743857
   6 C    6 C          35     1.3995257     1.4399420     1.3602716
   6 C    7 N           6     1.3816881     1.4165170     1.3252774
   7 N    7 N           2     1.3041192     1.3060294     1.3022089
   6 C    8 O           1     1.1941063     1.1941063     1.1941063
   6 C   16 S           2     1.7407281     1.7447814     1.7366747


optimized geometry written to: xtbopt.mol


           -------------------------------------------------
          | TOTAL ENERGY             -101.586936336865 Eh   |
          | GRADIENT NORM               0.000365128670 Eh/α |
          | HOMO-LUMO GAP               0.603545758722 eV   |
           -------------------------------------------------
########################################################################
[WARNING] Runtime exception occurred
-1- restart_readRestart: Number of electron missmatch in restart file.
########################################################################

------------------------------------------------------------------------
 * finished run on 2024/11/14 at 13:46:30.729     
------------------------------------------------------------------------
 total:
 * wall-time:     0 d,  0 h,  0 min, 13.041 sec
 *  cpu-time:     0 d,  0 h,  0 min, 41.592 sec
 * ratio c/w:     3.189 speedup
 SCF:
 * wall-time:     0 d,  0 h,  0 min,  0.699 sec
 *  cpu-time:     0 d,  0 h,  0 min,  2.251 sec
 * ratio c/w:     3.220 speedup
 ANC optimizer:
 * wall-time:     0 d,  0 h,  0 min, 12.333 sec
Note: The following floating-point exceptions are signalling: IEEE_UNDERFLOW_FLAG
normal termination of xtb
 *  cpu-time:     0 d,  0 h,  0 min, 39.327 sec
 * ratio c/w:     3.189 speedup

