      -----------------------------------------------------------      
     |                   =====================                   |     
     |                           x T B                           |     
     |                   =====================                   |     
     |                         S. Grimme                         |     
     |          Mulliken Center for Theoretical Chemistry        |     
     |                    University of Bonn                     |     
      -----------------------------------------------------------      

   * xtb version 6.6.1 (8d0f1dd) compiled by 'runner@Mac-1690902418499.local' on 2023-08-01

   xtb is free software: you can redistribute it and/or modify it under
   the terms of the GNU Lesser General Public License as published by
   the Free Software Foundation, either version 3 of the License, or
   (at your option) any later version.
   
   xtb is distributed in the hope that it will be useful,
   but WITHOUT ANY WARRANTY; without even the implied warranty of
   MERCHANTABILITY or FITNESS FOR A PARTICULAR PURPOSE.  See the
   GNU Lesser General Public License for more details.
   
   Cite this work as:
   * C. Bannwarth, E. Caldeweyher, S. Ehlert, A. Hansen, P. Pracht,
     J. Seibert, S. Spicher, S. Grimme, WIREs Comput. Mol. Sci., 2020, 11,
     e01493. DOI: 10.1002/wcms.1493
   
   for GFN2-xTB:
   * C. Bannwarth, S. Ehlert and S. Grimme., J. Chem. Theory Comput., 2019,
     15, 1652-1671. DOI: 10.1021/acs.jctc.8b01176
   for GFN1-xTB:
   * S. Grimme, C. Bannwarth, P. Shushkov, J. Chem. Theory Comput., 2017,
     13, 1989-2009. DOI: 10.1021/acs.jctc.7b00118
   for GFN0-xTB:
   * P. Pracht, E. Caldeweyher, S. Ehlert, S. Grimme, ChemRxiv, 2019, preprint.
     DOI: 10.26434/chemrxiv.8326202.v1
   for GFN-FF:
   * S. Spicher and S. Grimme, Angew. Chem. Int. Ed., 2020, 59, 15665-15673.
     DOI: 10.1002/anie.202004239
   
   for ALPB and GBSA implicit solvation:
   * S. Ehlert, M. Stahn, S. Spicher, S. Grimme, J. Chem. Theory Comput.,
     2021, 17, 4250-4261. DOI: 10.1021/acs.jctc.1c00471
   
   for DFT-D4:
   * E. Caldeweyher, C. Bannwarth and S. Grimme, J. Chem. Phys., 2017,
     147, 034112. DOI: 10.1063/1.4993215
   * E. Caldeweyher, S. Ehlert, A. Hansen, H. Neugebauer, S. Spicher,
     C. Bannwarth and S. Grimme, J. Chem. Phys., 2019, 150, 154122.
     DOI: 10.1063/1.5090222
   * E. Caldeweyher, J.-M. Mewes, S. Ehlert and S. Grimme, Phys. Chem. Chem. Phys.
     2020, 22, 8499-8512. DOI: 10.1039/D0CP00502A
   
   for sTDA-xTB:
   * S. Grimme and C. Bannwarth, J. Chem. Phys., 2016, 145, 054103.
     DOI: 10.1063/1.4959605
   
   in the mass-spec context:
   * V. Asgeirsson, C. Bauer and S. Grimme, Chem. Sci., 2017, 8, 4879.
     DOI: 10.1039/c7sc00601b
   * J. Koopman and S. Grimme, ACS Omega 2019, 4, 12, 15120-15133.
     DOI: 10.1021/acsomega.9b02011
   
   for metadynamics refer to:
   * S. Grimme, J. Chem. Theory Comput., 2019, 155, 2847-2862
     DOI: 10.1021/acs.jctc.9b00143
   
   for SPH calculations refer to:
   * S. Spicher and S. Grimme, J. Chem. Theory Comput., 2021, 17, 1701-1714
     DOI: 10.1021/acs.jctc.0c01306
   
   with help from (in alphabetical order)
   P. Atkinson, C. Bannwarth, F. Bohle, G. Brandenburg, E. Caldeweyher
   M. Checinski, S. Dohm, S. Ehlert, S. Ehrlich, I. Gerasimov, C. Hölzer
   A. Katbashev, J. Koopman, C. Lavigne, S. Lehtola, F. März, M. Müller,
   F. Musil, H. Neugebauer, J. Pisarek, C. Plett, P. Pracht, F. Pultar,
   J. Seibert, P. Shushkov, S. Spicher, M. Stahn, M. Steiner, T. Strunk,
   J. Stückrath, T. Rose, and J. Unsleber
   
 * started run on 2024/11/14 at 13:49:06.306     

           -------------------------------------------------
          |                Calculation Setup                |
           -------------------------------------------------

          program call               : xtb opt_radical_Verdazyl5.mol --gfn2 --sp --chrg 1 --uhf 0
          coordinate file            : opt_radical_Verdazyl5.mol
          omp threads                :                     8

   ID    Z sym.   atoms
    1    6 C      1-18, 29, 32, 37-50
    2    1 H      19-28, 51-61
    3    7 N      30, 31, 33, 34
    4    8 O      35
    5   16 S      36

           -------------------------------------------------
          |                 G F N 2 - x T B                 |
           -------------------------------------------------

        Reference                      10.1021/acs.jctc.8b01176
      * Hamiltonian:
        H0-scaling (s, p, d)           1.850000    2.230000    2.230000
        zeta-weighting                 0.500000
      * Dispersion:
        s8                             2.700000
        a1                             0.520000
        a2                             5.000000
        s9                             5.000000
      * Repulsion:
        kExp                           1.500000    1.000000
        rExp                           1.000000
      * Coulomb:
        alpha                          2.000000
        third order                    shell-resolved
        anisotropic                    true
        a3                             3.000000
        a5                             4.000000
        cn-shift                       1.200000
        cn-exp                         4.000000
        max-rad                        5.000000

q/qsh data taken from xtbrestart
CAMM data taken from xtbrestart

          ...................................................
          :                      SETUP                      :
          :.................................................:
          :  # basis functions                 187          :
          :  # atomic orbitals                 186          :
          :  # shells                          102          :
          :  # electrons                       188          :
          :  max. iterations                   250          :
          :  Hamiltonian                  GFN2-xTB          :
          :  restarted?                       true          :
          :  GBSA solvation                  false          :
          :  PC potential                    false          :
          :  electronic temp.          300.0000000     K    :
          :  accuracy                    1.0000000          :
          :  -> integral cutoff          0.2500000E+02      :
          :  -> integral neglect         0.1000000E-07      :
          :  -> SCF convergence          0.1000000E-05 Eh   :
          :  -> wf. convergence          0.1000000E-03 e    :
          :  Broyden damping             0.4000000          :
          ...................................................

 iter      E             dE          RMSdq      gap      omega  full diag
   1   -103.8093397 -0.103809E+03  0.104E+00    0.86       0.0  T
   2   -103.3214266  0.487913E+00  0.189E+00    0.14       1.0  T
   3   -103.8266679 -0.505241E+00  0.689E-01    0.84       1.0  T
   4   -103.8405978 -0.139299E-01  0.492E-01    0.51       1.0  T
   5   -103.8573085 -0.167108E-01  0.227E-01    0.14       1.0  T
   6   -103.5252967  0.332012E+00  0.139E+00    0.08       1.0  T
   7   -103.8553037 -0.330007E+00  0.231E-01    0.16       1.0  T
   8   -103.8545841  0.719574E-03  0.228E-01    0.17       1.0  T
   9   -103.8544807  0.103357E-03  0.225E-01    0.17       1.0  T
  10   -103.8592391 -0.475834E-02  0.147E-01    0.13       1.0  T
  11   -103.8608500 -0.161091E-02  0.110E-01    0.12       1.0  T
  12   -103.8618618 -0.101184E-02  0.784E-02    0.11       1.0  T
  13   -103.8629026 -0.104081E-02  0.993E-03    0.09       1.3  T
  14   -103.8629136 -0.109634E-04  0.605E-03    0.09       2.1  T
  15   -103.8629160 -0.243801E-05  0.439E-03    0.09       2.9  T
  16   -103.8629189 -0.287057E-05  0.122E-03    0.09      10.5  T
  17   -103.8629191 -0.204528E-06  0.400E-04    0.09      32.0  T
  18   -103.8629191  0.895552E-08  0.414E-04    0.09      30.9  T

   *** convergence criteria satisfied after 18 iterations ***

         #    Occupation            Energy/Eh            Energy/eV
      -------------------------------------------------------------
         1        2.0000           -0.8587533             -23.3679
       ...           ...                  ...                  ...
        88        2.0000           -0.5099392             -13.8762
        89        2.0000           -0.5074096             -13.8073
        90        2.0000           -0.5066537             -13.7867
        91        2.0000           -0.4993269             -13.5874
        92        2.0000           -0.4843514             -13.1799
        93        1.9663           -0.4735984             -12.8873
        94        1.7306           -0.4715036             -12.8303 (HOMO)
        95        0.3031           -0.4681001             -12.7377 (LUMO)
        96                         -0.3938745             -10.7179
        97                         -0.3678123             -10.0087
        98                         -0.3627531              -9.8710
        99                         -0.3492954              -9.5048
       ...                                ...                  ...
       186                          0.6180889              16.8191
      -------------------------------------------------------------
                  HL-Gap            0.0034035 Eh            0.0926 eV
             Fermi-level           -0.4697365 Eh          -12.7822 eV

 SCC (total)                   0 d,  0 h,  0 min,  0.595 sec
 SCC setup                      ...        0 min,  0.000 sec (  0.031%)
 Dispersion                     ...        0 min,  0.000 sec (  0.070%)
 classical contributions        ...        0 min,  0.000 sec (  0.017%)
 integral evaluation            ...        0 min,  0.002 sec (  0.391%)
 iterations                     ...        0 min,  0.581 sec ( 97.664%)
 molecular gradient             ...        0 min,  0.010 sec (  1.756%)
 printout                       ...        0 min,  0.000 sec (  0.068%)

         :::::::::::::::::::::::::::::::::::::::::::::::::::::
         ::                     SUMMARY                     ::
         :::::::::::::::::::::::::::::::::::::::::::::::::::::
         :: total energy            -102.107654029014 Eh    ::
         :: gradient norm              0.063127895771 Eh/a0 ::
         :: HOMO-LUMO gap              0.092613932135 eV    ::
         ::.................................................::
         :: SCC energy              -103.862919103067 Eh    ::
         :: -> isotropic ES            0.089554283762 Eh    ::
         :: -> anisotropic ES         -0.009162586899 Eh    ::
         :: -> anisotropic XC          0.063735504383 Eh    ::
         :: -> dispersion             -0.086205947964 Eh    ::
         :: repulsion energy           1.755525029376 Eh    ::
         :: add. restraining           0.000000000000 Eh    ::
         :: total charge               1.000002118222 e     ::
         :::::::::::::::::::::::::::::::::::::::::::::::::::::

           -------------------------------------------------
          |                Property Printout                |
           -------------------------------------------------

    * Orbital Energies and Occupations

         #    Occupation            Energy/Eh            Energy/eV
      -------------------------------------------------------------
         1        2.0000           -0.8587533             -23.3679
       ...           ...                  ...                  ...
        82        2.0000           -0.5277684             -14.3613
        83        2.0000           -0.5258806             -14.3099
        84        2.0000           -0.5202688             -14.1572
        85        2.0000           -0.5198790             -14.1466
        86        2.0000           -0.5190795             -14.1249
        87        2.0000           -0.5126844             -13.9509
        88        2.0000           -0.5099392             -13.8762
        89        2.0000           -0.5074096             -13.8073
        90        2.0000           -0.5066537             -13.7867
        91        2.0000           -0.4993269             -13.5874
        92        2.0000           -0.4843514             -13.1799
        93        1.9663           -0.4735984             -12.8873
        94        1.7306           -0.4715036             -12.8303 (HOMO)
        95        0.3031           -0.4681001             -12.7377 (LUMO)
        96                         -0.3938745             -10.7179
        97                         -0.3678123             -10.0087
        98                         -0.3627531              -9.8710
        99                         -0.3492954              -9.5048
       100                         -0.3371604              -9.1746
       101                         -0.3361510              -9.1471
       102                         -0.3330752              -9.0634
       103                         -0.3266494              -8.8886
       104                         -0.3205636              -8.7230
       105                         -0.3067963              -8.3484
       ...                                ...                  ...
       186                          0.6180889              16.8191
      -------------------------------------------------------------
                  HL-Gap            0.0034035 Eh            0.0926 eV
             Fermi-level           -0.4697365 Eh          -12.7822 eV

     #   Z          covCN         q      C6AA      α(0)
     1   6 C        2.980     0.015    27.678     8.630
     2   6 C        2.992     0.006    27.876     8.661
     3   6 C        2.984     0.012    27.748     8.641
     4   6 C        2.988     0.024    27.453     8.595
     5   6 C        2.991     0.021    27.533     8.607
     6   6 C        2.989     0.019    27.571     8.613
     7   6 C        2.917    -0.027    28.682     8.782
     8   6 C        2.917    -0.029    28.714     8.787
     9   6 C        2.917    -0.026    28.649     8.777
    10   6 C        2.915    -0.022    28.562     8.764
    11   6 C        2.999     0.029    27.338     8.577
    12   6 C        2.933    -0.025    28.628     8.775
    13   6 C        2.921    -0.030    28.737     8.791
    14   6 C        2.922    -0.024    28.609     8.771
    15   6 C        3.157     0.007    27.546     8.581
    16   6 C        2.918    -0.023    28.584     8.767
    17   6 C        2.911    -0.025    28.635     8.775
    18   6 C        2.916    -0.022    28.548     8.762
    19   1 H        0.926     0.058     2.217     2.328
    20   1 H        0.926     0.057     2.239     2.340
    21   1 H        0.926     0.058     2.219     2.329
    22   1 H        0.926     0.056     2.241     2.341
    23   1 H        0.926     0.046     2.368     2.406
    24   1 H        0.926     0.061     2.192     2.315
    25   1 H        0.926     0.053     2.282     2.362
    26   1 H        0.926     0.047     2.355     2.400
    27   1 H        0.926     0.059     2.208     2.324
    28   1 H        0.926     0.050     2.323     2.383
    29   6 C        2.920     0.169    24.355     8.093
    30   7 N        1.945    -0.191    25.950     7.554
    31   7 N        2.844     0.075    19.940     6.632
    32   6 C        2.701     0.303    21.852     7.651
    33   7 N        2.852     0.074    19.955     6.635
    34   7 N        1.926    -0.191    25.955     7.554
    35   8 O        0.858    -0.395    21.571     6.227
    36  16 S        2.323     0.006   140.827    19.973
    37   6 C        3.012     0.009    27.804     8.650
    38   6 C        3.068    -0.038    28.883     8.812
    39   6 C        2.930     0.067    26.491     8.441
    40   6 C        2.919    -0.023    28.581     8.767
    41   6 C        2.921    -0.016    28.404     8.740
    42   6 C        2.919    -0.009    28.236     8.714
    43   6 C        2.920    -0.016    28.416     8.742
    44   6 C        2.923    -0.025    28.616     8.772
    45   6 C        2.928     0.067    26.499     8.442
    46   6 C        2.924    -0.027    28.686     8.783
    47   6 C        2.920    -0.017    28.435     8.745
    48   6 C        2.918    -0.009    28.240     8.714
    49   6 C        2.921    -0.017    28.424     8.743
    50   6 C        2.918    -0.028    28.691     8.784
    51   1 H        0.926     0.078     2.003     2.213
    52   1 H        0.926     0.065     2.145     2.290
    53   1 H        0.926     0.070     2.083     2.257
    54   1 H        0.926     0.071     2.076     2.253
    55   1 H        0.926     0.088     1.901     2.156
    56   1 H        0.926     0.078     1.998     2.210
    57   1 H        0.926     0.072     2.069     2.249
    58   1 H        0.926     0.072     2.068     2.249
    59   1 H        0.926     0.069     2.098     2.265
    60   1 H        0.926     0.073     2.047     2.238
    61   1 H        0.926     0.070     2.085     2.258

 Mol. C6AA /au·bohr⁶  :      60356.520378
 Mol. C8AA /au·bohr⁸  :    1599951.504044
 Mol. α(0) /au        :        396.990942


Wiberg/Mayer (AO) data.
largest (>0.10) Wiberg bond orders for each atom

 ---------------------------------------------------------------------------
     #   Z sym  total        # sym  WBO       # sym  WBO       # sym  WBO
 ---------------------------------------------------------------------------
     1   6 C    3.914 --     4 C    1.296     2 C    1.210     3 C    1.185
     2   6 C    3.974 --     5 C    1.269    11 C    1.264     1 C    1.210
     3   6 C    3.980 --    12 C    1.310     6 C    1.269     1 C    1.185
     4   6 C    3.953 --     1 C    1.296     7 C    1.243     8 C    1.238
     5   6 C    3.964 --     2 C    1.269    13 C    1.266     9 C    1.237
     6   6 C    3.980 --    14 C    1.307     3 C    1.269    10 C    1.223
     7   6 C    3.956 --     9 C    1.590     4 C    1.243    19 H    0.964
     8   6 C    3.961 --    10 C    1.594     4 C    1.238    20 H    0.964
     9   6 C    3.944 --     7 C    1.590     5 C    1.237    21 H    0.964
    10   6 C    3.924 --     8 C    1.594     6 C    1.223    22 H    0.965
    11   6 C    3.921 --    15 C    1.306     2 C    1.264    36 S    1.137
    12   6 C    3.940 --    16 C    1.494     3 C    1.310    23 H    0.963
    13   6 C    3.953 --    17 C    1.563     5 C    1.266    24 H    0.964
    14   6 C    3.935 --    18 C    1.500     6 C    1.307    25 H    0.966
    15   6 C    3.972 --    11 C    1.306    17 C    1.256    38 C    1.234
    16   6 C    3.967 --    12 C    1.494    18 C    1.361    26 H    0.969
    17   6 C    3.944 --    13 C    1.563    15 C    1.256    27 H    0.965
    18   6 C    3.958 --    14 C    1.500    16 C    1.361    28 H    0.969
    19   1 H    0.995 --     7 C    0.964
    20   1 H    0.996 --     8 C    0.964
    21   1 H    0.995 --     9 C    0.964
    22   1 H    0.995 --    10 C    0.965
    23   1 H    0.997 --    12 C    0.963
    24   1 H    0.994 --    13 C    0.964
    25   1 H    0.996 --    14 C    0.966
    26   1 H    0.997 --    16 C    0.969
    27   1 H    0.995 --    17 C    0.965
    28   1 H    0.997 --    18 C    0.969
    29   6 C    3.963 --    30 N    1.361    34 N    1.359    37 C    1.095
    30   7 N    2.892 --    29 C    1.361    31 N    1.197
    31   7 N    3.617 --    30 N    1.197    32 C    1.074    45 C    1.057
                            35 O    0.125
    32   6 C    3.958 --    35 O    1.671    33 N    1.076    31 N    1.074
    33   7 N    3.613 --    34 N    1.199    32 C    1.076    39 C    1.045
                            35 O    0.127
    34   7 N    2.881 --    29 C    1.359    33 N    1.199
    35   8 O    2.039 --    32 C    1.671    33 N    0.127    31 N    0.125
    36  16 S    2.606 --    11 C    1.137    37 C    1.111    38 C    0.103
    37   6 C    3.933 --    38 C    1.546    36 S    1.111    29 C    1.095
    38   6 C    3.968 --    37 C    1.546    15 C    1.234    61 H    0.959
                            36 S    0.103
    39   6 C    3.933 --    40 C    1.348    44 C    1.340    33 N    1.045
    40   6 C    3.962 --    41 C    1.460    39 C    1.348    56 H    0.962
    41   6 C    3.983 --    40 C    1.460    42 C    1.421    57 H    0.966
                            44 C    0.101
    42   6 C    3.938 --    41 C    1.421    43 C    1.412    58 H    0.967
    43   6 C    3.983 --    44 C    1.471    42 C    1.412    59 H    0.966
    44   6 C    3.962 --    43 C    1.471    39 C    1.340    60 H    0.961
                            41 C    0.101
Note: The following floating-point exceptions are signalling: IEEE_UNDERFLOW_FLAG
normal termination of xtb
    45   6 C    3.934 --    50 C    1.344    46 C    1.332    31 N    1.057
    46   6 C    3.960 --    47 C    1.477    45 C    1.332    51 H    0.960
                            49 C    0.101
    47   6 C    3.983 --    46 C    1.477    48 C    1.407    52 H    0.967
    48   6 C    3.932 --    49 C    1.421    47 C    1.407    53 H    0.967
    49   6 C    3.983 --    50 C    1.461    48 C    1.421    54 H    0.966
                            46 C    0.101
    50   6 C    3.958 --    49 C    1.461    45 C    1.344    55 H    0.958
    51   1 H    0.994 --    46 C    0.960
    52   1 H    0.995 --    47 C    0.967
    53   1 H    0.995 --    48 C    0.967
    54   1 H    0.994 --    49 C    0.966
    55   1 H    0.992 --    50 C    0.958
    56   1 H    0.994 --    40 C    0.962
    57   1 H    0.993 --    41 C    0.966
    58   1 H    0.995 --    42 C    0.967
    59   1 H    0.994 --    43 C    0.966
    60   1 H    0.994 --    44 C    0.961
    61   1 H    0.994 --    38 C    0.959
 ---------------------------------------------------------------------------

Topologies differ in bond orders
Writing corrected topology to xtbtopo.mol

molecular dipole:
                 x           y           z       tot (Debye)
 q only:       -2.164       0.514       1.182
   full:       -2.209       0.294       1.181       6.411
molecular quadrupole (traceless):
                xx          xy          yy          xz          yz          zz
 q only:       38.548      23.310      29.481      -2.220       6.181     -68.028
  q+dip:       43.831      22.145      32.769       3.688       8.592     -76.601
   full:       38.827      23.372      26.027       0.201       5.422     -64.854


           -------------------------------------------------
          | TOTAL ENERGY             -102.107654029014 Eh   |
          | GRADIENT NORM               0.063127895771 Eh/α |
          | HOMO-LUMO GAP               0.092613932135 eV   |
           -------------------------------------------------
########################################################################
[WARNING] Runtime exception occurred
-2- restart_readRestart: Multiplicity missmatch in restart file.
-1- restart_readRestart: Number of electron missmatch in restart file.
########################################################################

------------------------------------------------------------------------
 * finished run on 2024/11/14 at 13:49:06.909     
------------------------------------------------------------------------
 total:
 * wall-time:     0 d,  0 h,  0 min,  0.603 sec
 *  cpu-time:     0 d,  0 h,  0 min,  2.088 sec
 * ratio c/w:     3.466 speedup
 SCF:
 * wall-time:     0 d,  0 h,  0 min,  0.595 sec
 *  cpu-time:     0 d,  0 h,  0 min,  2.075 sec
 * ratio c/w:     3.486 speedup

